* EQUILIBRATED WATER
*  DATE:     6/17/26     23:41:33      CREATED BY USER: charmm-gui
*
     20277  EXT
         1         1  TIP3      OH2           -17.0378649752      -20.6929393232      -19.6174871492  WZ1       49              0.0000000000
         2         1  TIP3      H1            -17.0871849752      -21.6481293232      -19.6547271492  WZ1       49              0.0000000000
         3         1  TIP3      H2            -17.8646349752      -20.4254093232      -19.2161071492  WZ1       49              0.0000000000
         4         2  TIP3      OH2           -19.7559849752      -16.8253193232      -18.5108071492  WZ1       77              0.0000000000
         5         2  TIP3      H1            -19.5561149752      -16.4011293232      -19.3452771492  WZ1       77              0.0000000000
         6         2  TIP3      H2            -19.1006149752      -16.4814993232      -17.9037671492  WZ1       77              0.0000000000
         7         3  TIP3      OH2           -17.7644249752      -18.5954393232      -21.7125871492  WZ1       160             0.0000000000
         8         3  TIP3      H1            -18.2515549752      -19.3310293232      -22.0838471492  WZ1       160             0.0000000000
         9         3  TIP3      H2            -17.2151549752      -18.9890493232      -21.0346471492  WZ1       160             0.0000000000
        10         4  TIP3      OH2           -19.3136949752      -22.8056293232      -17.0745571492  WZ1       161             0.0000000000
        11         4  TIP3      H1            -20.1795849752      -22.9106593232      -16.6803271492  WZ1       161             0.0000000000
        12         4  TIP3      H2            -18.9371049752      -22.0472993232      -16.6280871492  WZ1       161             0.0000000000
        13         5  TIP3      OH2           -19.3916949752      -19.5420293232      -18.9049771492  WZ1       216             0.0000000000
        14         5  TIP3      H1            -20.1735049752      -19.7282293232      -19.4249171492  WZ1       216             0.0000000000
        15         5  TIP3      H2            -19.4637049752      -18.6125993232      -18.6877271492  WZ1       216             0.0000000000
        16         6  TIP3      OH2            -2.3465049752      -23.4614793232      -27.1539271492  WZ1       220             0.0000000000
        17         6  TIP3      H1             -2.7872349752      -24.1818793232      -26.7033671492  WZ1       220             0.0000000000
        18         6  TIP3      H2             -2.3595349752      -22.7407593232      -26.5241571492  WZ1       220             0.0000000000
        19         7  TIP3      OH2            -5.2349549752      -18.3573093232      -26.9418871492  WZ1       224             0.0000000000
        20         7  TIP3      H1             -4.6153149752      -19.0338393232      -27.2149671492  WZ1       224             0.0000000000
        21         7  TIP3      H2             -5.4432149752      -18.5752293232      -26.0333971492  WZ1       224             0.0000000000
        22         8  TIP3      OH2            -7.6630849752      -23.9683793232      -25.0493371492  WZ1       225             0.0000000000
        23         8  TIP3      H1             -7.3592949752      -24.6542393232      -25.6439271492  WZ1       225             0.0000000000
        24         8  TIP3      H2             -6.9416849752      -23.8495093232      -24.4315371492  WZ1       225             0.0000000000
        25         9  TIP3      OH2             0.9998950248      -32.3668493232      -24.1887171492  WZ1       226             0.0000000000
        26         9  TIP3      H1              1.0491150248      -31.7567293232      -23.4528071492  WZ1       226             0.0000000000
        27         9  TIP3      H2              1.4254050248      -31.9057593232      -24.9116071492  WZ1       226             0.0000000000
        28        10  TIP3      OH2             1.3913550248      -30.8889293232      -21.9527371492  WZ1       232             0.0000000000
        29        10  TIP3      H1              0.7028150248      -30.2308593232      -22.0480771492  WZ1       232             0.0000000000
        30        10  TIP3      H2              1.4068150248      -31.0861393232      -21.0161971492  WZ1       232             0.0000000000
        31        11  TIP3      OH2            -9.9882249752      -24.8790893232      -23.0879271492  WZ1       235             0.0000000000
        32        11  TIP3      H1            -10.7283149752      -24.2809393232      -22.9844071492  WZ1       235             0.0000000000
        33        11  TIP3      H2             -9.2742749752      -24.3251293232      -23.4035671492  WZ1       235             0.0000000000
        34        12  TIP3      OH2           -11.5807949752      -22.9147893232      -22.3007771492  WZ1       238             0.0000000000
        35        12  TIP3      H1            -11.5860349752      -22.0354393232      -22.6788471492  WZ1       238             0.0000000000
        36        12  TIP3      H2            -12.4343849752      -22.9983793232      -21.8757871492  WZ1       238             0.0000000000
        37        13  TIP3      OH2            -1.8347349752      -21.6224093232      -24.8059971492  WZ1       240             0.0000000000
        38        13  TIP3      H1             -2.7763649752      -21.5640193232      -24.6443071492  WZ1       240             0.0000000000
        39        13  TIP3      H2             -1.5581249752      -20.7163593232      -24.9430271492  WZ1       240             0.0000000000
        40        14  TIP3      OH2            -3.5826149752      -19.8410593232      -28.1808371492  WZ1       243             0.0000000000
        41        14  TIP3      H1             -3.1573849752      -20.5482693232      -28.6658771492  WZ1       243             0.0000000000
        42        14  TIP3      H2             -3.2656149752      -19.0397893232      -28.5976171492  WZ1       243             0.0000000000
        43        15  TIP3      OH2            -0.7369449752      -23.3735393232      -21.1948271492  WZ1       245             0.0000000000
        44        15  TIP3      H1             -0.5973149752      -23.9652893232      -21.9341271492  WZ1       245             0.0000000000
        45        15  TIP3      H2             -0.5696649752      -22.5009493232      -21.5509471492  WZ1       245             0.0000000000
        46        16  TIP3      OH2             1.1049850248      -27.0337393232      -23.1287871492  WZ1       248             0.0000000000
        47        16  TIP3      H1              0.4523950248      -26.3391793232      -23.0396971492  WZ1       248             0.0000000000
        48        16  TIP3      H2              1.5700150248      -26.8236493232      -23.9386271492  WZ1       248             0.0000000000
        49        17  TIP3      OH2            -2.9612849752      -28.0279993232      -21.4029371492  WZ1       250             0.0000000000
        50        17  TIP3      H1             -2.8813749752      -27.2645593232      -20.8310871492  WZ1       250             0.0000000000
        51        17  TIP3      H2             -3.5625149752      -27.7487593232      -22.0934271492  WZ1       250             0.0000000000
        52        18  TIP3      OH2            -4.5374949752      -21.2998893232      -24.2205871492  WZ1       254             0.0000000000
        53        18  TIP3      H1             -4.7778349752      -20.6375793232      -23.5726671492  WZ1       254             0.0000000000
        54        18  TIP3      H2             -4.7356749752      -22.1343693232      -23.7956271492  WZ1       254             0.0000000000
        55        19  TIP3      OH2            -9.9666449752      -22.4038093232      -20.2374471492  WZ1       255             0.0000000000
        56        19  TIP3      H1            -10.2778949752      -21.6214893232      -19.7821271492  WZ1       255             0.0000000000
        57        19  TIP3      H2            -10.6166249752      -22.5568993232      -20.9232471492  WZ1       255             0.0000000000
        58        20  TIP3      OH2           -13.0466549752      -26.2056993232      -21.0088771492  WZ1       257             0.0000000000
        59        20  TIP3      H1            -12.9763349752      -25.5550193232      -20.3103771492  WZ1       257             0.0000000000
        60        20  TIP3      H2            -13.9374349752      -26.1029493232      -21.3437871492  WZ1       257             0.0000000000
        61        21  TIP3      OH2           -11.7270549752      -20.3323093232      -19.4740671492  WZ1       259             0.0000000000
        62        21  TIP3      H1            -11.7195249752      -20.4683393232      -20.4215171492  WZ1       259             0.0000000000
        63        21  TIP3      H2            -12.6430149752      -20.4494993232      -19.2220671492  WZ1       259             0.0000000000
        64        22  TIP3      OH2             1.8181350248      -20.6929393232      -19.6174871492  WZ1       265             0.0000000000
        65        22  TIP3      H1              1.7688150248      -21.6481293232      -19.6547271492  WZ1       265             0.0000000000
        66        22  TIP3      H2              0.9913650248      -20.4254093232      -19.2161071492  WZ1       265             0.0000000000
        67        23  TIP3      OH2            -7.2034649752      -21.1190193232      -20.7413471492  WZ1       266             0.0000000000
        68        23  TIP3      H1             -7.1160049752      -20.2925593232      -20.2664371492  WZ1       266             0.0000000000
        69        23  TIP3      H2             -8.0669549752      -21.4486393232      -20.4924171492  WZ1       266             0.0000000000
        70        24  TIP3      OH2            -1.0298849752      -29.1996893232      -19.1372671492  WZ1       271             0.0000000000
        71        24  TIP3      H1             -1.4372049752      -28.7191293232      -19.8579371492  WZ1       271             0.0000000000
        72        24  TIP3      H2             -0.9893149752      -30.1050893232      -19.4451871492  WZ1       271             0.0000000000
        73        25  TIP3      OH2           -13.8809349752      -22.8157493232      -21.1405971492  WZ1       272             0.0000000000
        74        25  TIP3      H1            -13.6648049752      -23.1771893232      -20.2810171492  WZ1       272             0.0000000000
        75        25  TIP3      H2            -14.7364649752      -23.1903693232      -21.3502471492  WZ1       272             0.0000000000
        76        26  TIP3      OH2            -3.2728649752      -30.8681393232      -20.9170271492  WZ1       275             0.0000000000
        77        26  TIP3      H1             -3.7869149752      -30.9939193232      -20.1194271492  WZ1       275             0.0000000000
        78        26  TIP3      H2             -3.4283949752      -29.9558293232      -21.1614071492  WZ1       275             0.0000000000
        79        27  TIP3      OH2            -6.5365049752      -28.5675693232      -18.8330071492  WZ1       281             0.0000000000
        80        27  TIP3      H1             -7.0991249752      -29.2724093232      -18.5122271492  WZ1       281             0.0000000000
        81        27  TIP3      H2             -5.7101649752      -28.6883793232      -18.3652471492  WZ1       281             0.0000000000
        82        28  TIP3      OH2            -5.3699749752      -27.6590393232      -22.8358671492  WZ1       287             0.0000000000
        83        28  TIP3      H1             -5.0464949752      -28.2900693232      -23.4788171492  WZ1       287             0.0000000000
        84        28  TIP3      H2             -5.8100449752      -28.1938193232      -22.1751271492  WZ1       287             0.0000000000
        85        29  TIP3      OH2            -0.8999849752      -16.8253193232      -18.5108071492  WZ1       293             0.0000000000
        86        29  TIP3      H1             -0.7001149752      -16.4011293232      -19.3452771492  WZ1       293             0.0000000000
        87        29  TIP3      H2             -0.2446149752      -16.4814993232      -17.9037671492  WZ1       293             0.0000000000
        88        30  TIP3      OH2           -13.3020049752      -24.3511893232      -18.9027571492  WZ1       294             0.0000000000
        89        30  TIP3      H1            -12.5697649752      -24.0965993232      -18.3413071492  WZ1       294             0.0000000000
        90        30  TIP3      H2            -14.0821349752      -24.1466493232      -18.3872171492  WZ1       294             0.0000000000
        91        31  TIP3      OH2            -0.9519749752      -25.2099893232      -23.2793471492  WZ1       299             0.0000000000
        92        31  TIP3      H1             -0.3100949752      -24.7533593232      -23.8231271492  WZ1       299             0.0000000000
        93        31  TIP3      H2             -1.7822849752      -25.0967493232      -23.7419371492  WZ1       299             0.0000000000
        94        32  TIP3      OH2            -6.5826549752      -24.1584793232      -20.8291971492  WZ1       301             0.0000000000
        95        32  TIP3      H1             -6.9280449752      -24.5402393232      -20.0222371492  WZ1       301             0.0000000000
        96        32  TIP3      H2             -6.7826449752      -23.2251193232      -20.7579071492  WZ1       301             0.0000000000
        97        33  TIP3      OH2            -8.9525749752      -27.0701293232      -18.7684971492  WZ1       306             0.0000000000
        98        33  TIP3      H1             -9.2484949752      -27.2358293232      -19.6635871492  WZ1       306             0.0000000000
        99        33  TIP3      H2             -8.0210549752      -27.2900993232      -18.7791071492  WZ1       306             0.0000000000
       100        34  TIP3      OH2            -4.3322949752      -21.6969293232      -20.8786971492  WZ1       307             0.0000000000
       101        34  TIP3      H1             -5.2328649752      -21.5136693232      -21.1463071492  WZ1       307             0.0000000000
       102        34  TIP3      H2             -4.2981849752      -21.4379993232      -19.9578171492  WZ1       307             0.0000000000
       103        35  TIP3      OH2             1.3622350248      -23.6519693232      -19.6742871492  WZ1       309             0.0000000000
       104        35  TIP3      H1              0.5110850248      -23.4135893232      -20.0416471492  WZ1       309             0.0000000000
       105        35  TIP3      H2              1.9525750248      -23.6686493232      -20.4275771492  WZ1       309             0.0000000000
       106        36  TIP3      OH2            -3.1454049752      -25.8581493232      -25.0250371492  WZ1       311             0.0000000000
       107        36  TIP3      H1             -4.0737149752      -26.0899593232      -25.0521071492  WZ1       311             0.0000000000
       108        36  TIP3      H2             -2.6942949752      -26.6351693232      -25.3551571492  WZ1       311             0.0000000000
       109        37  TIP3      OH2            -8.6602049752      -19.7176393232      -23.0006271492  WZ1       315             0.0000000000
       110        37  TIP3      H1             -8.2977349752      -18.8630793232      -23.2341871492  WZ1       315             0.0000000000
       111        37  TIP3      H2             -8.1286849752      -20.0094793232      -22.2599971492  WZ1       315             0.0000000000
       112        38  TIP3      OH2            -5.1161249752      -23.6185693232      -23.3000671492  WZ1       317             0.0000000000
       113        38  TIP3      H1             -5.5419949752      -23.8463993232      -22.4736671492  WZ1       317             0.0000000000
       114        38  TIP3      H2             -4.5355449752      -24.3573893232      -23.4825371492  WZ1       317             0.0000000000
       115        39  TIP3      OH2            -2.4577049752      -19.0666193232      -20.8305871492  WZ1       319             0.0000000000
       116        39  TIP3      H1             -3.0593849752      -19.6223293232      -21.3259571492  WZ1       319             0.0000000000
       117        39  TIP3      H2             -2.1763349752      -18.3996393232      -21.4568471492  WZ1       319             0.0000000000
       118        40  TIP3      OH2           -14.6839149752      -20.0294093232      -22.9883871492  WZ1       323             0.0000000000
       119        40  TIP3      H1            -14.4668849752      -20.9611693232      -23.0194171492  WZ1       323             0.0000000000
       120        40  TIP3      H2            -14.4375649752      -19.7549093232      -22.1051071492  WZ1       323             0.0000000000
       121        41  TIP3      OH2            -5.6007749752      -32.0928193232      -22.5334671492  WZ1       327             0.0000000000
       122        41  TIP3      H1             -4.9019849752      -32.0189493232      -21.8834971492  WZ1       327             0.0000000000
       123        41  TIP3      H2             -5.9816349752      -32.9573193232      -22.3791771492  WZ1       327             0.0000000000
       124        42  TIP3      OH2            -7.0806549752      -29.7264993232      -21.4167371492  WZ1       331             0.0000000000
       125        42  TIP3      H1             -6.9616249752      -29.1529593232      -20.6596971492  WZ1       331             0.0000000000
       126        42  TIP3      H2             -6.4251949752      -30.4145593232      -21.3019571492  WZ1       331             0.0000000000
       127        43  TIP3      OH2            -0.8760749752      -31.8194693232      -20.5817671492  WZ1       335             0.0000000000
       128        43  TIP3      H1             -1.7924949752      -31.5572993232      -20.6693971492  WZ1       335             0.0000000000
       129        43  TIP3      H2             -0.5405749752      -31.8225693232      -21.4782371492  WZ1       335             0.0000000000
       130        44  TIP3      OH2            -2.2739749752      -28.0693693232      -26.4860371492  WZ1       336             0.0000000000
       131        44  TIP3      H1             -3.0715349752      -28.4843493232      -26.8145371492  WZ1       336             0.0000000000
       132        44  TIP3      H2             -1.8288649752      -28.7599993232      -25.9949871492  WZ1       336             0.0000000000
       133        45  TIP3      OH2            -1.1875149752      -18.8131193232      -24.8636871492  WZ1       339             0.0000000000
       134        45  TIP3      H1             -1.3430849752      -18.1346793232      -25.5207571492  WZ1       339             0.0000000000
       135        45  TIP3      H2             -0.2548749752      -18.7411893232      -24.6606271492  WZ1       339             0.0000000000
       136        46  TIP3      OH2           -15.4735749752      -18.1422693232      -18.6361671492  WZ1       342             0.0000000000
       137        46  TIP3      H1            -14.9333549752      -18.3588693232      -17.8762471492  WZ1       342             0.0000000000
       138        46  TIP3      H2            -15.9547749752      -18.9476693232      -18.8259171492  WZ1       342             0.0000000000
       139        47  TIP3      OH2           -10.8762349752      -19.2228293232      -17.0157471492  WZ1       343             0.0000000000
       140        47  TIP3      H1            -10.1085149752      -19.6817493232      -16.6748271492  WZ1       343             0.0000000000
       141        47  TIP3      H2            -10.8976149752      -19.4488493232      -17.9456271492  WZ1       343             0.0000000000
       142        48  TIP3      OH2            -4.2993649752      -20.8427193232      -18.2865971492  WZ1       345             0.0000000000
       143        48  TIP3      H1             -4.6504149752      -21.6994193232      -18.0435571492  WZ1       345             0.0000000000
       144        48  TIP3      H2             -3.5730449752      -20.7000493232      -17.6796971492  WZ1       345             0.0000000000
       145        49  TIP3      OH2           -15.5666249752      -24.3318593232      -17.6817371492  WZ1       347             0.0000000000
       146        49  TIP3      H1            -15.4225749752      -25.2337893232      -17.9680671492  WZ1       347             0.0000000000
       147        49  TIP3      H2            -16.3388849752      -24.0456493232      -18.1695071492  WZ1       347             0.0000000000
       148        50  TIP3      OH2            -8.9110149752      -24.3620493232      -18.2490971492  WZ1       349             0.0000000000
       149        50  TIP3      H1             -9.2396349752      -24.0912393232      -19.1063571492  WZ1       349             0.0000000000
       150        50  TIP3      H2             -8.7591949752      -25.3030693232      -18.3365971492  WZ1       349             0.0000000000
       151        51  TIP3      OH2            -3.1764949752      -24.4463193232      -20.8658671492  WZ1       351             0.0000000000
       152        51  TIP3      H1             -2.4310149752      -23.8579493232      -20.9854671492  WZ1       351             0.0000000000
       153        51  TIP3      H2             -3.9338149752      -23.8643493232      -20.8025571492  WZ1       351             0.0000000000
       154        52  TIP3      OH2           -14.7339749752      -27.1315293232      -18.2618071492  WZ1       352             0.0000000000
       155        52  TIP3      H1            -14.3258549752      -27.9888693232      -18.3827471492  WZ1       352             0.0000000000
       156        52  TIP3      H2            -14.9942149752      -27.1173993232      -17.3407771492  WZ1       352             0.0000000000
       157        53  TIP3      OH2           -10.7869449752      -28.1229593232      -20.8875171492  WZ1       354             0.0000000000
       158        53  TIP3      H1            -11.4053349752      -27.4482993232      -20.6070471492  WZ1       354             0.0000000000
       159        53  TIP3      H2            -10.4428249752      -27.8015693232      -21.7208971492  WZ1       354             0.0000000000
       160        54  TIP3      OH2            -5.7671249752      -25.6514293232      -17.6100371492  WZ1       356             0.0000000000
       161        54  TIP3      H1             -4.8140049752      -25.5675193232      -17.6374371492  WZ1       356             0.0000000000
       162        54  TIP3      H2             -5.9276649752      -26.3632493232      -16.9905471492  WZ1       356             0.0000000000
       163        55  TIP3      OH2           -10.4475749752      -30.7678793232      -19.8052071492  WZ1       358             0.0000000000
       164        55  TIP3      H1            -10.2974849752      -31.4967493232      -20.4072371492  WZ1       358             0.0000000000
       165        55  TIP3      H2            -10.4453349752      -29.9907093232      -20.3639871492  WZ1       358             0.0000000000
       166        56  TIP3      OH2            -8.4531649752      -26.9586793232      -22.0729471492  WZ1       360             0.0000000000
       167        56  TIP3      H1             -7.7026849752      -27.1149293232      -22.6461671492  WZ1       360             0.0000000000
       168        56  TIP3      H2             -8.7923349752      -26.1070193232      -22.3483971492  WZ1       360             0.0000000000
       169        57  TIP3      OH2            -4.0375449752      -29.1434993232      -17.0444171492  WZ1       361             0.0000000000
       170        57  TIP3      H1             -3.8454149752      -30.0745593232      -17.1559671492  WZ1       361             0.0000000000
       171        57  TIP3      H2             -3.1799149752      -28.7185493232      -17.0548771492  WZ1       361             0.0000000000
       172        58  TIP3      OH2            -2.7208249752      -26.3549793232      -18.9671471492  WZ1       362             0.0000000000
       173        58  TIP3      H1             -3.0023249752      -25.6455193232      -19.5447671492  WZ1       362             0.0000000000
       174        58  TIP3      H2             -1.7783949752      -26.4276793232      -19.1180271492  WZ1       362             0.0000000000
       175        59  TIP3      OH2           -11.9689449752      -29.5695293232      -17.8936471492  WZ1       363             0.0000000000
       176        59  TIP3      H1            -12.7360449752      -30.1020493232      -18.1038871492  WZ1       363             0.0000000000
       177        59  TIP3      H2            -11.2900449752      -29.8794893232      -18.4930171492  WZ1       363             0.0000000000
       178        60  TIP3      OH2            -7.9654049752      -30.6201893232      -18.3172671492  WZ1       365             0.0000000000
       179        60  TIP3      H1             -8.2008649752      -30.8395193232      -17.4157771492  WZ1       365             0.0000000000
       180        60  TIP3      H2             -8.7487149752      -30.8270693232      -18.8270171492  WZ1       365             0.0000000000
       181        61  TIP3      OH2            -5.2497449752      -31.4928393232      -19.2419171492  WZ1       366             0.0000000000
       182        61  TIP3      H1             -6.1972049752      -31.4608693232      -19.1095871492  WZ1       366             0.0000000000
       183        61  TIP3      H2             -4.9370749752      -32.1181293232      -18.5880971492  WZ1       366             0.0000000000
       184        62  TIP3      OH2           -13.7886649752      -31.6491493232      -18.1891771492  WZ1       368             0.0000000000
       185        62  TIP3      H1            -13.5769249752      -32.3555393232      -18.7994271492  WZ1       368             0.0000000000
       186        62  TIP3      H2            -13.8999149752      -32.0865493232      -17.3450571492  WZ1       368             0.0000000000
       187        63  TIP3      OH2             1.5282850248      -18.1625493232      -24.6344971492  WZ1       375             0.0000000000
       188        63  TIP3      H1              1.5069550248      -17.9777093232      -23.6955571492  WZ1       375             0.0000000000
       189        63  TIP3      H2              2.2189050248      -17.5941493232      -24.9753571492  WZ1       375             0.0000000000
       190        64  TIP3      OH2             1.0915750248      -18.5954393232      -21.7125871492  WZ1       376             0.0000000000
       191        64  TIP3      H1              0.6044450248      -19.3310293232      -22.0838471492  WZ1       376             0.0000000000
       192        64  TIP3      H2              1.6408450248      -18.9890493232      -21.0346471492  WZ1       376             0.0000000000
       193        65  TIP3      OH2            -0.4576949752      -22.8056293232      -17.0745571492  WZ1       377             0.0000000000
       194        65  TIP3      H1             -1.3235849752      -22.9106593232      -16.6803271492  WZ1       377             0.0000000000
       195        65  TIP3      H2             -0.0811049752      -22.0472993232      -16.6280871492  WZ1       377             0.0000000000
       196        66  TIP3      OH2             1.2378350248      -26.4955193232      -29.7367371492  WZ1       379             0.0000000000
       197        66  TIP3      H1              0.5112950248      -26.9752593232      -29.3389771492  WZ1       379             0.0000000000
       198        66  TIP3      H2              1.8191650248      -26.2900493232      -29.0045771492  WZ1       379             0.0000000000
       199        67  TIP3      OH2             0.9969550248      -23.7107693232      -24.7889771492  WZ1       380             0.0000000000
       200        67  TIP3      H1              1.8303750248      -24.0887693232      -25.0696171492  WZ1       380             0.0000000000
       201        67  TIP3      H2              1.1089850248      -22.7676493232      -24.9080671492  WZ1       380             0.0000000000
       202        68  TIP3      OH2            -0.5168149752      -20.8330193232      -22.4821371492  WZ1       381             0.0000000000
       203        68  TIP3      H1             -1.1642849752      -20.5078693232      -21.8566171492  WZ1       381             0.0000000000
       204        68  TIP3      H2             -1.0344149752      -21.2732493232      -23.1563071492  WZ1       381             0.0000000000
       205        69  TIP3      OH2            -0.1191949752      -26.0045393232      -19.5350371492  WZ1       386             0.0000000000
       206        69  TIP3      H1              0.4635350248      -26.7393093232      -19.3433171492  WZ1       386             0.0000000000
       207        69  TIP3      H2              0.4447350248      -25.2325093232      -19.4884571492  WZ1       386             0.0000000000
       208        70  TIP3      OH2             1.3775150248      -28.1019593232      -18.8504971492  WZ1       387             0.0000000000
       209        70  TIP3      H1              0.5141850248      -28.4807493232      -19.0160271492  WZ1       387             0.0000000000
       210        70  TIP3      H2              1.9818850248      -28.8404793232      -18.9249171492  WZ1       387             0.0000000000
       211        71  TIP3      OH2            -0.6531749752      -29.8105493232      -25.2754671492  WZ1       390             0.0000000000
       212        71  TIP3      H1              0.2796250248      -29.5985593232      -25.3098671492  WZ1       390             0.0000000000
       213        71  TIP3      H2             -0.8884249752      -29.7093393232      -24.3531671492  WZ1       390             0.0000000000
       214        72  TIP3      OH2            -0.6239849752      -29.0740193232      -22.4995271492  WZ1       391             0.0000000000
       215        72  TIP3      H1             -1.4668549752      -28.8059793232      -22.1335471492  WZ1       391             0.0000000000
       216        72  TIP3      H2             -0.1815549752      -28.2518293232      -22.7104171492  WZ1       391             0.0000000000
       217        73  TIP3      OH2            -1.7331149752      -18.0726093232      -29.0623171492  WZ1       400             0.0000000000
       218        73  TIP3      H1             -1.0808249752      -18.4203993232      -29.6704071492  WZ1       400             0.0000000000
       219        73  TIP3      H2             -1.2227349752      -17.5842893232      -28.4163471492  WZ1       400             0.0000000000
       220        74  TIP3      OH2           -14.3483649752      -21.1434693232      -18.5192271492  WZ1       402             0.0000000000
       221        74  TIP3      H1            -15.1691149752      -20.9688193232      -18.9797571492  WZ1       402             0.0000000000
       222        74  TIP3      H2            -14.6005849752      -21.2169993232      -17.5987871492  WZ1       402             0.0000000000
       223        75  TIP3      OH2           -11.3940749752      -20.1693493232      -22.2608271492  WZ1       403             0.0000000000
       224        75  TIP3      H1            -11.8189649752      -19.3594993232      -22.5433671492  WZ1       403             0.0000000000
       225        75  TIP3      H2            -10.4897949752      -20.0839393232      -22.5628471492  WZ1       403             0.0000000000
       226        76  TIP3      OH2            -7.0829349752      -18.7703493232      -19.3014571492  WZ1       404             0.0000000000
       227        76  TIP3      H1             -6.8981849752      -19.1037393232      -18.4234271492  WZ1       404             0.0000000000
       228        76  TIP3      H2             -6.2364849752      -18.4604893232      -19.6235371492  WZ1       404             0.0000000000
       229        77  TIP3      OH2            -4.7378949752      -17.4844593232      -20.0573171492  WZ1       405             0.0000000000
       230        77  TIP3      H1             -4.0610049752      -18.1172293232      -20.2973971492  WZ1       405             0.0000000000
       231        77  TIP3      H2             -4.4160149752      -17.0834093232      -19.2499871492  WZ1       405             0.0000000000
       232        78  TIP3      OH2           -13.9924049752      -16.9129593232      -22.2132971492  WZ1       407             0.0000000000
       233        78  TIP3      H1            -14.7127649752      -16.4728593232      -22.6645271492  WZ1       407             0.0000000000
       234        78  TIP3      H2            -14.3580049752      -17.1634893232      -21.3648971492  WZ1       407             0.0000000000
       235        79  TIP3      OH2           -11.5251449752      -17.3125693232      -23.1835771492  WZ1       408             0.0000000000
       236        79  TIP3      H1            -12.3899249752      -17.2407193232      -22.7795671492  WZ1       408             0.0000000000
       237        79  TIP3      H2            -11.5802449752      -16.7658393232      -23.9673271492  WZ1       408             0.0000000000
       238        80  TIP3      OH2            -6.8145849752      -17.4246793232      -24.0079771492  WZ1       409             0.0000000000
       239        80  TIP3      H1             -7.2711849752      -16.8957093232      -24.6621371492  WZ1       409             0.0000000000
       240        80  TIP3      H2             -6.6517849752      -16.8215393232      -23.2827471492  WZ1       409             0.0000000000
       241        81  TIP3      OH2            -4.4869549752      -18.5467193232      -23.0629471492  WZ1       410             0.0000000000
       242        81  TIP3      H1             -5.3915849752      -18.3816993232      -23.3287371492  WZ1       410             0.0000000000
       243        81  TIP3      H2             -4.0580949752      -17.6934993232      -23.1286071492  WZ1       410             0.0000000000
       244        82  TIP3      OH2            -1.8827649752      -16.9768093232      -22.7681671492  WZ1       411             0.0000000000
       245        82  TIP3      H1             -2.0645649752      -16.0609193232      -22.9786771492  WZ1       411             0.0000000000
       246        82  TIP3      H2             -1.7059849752      -17.3870993232      -23.6147071492  WZ1       411             0.0000000000
       247        83  TIP3      OH2            -9.8990349752      -19.1099093232      -25.7993271492  WZ1       414             0.0000000000
       248        83  TIP3      H1             -9.6864649752      -19.9980093232      -26.0862371492  WZ1       414             0.0000000000
       249        83  TIP3      H2             -9.8345249752      -19.1441393232      -24.8449271492  WZ1       414             0.0000000000
       250        84  TIP3      OH2             0.2466850248      -18.2932693232      -31.0551571492  WZ1       427             0.0000000000
       251        84  TIP3      H1              0.0523950248      -19.0410593232      -31.6201971492  WZ1       427             0.0000000000
       252        84  TIP3      H2              0.2076950248      -17.5352593232      -31.6383671492  WZ1       427             0.0000000000
       253        85  TIP3      OH2            -0.5356949752      -19.5420293232      -18.9049771492  WZ1       432             0.0000000000
       254        85  TIP3      H1             -1.3175049752      -19.7282293232      -19.4249171492  WZ1       432             0.0000000000
       255        85  TIP3      H2             -0.6077049752      -18.6125993232      -18.6877271492  WZ1       432             0.0000000000
       256        86  TIP3      OH2             5.1719750248      -26.7863093232      -23.8624471492  WZ1       435             0.0000000000
       257        86  TIP3      H1              5.2131850248      -27.4119793232      -23.1392071492  WZ1       435             0.0000000000
       258        86  TIP3      H2              5.8747450248      -26.1624493232      -23.6804071492  WZ1       435             0.0000000000
       259        87  TIP3      OH2             6.0952850248      -22.3364193232      -25.3275371492  WZ1       437             0.0000000000
       260        87  TIP3      H1              5.7258050248      -23.1383693232      -25.6971071492  WZ1       437             0.0000000000
       261        87  TIP3      H2              7.0363950248      -22.5049293232      -25.2811971492  WZ1       437             0.0000000000
       262        88  TIP3      OH2             3.4159450248      -26.5141993232      -27.8088571492  WZ1       439             0.0000000000
       263        88  TIP3      H1              3.6292950248      -27.2840393232      -27.2815571492  WZ1       439             0.0000000000
       264        88  TIP3      H2              4.1537050248      -26.4245293232      -28.4120971492  WZ1       439             0.0000000000
       265        89  TIP3      OH2            13.6210450248      -18.3573093232      -26.9418871492  WZ1       440             0.0000000000
       266        89  TIP3      H1             14.2406850248      -19.0338393232      -27.2149671492  WZ1       440             0.0000000000
       267        89  TIP3      H2             13.4127850248      -18.5752293232      -26.0333971492  WZ1       440             0.0000000000
       268        90  TIP3      OH2            11.1929150248      -23.9683793232      -25.0493371492  WZ1       441             0.0000000000
       269        90  TIP3      H1             11.4967050248      -24.6542393232      -25.6439271492  WZ1       441             0.0000000000
       270        90  TIP3      H2             11.9143150248      -23.8495093232      -24.4315371492  WZ1       441             0.0000000000
       271        91  TIP3      OH2             8.8677750248      -24.8790893232      -23.0879271492  WZ1       451             0.0000000000
       272        91  TIP3      H1              8.1276850248      -24.2809393232      -22.9844071492  WZ1       451             0.0000000000
       273        91  TIP3      H2              9.5817250248      -24.3251293232      -23.4035671492  WZ1       451             0.0000000000
       274        92  TIP3      OH2             7.2752050248      -22.9147893232      -22.3007771492  WZ1       454             0.0000000000
       275        92  TIP3      H1              7.2699650248      -22.0354393232      -22.6788471492  WZ1       454             0.0000000000
       276        92  TIP3      H2              6.4216150248      -22.9983793232      -21.8757871492  WZ1       454             0.0000000000
       277        93  TIP3      OH2             3.3962950248      -23.2439993232      -31.5188471492  WZ1       455             0.0000000000
       278        93  TIP3      H1              3.1243850248      -23.0148993232      -32.4075571492  WZ1       455             0.0000000000
       279        93  TIP3      H2              3.4418650248      -22.4061193232      -31.0583171492  WZ1       455             0.0000000000
       280        94  TIP3      OH2            17.0212650248      -21.6224093232      -24.8059971492  WZ1       456             0.0000000000
       281        94  TIP3      H1             16.0796350248      -21.5640193232      -24.6443071492  WZ1       456             0.0000000000
       282        94  TIP3      H2             17.2978750248      -20.7163593232      -24.9430271492  WZ1       456             0.0000000000
       283        95  TIP3      OH2            18.1190550248      -23.3735393232      -21.1948271492  WZ1       461             0.0000000000
       284        95  TIP3      H1             18.2586850248      -23.9652893232      -21.9341271492  WZ1       461             0.0000000000
       285        95  TIP3      H2             18.2863350248      -22.5009493232      -21.5509471492  WZ1       461             0.0000000000
       286        96  TIP3      OH2            15.8947150248      -28.0279993232      -21.4029371492  WZ1       466             0.0000000000
       287        96  TIP3      H1             15.9746250248      -27.2645593232      -20.8310871492  WZ1       466             0.0000000000
       288        96  TIP3      H2             15.2934850248      -27.7487593232      -22.0934271492  WZ1       466             0.0000000000
       289        97  TIP3      OH2             9.0094850248      -22.1435793232      -25.9069171492  WZ1       468             0.0000000000
       290        97  TIP3      H1              8.9146150248      -22.7222693232      -26.6634571492  WZ1       468             0.0000000000
       291        97  TIP3      H2              9.7388450248      -22.5150093232      -25.4106371492  WZ1       468             0.0000000000
       292        98  TIP3      OH2             8.0092850248      -26.8030793232      -24.9546371492  WZ1       469             0.0000000000
       293        98  TIP3      H1              8.5745350248      -26.6816593232      -25.7175171492  WZ1       469             0.0000000000
       294        98  TIP3      H2              8.3281750248      -26.1655793232      -24.3157871492  WZ1       469             0.0000000000
       295        99  TIP3      OH2            14.3185050248      -21.2998893232      -24.2205871492  WZ1       470             0.0000000000
       296        99  TIP3      H1             14.0781650248      -20.6375793232      -23.5726671492  WZ1       470             0.0000000000
       297        99  TIP3      H2             14.1203250248      -22.1343693232      -23.7956271492  WZ1       470             0.0000000000
       298       100  TIP3      OH2             8.8893550248      -22.4038093232      -20.2374471492  WZ1       471             0.0000000000
       299       100  TIP3      H1              8.5781050248      -21.6214893232      -19.7821271492  WZ1       471             0.0000000000
       300       100  TIP3      H2              8.2393750248      -22.5568993232      -20.9232471492  WZ1       471             0.0000000000
       301       101  TIP3      OH2             5.8093450248      -26.2056993232      -21.0088771492  WZ1       473             0.0000000000
       302       101  TIP3      H1              5.8796650248      -25.5550193232      -20.3103771492  WZ1       473             0.0000000000
       303       101  TIP3      H2              4.9185650248      -26.1029493232      -21.3437871492  WZ1       473             0.0000000000
       304       102  TIP3      OH2            12.5948050248      -20.3031193232      -29.3502071492  WZ1       474             0.0000000000
       305       102  TIP3      H1             13.0685650248      -20.0074893232      -28.5727871492  WZ1       474             0.0000000000
       306       102  TIP3      H2             12.0317350248      -19.5649593232      -29.5832471492  WZ1       474             0.0000000000
       307       103  TIP3      OH2             7.1289450248      -20.3323093232      -19.4740671492  WZ1       475             0.0000000000
       308       103  TIP3      H1              7.1364750248      -20.4683393232      -20.4215171492  WZ1       475             0.0000000000
       309       103  TIP3      H2              6.2129850248      -20.4494993232      -19.2220671492  WZ1       475             0.0000000000
       310       104  TIP3      OH2             2.7260150248      -24.1392893232      -22.1838771492  WZ1       479             0.0000000000
       311       104  TIP3      H1              2.2248550248      -24.1673493232      -22.9989071492  WZ1       479             0.0000000000
       312       104  TIP3      H2              2.7313850248      -25.0449693232      -21.8741471492  WZ1       479             0.0000000000
       313       105  TIP3      OH2             2.4762850248      -21.3589093232      -25.2998571492  WZ1       480             0.0000000000
       314       105  TIP3      H1              3.4223450248      -21.5032093232      -25.3189071492  WZ1       480             0.0000000000
       315       105  TIP3      H2              2.3639150248      -20.5746293232      -24.7627371492  WZ1       480             0.0000000000
       316       106  TIP3      OH2            20.6741350248      -20.6929393232      -19.6174871492  WZ1       481             0.0000000000
       317       106  TIP3      H1             20.6248150248      -21.6481293232      -19.6547271492  WZ1       481             0.0000000000
       318       106  TIP3      H2             19.8473650248      -20.4254093232      -19.2161071492  WZ1       481             0.0000000000
       319       107  TIP3      OH2            11.6525350248      -21.1190193232      -20.7413471492  WZ1       482             0.0000000000
       320       107  TIP3      H1             11.7399950248      -20.2925593232      -20.2664371492  WZ1       482             0.0000000000
       321       107  TIP3      H2             10.7890450248      -21.4486393232      -20.4924171492  WZ1       482             0.0000000000
       322       108  TIP3      OH2            12.0671150248      -17.3466493232      -30.9352871492  WZ1       483             0.0000000000
       323       108  TIP3      H1             11.9917150248      -17.4679293232      -31.8817671492  WZ1       483             0.0000000000
       324       108  TIP3      H2             12.0999850248      -16.3973793232      -30.8168271492  WZ1       483             0.0000000000
       325       109  TIP3      OH2             5.7204950248      -18.5579493232      -29.1543871492  WZ1       484             0.0000000000
       326       109  TIP3      H1              5.8725350248      -18.9059093232      -28.2757371492  WZ1       484             0.0000000000
       327       109  TIP3      H2              4.8695350248      -18.9142193232      -29.4096671492  WZ1       484             0.0000000000
       328       110  TIP3      OH2             4.9750650248      -22.8157493232      -21.1405971492  WZ1       488             0.0000000000
       329       110  TIP3      H1              5.1911950248      -23.1771893232      -20.2810171492  WZ1       488             0.0000000000
       330       110  TIP3      H2              4.1195350248      -23.1903693232      -21.3502471492  WZ1       488             0.0000000000
       331       111  TIP3      OH2             7.6848750248      -29.3802493232      -24.0501571492  WZ1       494             0.0000000000
       332       111  TIP3      H1              7.0430850248      -29.4205193232      -23.3411471492  WZ1       494             0.0000000000
       333       111  TIP3      H2              7.7220750248      -28.4537793232      -24.2878571492  WZ1       494             0.0000000000
       334       112  TIP3      OH2            12.3194950248      -28.5675693232      -18.8330071492  WZ1       497             0.0000000000
       335       112  TIP3      H1             11.7568750248      -29.2724093232      -18.5122271492  WZ1       497             0.0000000000
       336       112  TIP3      H2             13.1458350248      -28.6883793232      -18.3652471492  WZ1       497             0.0000000000
       337       113  TIP3      OH2             5.4349250248      -29.0598993232      -22.1829571492  WZ1       499             0.0000000000
       338       113  TIP3      H1              5.3968650248      -28.6597393232      -21.3142471492  WZ1       499             0.0000000000
       339       113  TIP3      H2              4.9440350248      -29.8766593232      -22.0926671492  WZ1       499             0.0000000000
       340       114  TIP3      OH2            17.9560150248      -16.8253193232      -18.5108071492  WZ1       509             0.0000000000
       341       114  TIP3      H1             18.1558850248      -16.4011293232      -19.3452771492  WZ1       509             0.0000000000
       342       114  TIP3      H2             18.6113850248      -16.4814993232      -17.9037671492  WZ1       509             0.0000000000
       343       115  TIP3      OH2             5.5539950248      -24.3511893232      -18.9027571492  WZ1       510             0.0000000000
       344       115  TIP3      H1              6.2862350248      -24.0965993232      -18.3413071492  WZ1       510             0.0000000000
       345       115  TIP3      H2              4.7738650248      -24.1466493232      -18.3872171492  WZ1       510             0.0000000000
       346       116  TIP3      OH2            12.2733450248      -24.1584793232      -20.8291971492  WZ1       517             0.0000000000
       347       116  TIP3      H1             11.9279550248      -24.5402393232      -20.0222371492  WZ1       517             0.0000000000
       348       116  TIP3      H2             12.0733550248      -23.2251193232      -20.7579071492  WZ1       517             0.0000000000
       349       117  TIP3      OH2             5.8789650248      -25.0478093232      -26.2963171492  WZ1       519             0.0000000000
       350       117  TIP3      H1              6.6236850248      -25.0502393232      -26.8976671492  WZ1       519             0.0000000000
       351       117  TIP3      H2              5.9566250248      -25.8714293232      -25.8148071492  WZ1       519             0.0000000000
       352       118  TIP3      OH2             2.8869350248      -26.5871193232      -20.9814671492  WZ1       521             0.0000000000
       353       118  TIP3      H1              3.1097950248      -27.0051593232      -20.1497171492  WZ1       521             0.0000000000
       354       118  TIP3      H2              2.2849450248      -27.1996193232      -21.4041871492  WZ1       521             0.0000000000
       355       119  TIP3      OH2             9.9034250248      -27.0701293232      -18.7684971492  WZ1       522             0.0000000000
       356       119  TIP3      H1              9.6075050248      -27.2358293232      -19.6635871492  WZ1       522             0.0000000000
       357       119  TIP3      H2             10.8349450248      -27.2900993232      -18.7791071492  WZ1       522             0.0000000000
       358       120  TIP3      OH2            14.5237050248      -21.6969293232      -20.8786971492  WZ1       523             0.0000000000
       359       120  TIP3      H1             13.6231350248      -21.5136693232      -21.1463071492  WZ1       523             0.0000000000
       360       120  TIP3      H2             14.5578150248      -21.4379993232      -19.9578171492  WZ1       523             0.0000000000
       361       121  TIP3      OH2            20.2182350248      -23.6519693232      -19.6742871492  WZ1       525             0.0000000000
       362       121  TIP3      H1             19.3670850248      -23.4135893232      -20.0416471492  WZ1       525             0.0000000000
       363       121  TIP3      H2             20.8085750248      -23.6686493232      -20.4275771492  WZ1       525             0.0000000000
       364       122  TIP3      OH2             8.2539050248      -21.5299893232      -28.8921671492  WZ1       528             0.0000000000
       365       122  TIP3      H1              8.7811250248      -20.7565493232      -29.0922871492  WZ1       528             0.0000000000
       366       122  TIP3      H2              7.3737550248      -21.3050693232      -29.1937671492  WZ1       528             0.0000000000
       367       123  TIP3      OH2            10.1957950248      -19.7176393232      -23.0006271492  WZ1       531             0.0000000000
       368       123  TIP3      H1             10.5582650248      -18.8630793232      -23.2341871492  WZ1       531             0.0000000000
       369       123  TIP3      H2             10.7273150248      -20.0094793232      -22.2599971492  WZ1       531             0.0000000000
       370       124  TIP3      OH2             8.3642150248      -18.8452393232      -29.7705171492  WZ1       532             0.0000000000
       371       124  TIP3      H1              7.4142650248      -18.7394993232      -29.7191871492  WZ1       532             0.0000000000
       372       124  TIP3      H2              8.7160250248      -18.0244993232      -29.4257671492  WZ1       532             0.0000000000
       373       125  TIP3      OH2            13.7398750248      -23.6185693232      -23.3000671492  WZ1       533             0.0000000000
       374       125  TIP3      H1             13.3140050248      -23.8463993232      -22.4736671492  WZ1       533             0.0000000000
       375       125  TIP3      H2             14.3204550248      -24.3573893232      -23.4825371492  WZ1       533             0.0000000000
       376       126  TIP3      OH2            16.3982950248      -19.0666193232      -20.8305871492  WZ1       535             0.0000000000
       377       126  TIP3      H1             15.7966150248      -19.6223293232      -21.3259571492  WZ1       535             0.0000000000
       378       126  TIP3      H2             16.6796650248      -18.3996393232      -21.4568471492  WZ1       535             0.0000000000
       379       127  TIP3      OH2             4.5208850248      -31.8338493232      -21.4233271492  WZ1       537             0.0000000000
       380       127  TIP3      H1              3.6281150248      -31.4953093232      -21.4909271492  WZ1       537             0.0000000000
       381       127  TIP3      H2              4.4221650248      -32.6892393232      -21.0052471492  WZ1       537             0.0000000000
       382       128  TIP3      OH2             4.1720850248      -20.0294093232      -22.9883871492  WZ1       539             0.0000000000
       383       128  TIP3      H1              4.3891150248      -20.9611693232      -23.0194171492  WZ1       539             0.0000000000
       384       128  TIP3      H2              4.4184350248      -19.7549093232      -22.1051071492  WZ1       539             0.0000000000
       385       129  TIP3      OH2            11.7753450248      -29.7264993232      -21.4167371492  WZ1       547             0.0000000000
       386       129  TIP3      H1             11.8943750248      -29.1529593232      -20.6596971492  WZ1       547             0.0000000000
       387       129  TIP3      H2             12.4308050248      -30.4145593232      -21.3019571492  WZ1       547             0.0000000000
       388       130  TIP3      OH2            17.6684850248      -18.8131193232      -24.8636871492  WZ1       555             0.0000000000
       389       130  TIP3      H1             17.5129150248      -18.1346793232      -25.5207571492  WZ1       555             0.0000000000
       390       130  TIP3      H2             18.6011250248      -18.7411893232      -24.6606271492  WZ1       555             0.0000000000
       391       131  TIP3      OH2             4.0940550248      -20.7546393232      -29.9659671492  WZ1       557             0.0000000000
       392       131  TIP3      H1              3.2619150248      -20.2823693232      -29.9388271492  WZ1       557             0.0000000000
       393       131  TIP3      H2              4.6398850248      -20.2448793232      -30.5646571492  WZ1       557             0.0000000000
       394       132  TIP3      OH2             3.3824250248      -18.1422693232      -18.6361671492  WZ1       558             0.0000000000
       395       132  TIP3      H1              3.9226450248      -18.3588693232      -17.8762471492  WZ1       558             0.0000000000
       396       132  TIP3      H2              2.9012250248      -18.9476693232      -18.8259171492  WZ1       558             0.0000000000
       397       133  TIP3      OH2             7.9797650248      -19.2228293232      -17.0157471492  WZ1       559             0.0000000000
       398       133  TIP3      H1              8.7474850248      -19.6817493232      -16.6748271492  WZ1       559             0.0000000000
       399       133  TIP3      H2              7.9583850248      -19.4488493232      -17.9456271492  WZ1       559             0.0000000000
       400       134  TIP3      OH2            14.5566350248      -20.8427193232      -18.2865971492  WZ1       561             0.0000000000
       401       134  TIP3      H1             14.2055850248      -21.6994193232      -18.0435571492  WZ1       561             0.0000000000
       402       134  TIP3      H2             15.2829550248      -20.7000493232      -17.6796971492  WZ1       561             0.0000000000
       403       135  TIP3      OH2             3.2893750248      -24.3318593232      -17.6817371492  WZ1       563             0.0000000000
       404       135  TIP3      H1              3.4334250248      -25.2337893232      -17.9680671492  WZ1       563             0.0000000000
       405       135  TIP3      H2              2.5171150248      -24.0456493232      -18.1695071492  WZ1       563             0.0000000000
       406       136  TIP3      OH2             9.9449850248      -24.3620493232      -18.2490971492  WZ1       565             0.0000000000
       407       136  TIP3      H1              9.6163650248      -24.0912393232      -19.1063571492  WZ1       565             0.0000000000
       408       136  TIP3      H2             10.0968050248      -25.3030693232      -18.3365971492  WZ1       565             0.0000000000
       409       137  TIP3      OH2            15.6795050248      -24.4463193232      -20.8658671492  WZ1       567             0.0000000000
       410       137  TIP3      H1             16.4249850248      -23.8579493232      -20.9854671492  WZ1       567             0.0000000000
       411       137  TIP3      H2             14.9221850248      -23.8643493232      -20.8025571492  WZ1       567             0.0000000000
       412       138  TIP3      OH2             4.1220250248      -27.1315293232      -18.2618071492  WZ1       568             0.0000000000
       413       138  TIP3      H1              4.5301450248      -27.9888693232      -18.3827471492  WZ1       568             0.0000000000
       414       138  TIP3      H2              3.8617850248      -27.1173993232      -17.3407771492  WZ1       568             0.0000000000
       415       139  TIP3      OH2             8.0690550248      -28.1229593232      -20.8875171492  WZ1       570             0.0000000000
       416       139  TIP3      H1              7.4506650248      -27.4482993232      -20.6070471492  WZ1       570             0.0000000000
       417       139  TIP3      H2              8.4131750248      -27.8015693232      -21.7208971492  WZ1       570             0.0000000000
       418       140  TIP3      OH2            13.0888750248      -25.6514293232      -17.6100371492  WZ1       572             0.0000000000
       419       140  TIP3      H1             14.0419950248      -25.5675193232      -17.6374371492  WZ1       572             0.0000000000
       420       140  TIP3      H2             12.9283350248      -26.3632493232      -16.9905471492  WZ1       572             0.0000000000
       421       141  TIP3      OH2             8.4084250248      -30.7678793232      -19.8052071492  WZ1       574             0.0000000000
       422       141  TIP3      H1              8.5585150248      -31.4967493232      -20.4072371492  WZ1       574             0.0000000000
       423       141  TIP3      H2              8.4106650248      -29.9907093232      -20.3639871492  WZ1       574             0.0000000000
       424       142  TIP3      OH2            10.4028350248      -26.9586793232      -22.0729471492  WZ1       576             0.0000000000
       425       142  TIP3      H1             11.1533150248      -27.1149293232      -22.6461671492  WZ1       576             0.0000000000
       426       142  TIP3      H2             10.0636650248      -26.1070193232      -22.3483971492  WZ1       576             0.0000000000
       427       143  TIP3      OH2            14.8184550248      -29.1434993232      -17.0444171492  WZ1       577             0.0000000000
       428       143  TIP3      H1             15.0105850248      -30.0745593232      -17.1559671492  WZ1       577             0.0000000000
       429       143  TIP3      H2             15.6760850248      -28.7185493232      -17.0548771492  WZ1       577             0.0000000000
       430       144  TIP3      OH2            16.1351750248      -26.3549793232      -18.9671471492  WZ1       578             0.0000000000
       431       144  TIP3      H1             15.8536750248      -25.6455193232      -19.5447671492  WZ1       578             0.0000000000
       432       144  TIP3      H2             17.0776050248      -26.4276793232      -19.1180271492  WZ1       578             0.0000000000
       433       145  TIP3      OH2             6.8870550248      -29.5695293232      -17.8936471492  WZ1       579             0.0000000000
       434       145  TIP3      H1              6.1199550248      -30.1020493232      -18.1038871492  WZ1       579             0.0000000000
       435       145  TIP3      H2              7.5659550248      -29.8794893232      -18.4930171492  WZ1       579             0.0000000000
       436       146  TIP3      OH2            10.8905950248      -30.6201893232      -18.3172671492  WZ1       581             0.0000000000
       437       146  TIP3      H1             10.6551350248      -30.8395193232      -17.4157771492  WZ1       581             0.0000000000
       438       146  TIP3      H2             10.1072850248      -30.8270693232      -18.8270171492  WZ1       581             0.0000000000
       439       147  TIP3      OH2            13.6062550248      -31.4928393232      -19.2419171492  WZ1       582             0.0000000000
       440       147  TIP3      H1             12.6587950248      -31.4608693232      -19.1095871492  WZ1       582             0.0000000000
       441       147  TIP3      H2             13.9189250248      -32.1181293232      -18.5880971492  WZ1       582             0.0000000000
       442       148  TIP3      OH2             5.0673350248      -31.6491493232      -18.1891771492  WZ1       584             0.0000000000
       443       148  TIP3      H1              5.2790750248      -32.3555393232      -18.7994271492  WZ1       584             0.0000000000
       444       148  TIP3      H2              4.9560850248      -32.0865493232      -17.3450571492  WZ1       584             0.0000000000
       445       149  TIP3      OH2             1.9658850248      -17.0528893232      -29.4195971492  WZ1       589             0.0000000000
       446       149  TIP3      H1              1.3185950248      -17.5147193232      -29.9524771492  WZ1       589             0.0000000000
       447       149  TIP3      H2              2.3203450248      -17.7245593232      -28.8369771492  WZ1       589             0.0000000000
       448       150  TIP3      OH2             2.8358050248      -18.9721893232      -27.6149771492  WZ1       590             0.0000000000
       449       150  TIP3      H1              2.5014850248      -19.8524593232      -27.4429571492  WZ1       590             0.0000000000
       450       150  TIP3      H2              3.0580450248      -18.6266893232      -26.7504171492  WZ1       590             0.0000000000
       451       151  TIP3      OH2            20.3842850248      -18.1625493232      -24.6344971492  WZ1       591             0.0000000000
       452       151  TIP3      H1             20.3629550248      -17.9777093232      -23.6955571492  WZ1       591             0.0000000000
       453       151  TIP3      H2             21.0749050248      -17.5941493232      -24.9753571492  WZ1       591             0.0000000000
       454       152  TIP3      OH2            19.9475750248      -18.5954393232      -21.7125871492  WZ1       592             0.0000000000
       455       152  TIP3      H1             19.4604450248      -19.3310293232      -22.0838471492  WZ1       592             0.0000000000
       456       152  TIP3      H2             20.4968450248      -18.9890493232      -21.0346471492  WZ1       592             0.0000000000
       457       153  TIP3      OH2            18.3983050248      -22.8056293232      -17.0745571492  WZ1       593             0.0000000000
       458       153  TIP3      H1             17.5324150248      -22.9106593232      -16.6803271492  WZ1       593             0.0000000000
       459       153  TIP3      H2             18.7748950248      -22.0472993232      -16.6280871492  WZ1       593             0.0000000000
       460       154  TIP3      OH2            18.3391850248      -20.8330193232      -22.4821371492  WZ1       597             0.0000000000
       461       154  TIP3      H1             17.6917150248      -20.5078693232      -21.8566171492  WZ1       597             0.0000000000
       462       154  TIP3      H2             17.8215850248      -21.2732493232      -23.1563071492  WZ1       597             0.0000000000
       463       155  TIP3      OH2             2.9157550248      -25.8966493232      -25.1634871492  WZ1       601             0.0000000000
       464       155  TIP3      H1              3.1000450248      -25.9784793232      -26.0991971492  WZ1       601             0.0000000000
       465       155  TIP3      H2              3.7650450248      -26.0209493232      -24.7398471492  WZ1       601             0.0000000000
       466       156  TIP3      OH2            18.7368050248      -26.0045393232      -19.5350371492  WZ1       602             0.0000000000
       467       156  TIP3      H1             19.3195350248      -26.7393093232      -19.3433171492  WZ1       602             0.0000000000
       468       156  TIP3      H2             19.3007350248      -25.2325093232      -19.4884571492  WZ1       602             0.0000000000
       469       157  TIP3      OH2             2.5132350248      -30.6261493232      -19.0226071492  WZ1       608             0.0000000000
       470       157  TIP3      H1              3.4327250248      -30.7483193232      -18.7862971492  WZ1       608             0.0000000000
       471       157  TIP3      H2              2.0636850248      -31.3761793232      -18.6332571492  WZ1       608             0.0000000000
       472       158  TIP3      OH2             2.0385150248      -29.3146893232      -25.0622971492  WZ1       612             0.0000000000
       473       158  TIP3      H1              2.5304950248      -29.5356393232      -25.8530971492  WZ1       612             0.0000000000
       474       158  TIP3      H2              2.4006050248      -28.4743493232      -24.7813471492  WZ1       612             0.0000000000
       475       159  TIP3      OH2             4.5076350248      -21.1434693232      -18.5192271492  WZ1       618             0.0000000000
       476       159  TIP3      H1              3.6868850248      -20.9688193232      -18.9797571492  WZ1       618             0.0000000000
       477       159  TIP3      H2              4.2554150248      -21.2169993232      -17.5987871492  WZ1       618             0.0000000000
       478       160  TIP3      OH2             7.4619250248      -20.1693493232      -22.2608271492  WZ1       619             0.0000000000
       479       160  TIP3      H1              7.0370350248      -19.3594993232      -22.5433671492  WZ1       619             0.0000000000
       480       160  TIP3      H2              8.3662050248      -20.0839393232      -22.5628471492  WZ1       619             0.0000000000
       481       161  TIP3      OH2            11.7730650248      -18.7703493232      -19.3014571492  WZ1       620             0.0000000000
       482       161  TIP3      H1             11.9578150248      -19.1037393232      -18.4234271492  WZ1       620             0.0000000000
       483       161  TIP3      H2             12.6195150248      -18.4604893232      -19.6235371492  WZ1       620             0.0000000000
       484       162  TIP3      OH2            14.1181050248      -17.4844593232      -20.0573171492  WZ1       621             0.0000000000
       485       162  TIP3      H1             14.7949950248      -18.1172293232      -20.2973971492  WZ1       621             0.0000000000
       486       162  TIP3      H2             14.4399850248      -17.0834093232      -19.2499871492  WZ1       621             0.0000000000
       487       163  TIP3      OH2             4.8635950248      -16.9129593232      -22.2132971492  WZ1       623             0.0000000000
       488       163  TIP3      H1              4.1432350248      -16.4728593232      -22.6645271492  WZ1       623             0.0000000000
       489       163  TIP3      H2              4.4979950248      -17.1634893232      -21.3648971492  WZ1       623             0.0000000000
       490       164  TIP3      OH2             7.3308550248      -17.3125693232      -23.1835771492  WZ1       624             0.0000000000
       491       164  TIP3      H1              6.4660750248      -17.2407193232      -22.7795671492  WZ1       624             0.0000000000
       492       164  TIP3      H2              7.2757550248      -16.7658393232      -23.9673271492  WZ1       624             0.0000000000
       493       165  TIP3      OH2            12.0414150248      -17.4246793232      -24.0079771492  WZ1       625             0.0000000000
       494       165  TIP3      H1             11.5848150248      -16.8957093232      -24.6621371492  WZ1       625             0.0000000000
       495       165  TIP3      H2             12.2042150248      -16.8215393232      -23.2827471492  WZ1       625             0.0000000000
       496       166  TIP3      OH2            14.3690450248      -18.5467193232      -23.0629471492  WZ1       626             0.0000000000
       497       166  TIP3      H1             13.4644150248      -18.3816993232      -23.3287371492  WZ1       626             0.0000000000
       498       166  TIP3      H2             14.7979050248      -17.6934993232      -23.1286071492  WZ1       626             0.0000000000
       499       167  TIP3      OH2            16.9732350248      -16.9768093232      -22.7681671492  WZ1       627             0.0000000000
       500       167  TIP3      H1             16.7914350248      -16.0609193232      -22.9786771492  WZ1       627             0.0000000000
       501       167  TIP3      H2             17.1500150248      -17.3870993232      -23.6147071492  WZ1       627             0.0000000000
       502       168  TIP3      OH2             4.2784050248      -18.2897093232      -25.3031171492  WZ1       628             0.0000000000
       503       168  TIP3      H1              4.2600050248      -18.7151993232      -24.4458871492  WZ1       628             0.0000000000
       504       168  TIP3      H2              5.0831950248      -18.6082093232      -25.7118971492  WZ1       628             0.0000000000
       505       169  TIP3      OH2             6.4197150248      -19.5798393232      -26.6481271492  WZ1       629             0.0000000000
       506       169  TIP3      H1              6.2007850248      -20.4960993232      -26.4785271492  WZ1       629             0.0000000000
       507       169  TIP3      H2              7.2439350248      -19.4397993232      -26.1819871492  WZ1       629             0.0000000000
       508       170  TIP3      OH2             8.9569650248      -19.1099093232      -25.7993271492  WZ1       630             0.0000000000
       509       170  TIP3      H1              9.1695350248      -19.9980093232      -26.0862371492  WZ1       630             0.0000000000
       510       170  TIP3      H2              9.0214750248      -19.1441393232      -24.8449271492  WZ1       630             0.0000000000
       511       171  TIP3      OH2             3.5293750248      -19.0657893232      -32.1318871492  WZ1       639             0.0000000000
       512       171  TIP3      H1              2.8443650248      -19.1038993232      -32.7993771492  WZ1       639             0.0000000000
       513       171  TIP3      H2              3.5330950248      -18.1530293232      -31.8436771492  WZ1       639             0.0000000000
       514       172  TIP3      OH2             5.3474950248      -18.1457093232      -35.1066771492  WZ1       646             0.0000000000
       515       172  TIP3      H1              5.0799550248      -17.8594193232      -34.2333671492  WZ1       646             0.0000000000
       516       172  TIP3      H2              6.1187550248      -18.6917893232      -34.9544271492  WZ1       646             0.0000000000
       517       173  TIP3      OH2            18.3203050248      -19.5420293232      -18.9049771492  WZ1       648             0.0000000000
       518       173  TIP3      H1             17.5384950248      -19.7282293232      -19.4249171492  WZ1       648             0.0000000000
       519       173  TIP3      H2             18.2482950248      -18.6125993232      -18.6877271492  WZ1       648             0.0000000000
       520       174  TIP3      OH2            25.9849450248      -20.3323093232      -19.4740671492  WZ1       684             0.0000000000
       521       174  TIP3      H1             25.9924750248      -20.4683393232      -20.4215171492  WZ1       684             0.0000000000
       522       174  TIP3      H2             25.0689850248      -20.4494993232      -19.2220671492  WZ1       684             0.0000000000
       523       175  TIP3      OH2            24.4099950248      -24.3511893232      -18.9027571492  WZ1       714             0.0000000000
       524       175  TIP3      H1             25.1422350248      -24.0965993232      -18.3413071492  WZ1       714             0.0000000000
       525       175  TIP3      H2             23.6298650248      -24.1466493232      -18.3872171492  WZ1       714             0.0000000000
       526       176  TIP3      OH2            23.0280850248      -20.0294093232      -22.9883871492  WZ1       738             0.0000000000
       527       176  TIP3      H1             23.2451150248      -20.9611693232      -23.0194171492  WZ1       738             0.0000000000
       528       176  TIP3      H2             23.2744350248      -19.7549093232      -22.1051071492  WZ1       738             0.0000000000
       529       177  TIP3      OH2            22.2384250248      -18.1422693232      -18.6361671492  WZ1       755             0.0000000000
       530       177  TIP3      H1             22.7786450248      -18.3588693232      -17.8762471492  WZ1       755             0.0000000000
       531       177  TIP3      H2             21.7572250248      -18.9476693232      -18.8259171492  WZ1       755             0.0000000000
       532       178  TIP3      OH2            26.8357650248      -19.2228293232      -17.0157471492  WZ1       756             0.0000000000
       533       178  TIP3      H1             27.6034850248      -19.6817493232      -16.6748271492  WZ1       756             0.0000000000
       534       178  TIP3      H2             26.8143850248      -19.4488493232      -17.9456271492  WZ1       756             0.0000000000
       535       179  TIP3      OH2            22.1453750248      -24.3318593232      -17.6817371492  WZ1       760             0.0000000000
       536       179  TIP3      H1             22.2894250248      -25.2337893232      -17.9680671492  WZ1       760             0.0000000000
       537       179  TIP3      H2             21.3731150248      -24.0456493232      -18.1695071492  WZ1       760             0.0000000000
       538       180  TIP3      OH2            23.3636350248      -21.1434693232      -18.5192271492  WZ1       793             0.0000000000
       539       180  TIP3      H1             22.5428850248      -20.9688193232      -18.9797571492  WZ1       793             0.0000000000
       540       180  TIP3      H2             23.1114150248      -21.2169993232      -17.5987871492  WZ1       793             0.0000000000
       541       181  TIP3      OH2            23.7195950248      -16.9129593232      -22.2132971492  WZ1       797             0.0000000000
       542       181  TIP3      H1             22.9992350248      -16.4728593232      -22.6645271492  WZ1       797             0.0000000000
       543       181  TIP3      H2             23.3539950248      -17.1634893232      -21.3648971492  WZ1       797             0.0000000000
       544       182  TIP3      OH2            26.1868550248      -17.3125693232      -23.1835771492  WZ1       798             0.0000000000
       545       182  TIP3      H1             25.3220750248      -17.2407193232      -22.7795671492  WZ1       798             0.0000000000
       546       182  TIP3      H2             26.1317550248      -16.7658393232      -23.9673271492  WZ1       798             0.0000000000
       547       183  TIP3      OH2           -17.4646449752      -12.0329293232      -21.9527371492  WZ1       833             0.0000000000
       548       183  TIP3      H1            -18.1531849752      -11.3748593232      -22.0480771492  WZ1       833             0.0000000000
       549       183  TIP3      H2            -17.4491849752      -12.2301393232      -21.0161971492  WZ1       833             0.0000000000
       550       184  TIP3      OH2           -20.6907349752       -2.7664093232      -24.8059971492  WZ1       841             0.0000000000
       551       184  TIP3      H1            -21.6323649752       -2.7080193232      -24.6443071492  WZ1       841             0.0000000000
       552       184  TIP3      H2            -20.4141249752       -1.8603593232      -24.9430271492  WZ1       841             0.0000000000
       553       185  TIP3      OH2           -19.5929449752       -4.5175393232      -21.1948271492  WZ1       846             0.0000000000
       554       185  TIP3      H1            -19.4533149752       -5.1092893232      -21.9341271492  WZ1       846             0.0000000000
       555       185  TIP3      H2            -19.4256649752       -3.6449493232      -21.5509471492  WZ1       846             0.0000000000
       556       186  TIP3      OH2           -17.7510149752       -8.1777393232      -23.1287871492  WZ1       849             0.0000000000
       557       186  TIP3      H1            -18.4036049752       -7.4831793232      -23.0396971492  WZ1       849             0.0000000000
       558       186  TIP3      H2            -17.2859849752       -7.9676493232      -23.9386271492  WZ1       849             0.0000000000
       559       187  TIP3      OH2           -21.8172849752       -9.1719993232      -21.4029371492  WZ1       851             0.0000000000
       560       187  TIP3      H1            -21.7373749752       -8.4085593232      -20.8310871492  WZ1       851             0.0000000000
       561       187  TIP3      H2            -22.4185149752       -8.8927593232      -22.0934271492  WZ1       851             0.0000000000
       562       188  TIP3      OH2           -23.3934949752       -2.4438893232      -24.2205871492  WZ1       855             0.0000000000
       563       188  TIP3      H1            -23.6338349752       -1.7815793232      -23.5726671492  WZ1       855             0.0000000000
       564       188  TIP3      H2            -23.5916749752       -3.2783693232      -23.7956271492  WZ1       855             0.0000000000
       565       189  TIP3      OH2           -28.8226449752       -3.5478093232      -20.2374471492  WZ1       856             0.0000000000
       566       189  TIP3      H1            -29.1338949752       -2.7654893232      -19.7821271492  WZ1       856             0.0000000000
       567       189  TIP3      H2            -29.4726249752       -3.7008993232      -20.9232471492  WZ1       856             0.0000000000
       568       190  TIP3      OH2           -30.5830549752       -1.4763093232      -19.4740671492  WZ1       860             0.0000000000
       569       190  TIP3      H1            -30.5755249752       -1.6123393232      -20.4215171492  WZ1       860             0.0000000000
       570       190  TIP3      H2            -31.4990149752       -1.5934993232      -19.2220671492  WZ1       860             0.0000000000
       571       191  TIP3      OH2           -17.0378649752       -1.8369393232      -19.6174871492  WZ1       866             0.0000000000
       572       191  TIP3      H1            -17.0871849752       -2.7921293232      -19.6547271492  WZ1       866             0.0000000000
       573       191  TIP3      H2            -17.8646349752       -1.5694093232      -19.2161071492  WZ1       866             0.0000000000
       574       192  TIP3      OH2           -26.0594649752       -2.2630193232      -20.7413471492  WZ1       867             0.0000000000
       575       192  TIP3      H1            -25.9720049752       -1.4365593232      -20.2664371492  WZ1       867             0.0000000000
       576       192  TIP3      H2            -26.9229549752       -2.5926393232      -20.4924171492  WZ1       867             0.0000000000
       577       193  TIP3      OH2           -19.8858849752      -10.3436893232      -19.1372671492  WZ1       872             0.0000000000
       578       193  TIP3      H1            -20.2932049752       -9.8631293232      -19.8579371492  WZ1       872             0.0000000000
       579       193  TIP3      H2            -19.8453149752      -11.2490893232      -19.4451871492  WZ1       872             0.0000000000
       580       194  TIP3      OH2           -22.1288649752      -12.0121393232      -20.9170271492  WZ1       876             0.0000000000
       581       194  TIP3      H1            -22.6429149752      -12.1379193232      -20.1194271492  WZ1       876             0.0000000000
       582       194  TIP3      H2            -22.2843949752      -11.0998293232      -21.1614071492  WZ1       876             0.0000000000
       583       195  TIP3      OH2           -25.3925049752       -9.7115693232      -18.8330071492  WZ1       882             0.0000000000
       584       195  TIP3      H1            -25.9551249752      -10.4164093232      -18.5122271492  WZ1       882             0.0000000000
       585       195  TIP3      H2            -24.5661649752       -9.8323793232      -18.3652471492  WZ1       882             0.0000000000
       586       196  TIP3      OH2           -19.7559849752        2.0306806768      -18.5108071492  WZ1       894             0.0000000000
       587       196  TIP3      H1            -19.5561149752        2.4548706768      -19.3452771492  WZ1       894             0.0000000000
       588       196  TIP3      H2            -19.1006149752        2.3745006768      -17.9037671492  WZ1       894             0.0000000000
       589       197  TIP3      OH2           -32.1580049752       -5.4951893232      -18.9027571492  WZ1       895             0.0000000000
       590       197  TIP3      H1            -31.4257649752       -5.2405993232      -18.3413071492  WZ1       895             0.0000000000
       591       197  TIP3      H2            -32.9381349752       -5.2906493232      -18.3872171492  WZ1       895             0.0000000000
       592       198  TIP3      OH2           -19.8079749752       -6.3539893232      -23.2793471492  WZ1       900             0.0000000000
       593       198  TIP3      H1            -19.1660949752       -5.8973593232      -23.8231271492  WZ1       900             0.0000000000
       594       198  TIP3      H2            -20.6382849752       -6.2407493232      -23.7419371492  WZ1       900             0.0000000000
       595       199  TIP3      OH2           -25.4386549752       -5.3024793232      -20.8291971492  WZ1       902             0.0000000000
       596       199  TIP3      H1            -25.7840449752       -5.6842393232      -20.0222371492  WZ1       902             0.0000000000
       597       199  TIP3      H2            -25.6386449752       -4.3691193232      -20.7579071492  WZ1       902             0.0000000000
       598       200  TIP3      OH2           -27.8085749752       -8.2141293232      -18.7684971492  WZ1       907             0.0000000000
       599       200  TIP3      H1            -28.1044949752       -8.3798293232      -19.6635871492  WZ1       907             0.0000000000
       600       200  TIP3      H2            -26.8770549752       -8.4340993232      -18.7791071492  WZ1       907             0.0000000000
       601       201  TIP3      OH2           -23.1882949752       -2.8409293232      -20.8786971492  WZ1       908             0.0000000000
       602       201  TIP3      H1            -24.0888649752       -2.6576693232      -21.1463071492  WZ1       908             0.0000000000
       603       201  TIP3      H2            -23.1541849752       -2.5819993232      -19.9578171492  WZ1       908             0.0000000000
       604       202  TIP3      OH2           -17.4937649752       -4.7959693232      -19.6742871492  WZ1       910             0.0000000000
       605       202  TIP3      H1            -18.3449149752       -4.5575893232      -20.0416471492  WZ1       910             0.0000000000
       606       202  TIP3      H2            -16.9034249752       -4.8126493232      -20.4275771492  WZ1       910             0.0000000000
       607       203  TIP3      OH2           -27.5162049752       -0.8616393232      -23.0006271492  WZ1       916             0.0000000000
       608       203  TIP3      H1            -27.1537349752       -0.0070793232      -23.2341871492  WZ1       916             0.0000000000
       609       203  TIP3      H2            -26.9846849752       -1.1534793232      -22.2599971492  WZ1       916             0.0000000000
       610       204  TIP3      OH2           -23.9721249752       -4.7625693232      -23.3000671492  WZ1       918             0.0000000000
       611       204  TIP3      H1            -24.3979949752       -4.9903993232      -22.4736671492  WZ1       918             0.0000000000
       612       204  TIP3      H2            -23.3915449752       -5.5013893232      -23.4825371492  WZ1       918             0.0000000000
       613       205  TIP3      OH2           -21.3137049752       -0.2106193232      -20.8305871492  WZ1       920             0.0000000000
       614       205  TIP3      H1            -21.9153849752       -0.7663293232      -21.3259571492  WZ1       920             0.0000000000
       615       205  TIP3      H2            -21.0323349752        0.4563606768      -21.4568471492  WZ1       920             0.0000000000
       616       206  TIP3      OH2           -19.7320749752      -12.9634693232      -20.5817671492  WZ1       936             0.0000000000
       617       206  TIP3      H1            -20.6484949752      -12.7012993232      -20.6693971492  WZ1       936             0.0000000000
       618       206  TIP3      H2            -19.3965749752      -12.9665693232      -21.4782371492  WZ1       936             0.0000000000
       619       207  TIP3      OH2           -20.0435149752        0.0428806768      -24.8636871492  WZ1       940             0.0000000000
       620       207  TIP3      H1            -20.1990849752        0.7213206768      -25.5207571492  WZ1       940             0.0000000000
       621       207  TIP3      H2            -19.1108749752        0.1148106768      -24.6606271492  WZ1       940             0.0000000000
       622       208  TIP3      OH2           -34.3295749752        0.7137306768      -18.6361671492  WZ1       943             0.0000000000
       623       208  TIP3      H1            -33.7893549752        0.4971306768      -17.8762471492  WZ1       943             0.0000000000
       624       208  TIP3      H2            -34.8107749752       -0.0916693232      -18.8259171492  WZ1       943             0.0000000000
       625       209  TIP3      OH2           -29.7322349752       -0.3668293232      -17.0157471492  WZ1       944             0.0000000000
       626       209  TIP3      H1            -28.9645149752       -0.8257493232      -16.6748271492  WZ1       944             0.0000000000
       627       209  TIP3      H2            -29.7536149752       -0.5928493232      -17.9456271492  WZ1       944             0.0000000000
       628       210  TIP3      OH2           -23.1553649752       -1.9867193232      -18.2865971492  WZ1       946             0.0000000000
       629       210  TIP3      H1            -23.5064149752       -2.8434193232      -18.0435571492  WZ1       946             0.0000000000
       630       210  TIP3      H2            -22.4290449752       -1.8440493232      -17.6796971492  WZ1       946             0.0000000000
       631       211  TIP3      OH2           -27.7670149752       -5.5060493232      -18.2490971492  WZ1       950             0.0000000000
       632       211  TIP3      H1            -28.0956349752       -5.2352393232      -19.1063571492  WZ1       950             0.0000000000
       633       211  TIP3      H2            -27.6151949752       -6.4470693232      -18.3365971492  WZ1       950             0.0000000000
       634       212  TIP3      OH2           -22.0324949752       -5.5903193232      -20.8658671492  WZ1       952             0.0000000000
       635       212  TIP3      H1            -21.2870149752       -5.0019493232      -20.9854671492  WZ1       952             0.0000000000
       636       212  TIP3      H2            -22.7898149752       -5.0083493232      -20.8025571492  WZ1       952             0.0000000000
       637       213  TIP3      OH2           -24.6231249752       -6.7954293232      -17.6100371492  WZ1       957             0.0000000000
       638       213  TIP3      H1            -23.6700049752       -6.7115193232      -17.6374371492  WZ1       957             0.0000000000
       639       213  TIP3      H2            -24.7836649752       -7.5072493232      -16.9905471492  WZ1       957             0.0000000000
       640       214  TIP3      OH2           -22.8935449752      -10.2874993232      -17.0444171492  WZ1       962             0.0000000000
       641       214  TIP3      H1            -22.7014149752      -11.2185593232      -17.1559671492  WZ1       962             0.0000000000
       642       214  TIP3      H2            -22.0359149752       -9.8625493232      -17.0548771492  WZ1       962             0.0000000000
       643       215  TIP3      OH2           -21.5768249752       -7.4989793232      -18.9671471492  WZ1       963             0.0000000000
       644       215  TIP3      H1            -21.8583249752       -6.7895193232      -19.5447671492  WZ1       963             0.0000000000
       645       215  TIP3      H2            -20.6343949752       -7.5716793232      -19.1180271492  WZ1       963             0.0000000000
       646       216  TIP3      OH2           -26.8214049752      -11.7641893232      -18.3172671492  WZ1       966             0.0000000000
       647       216  TIP3      H1            -27.0568649752      -11.9835193232      -17.4157771492  WZ1       966             0.0000000000
       648       216  TIP3      H2            -27.6047149752      -11.9710693232      -18.8270171492  WZ1       966             0.0000000000
       649       217  TIP3      OH2           -24.1057449752      -12.6368393232      -19.2419171492  WZ1       967             0.0000000000
       650       217  TIP3      H1            -25.0532049752      -12.6048693232      -19.1095871492  WZ1       967             0.0000000000
       651       217  TIP3      H2            -23.7930749752      -13.2621293232      -18.5880971492  WZ1       967             0.0000000000
       652       218  TIP3      OH2           -22.4715949752      -14.0027293232      -17.2367271492  WZ1       968             0.0000000000
       653       218  TIP3      H1            -22.5684149752      -14.9549993232      -17.2425371492  WZ1       968             0.0000000000
       654       218  TIP3      H2            -22.7932849752      -13.7340493232      -16.3761771492  WZ1       968             0.0000000000
       655       219  TIP3      OH2           -27.5098949752      -15.1091493232      -17.1561971492  WZ1       971             0.0000000000
       656       219  TIP3      H1            -27.6416749752      -15.5847693232      -17.9763471492  WZ1       971             0.0000000000
       657       219  TIP3      H2            -28.1091549752      -14.3647893232      -17.2114871492  WZ1       971             0.0000000000
       658       220  TIP3      OH2           -17.3277149752        0.6934506768      -24.6344971492  WZ1       976             0.0000000000
       659       220  TIP3      H1            -17.3490449752        0.8782906768      -23.6955571492  WZ1       976             0.0000000000
       660       220  TIP3      H2            -16.6370949752        1.2618506768      -24.9753571492  WZ1       976             0.0000000000
       661       221  TIP3      OH2           -17.7644249752        0.2605606768      -21.7125871492  WZ1       977             0.0000000000
       662       221  TIP3      H1            -18.2515549752       -0.4750293232      -22.0838471492  WZ1       977             0.0000000000
       663       221  TIP3      H2            -17.2151549752       -0.1330493232      -21.0346471492  WZ1       977             0.0000000000
       664       222  TIP3      OH2           -19.3136949752       -3.9496293232      -17.0745571492  WZ1       978             0.0000000000
       665       222  TIP3      H1            -20.1795849752       -4.0546593232      -16.6803271492  WZ1       978             0.0000000000
       666       222  TIP3      H2            -18.9371049752       -3.1912993232      -16.6280871492  WZ1       978             0.0000000000
       667       223  TIP3      OH2           -17.8590449752       -4.8547693232      -24.7889771492  WZ1       981             0.0000000000
       668       223  TIP3      H1            -17.0256249752       -5.2327693232      -25.0696171492  WZ1       981             0.0000000000
       669       223  TIP3      H2            -17.7470149752       -3.9116493232      -24.9080671492  WZ1       981             0.0000000000
       670       224  TIP3      OH2           -19.3728149752       -1.9770193232      -22.4821371492  WZ1       982             0.0000000000
       671       224  TIP3      H1            -20.0202849752       -1.6518693232      -21.8566171492  WZ1       982             0.0000000000
       672       224  TIP3      H2            -19.8904149752       -2.4172493232      -23.1563071492  WZ1       982             0.0000000000
       673       225  TIP3      OH2           -18.9751949752       -7.1485393232      -19.5350371492  WZ1       987             0.0000000000
       674       225  TIP3      H1            -18.3924649752       -7.8833093232      -19.3433171492  WZ1       987             0.0000000000
       675       225  TIP3      H2            -18.4112649752       -6.3765093232      -19.4884571492  WZ1       987             0.0000000000
       676       226  TIP3      OH2           -17.4784849752       -9.2459593232      -18.8504971492  WZ1       988             0.0000000000
       677       226  TIP3      H1            -18.3418149752       -9.6247493232      -19.0160271492  WZ1       988             0.0000000000
       678       226  TIP3      H2            -16.8741149752       -9.9844793232      -18.9249171492  WZ1       988             0.0000000000
       679       227  TIP3      OH2           -19.4799849752      -10.2180193232      -22.4995271492  WZ1       992             0.0000000000
       680       227  TIP3      H1            -20.3228549752       -9.9499793232      -22.1335471492  WZ1       992             0.0000000000
       681       227  TIP3      H2            -19.0375549752       -9.3958293232      -22.7104171492  WZ1       992             0.0000000000
       682       228  TIP3      OH2           -17.1968249752      -16.2379993232      -17.1460271492  WZ1       994             0.0000000000
       683       228  TIP3      H1            -16.8471249752      -16.8916493232      -17.7515571492  WZ1       994             0.0000000000
       684       228  TIP3      H2            -17.0498749752      -15.4005893232      -17.5857671492  WZ1       994             0.0000000000
       685       229  TIP3      OH2           -17.6771049752      -14.1285393232      -18.7968971492  WZ1       998             0.0000000000
       686       229  TIP3      H1            -18.5945349752      -13.8578293232      -18.8325471492  WZ1       998             0.0000000000
       687       229  TIP3      H2            -17.5541649752      -14.6636993232      -19.5809271492  WZ1       998             0.0000000000
       688       230  TIP3      OH2           -33.2043649752       -2.2874693232      -18.5192271492  WZ1       1003            0.0000000000
       689       230  TIP3      H1            -34.0251149752       -2.1128193232      -18.9797571492  WZ1       1003            0.0000000000
       690       230  TIP3      H2            -33.4565849752       -2.3609993232      -17.5987871492  WZ1       1003            0.0000000000
       691       231  TIP3      OH2           -25.9389349752        0.0856506768      -19.3014571492  WZ1       1005            0.0000000000
       692       231  TIP3      H1            -25.7541849752       -0.2477393232      -18.4234271492  WZ1       1005            0.0000000000
       693       231  TIP3      H2            -25.0924849752        0.3955106768      -19.6235371492  WZ1       1005            0.0000000000
       694       232  TIP3      OH2           -23.5938949752        1.3715406768      -20.0573171492  WZ1       1006            0.0000000000
       695       232  TIP3      H1            -22.9170049752        0.7387706768      -20.2973971492  WZ1       1006            0.0000000000
       696       232  TIP3      H2            -23.2720149752        1.7725906768      -19.2499871492  WZ1       1006            0.0000000000
       697       233  TIP3      OH2           -18.6765149752      -16.0389093232      -20.9778171492  WZ1       1007            0.0000000000
       698       233  TIP3      H1            -19.4891649752      -15.7138793232      -21.3653471492  WZ1       1007            0.0000000000
       699       233  TIP3      H2            -18.4436649752      -16.7990593232      -21.5109071492  WZ1       1007            0.0000000000
       700       234  TIP3      OH2           -25.6705849752        1.4313206768      -24.0079771492  WZ1       1010            0.0000000000
       701       234  TIP3      H1            -26.1271849752        1.9602906768      -24.6621371492  WZ1       1010            0.0000000000
       702       234  TIP3      H2            -25.5077849752        2.0344606768      -23.2827471492  WZ1       1010            0.0000000000
       703       235  TIP3      OH2           -23.3429549752        0.3092806768      -23.0629471492  WZ1       1011            0.0000000000
       704       235  TIP3      H1            -24.2475849752        0.4743006768      -23.3287371492  WZ1       1011            0.0000000000
       705       235  TIP3      H2            -22.9140949752        1.1625006768      -23.1286071492  WZ1       1011            0.0000000000
       706       236  TIP3      OH2           -20.7387649752        1.8791906768      -22.7681671492  WZ1       1012            0.0000000000
       707       236  TIP3      H1            -20.9205649752        2.7950806768      -22.9786771492  WZ1       1012            0.0000000000
       708       236  TIP3      H2            -20.5619849752        1.4689006768      -23.6147071492  WZ1       1012            0.0000000000
       709       237  TIP3      OH2           -22.5678049752      -16.7586593232      -17.5973971492  WZ1       1032            0.0000000000
       710       237  TIP3      H1            -22.4910849752      -17.1845893232      -16.7436271492  WZ1       1032            0.0000000000
       711       237  TIP3      H2            -21.6741449752      -16.7451893232      -17.9400471492  WZ1       1032            0.0000000000
       712       238  TIP3      OH2           -19.3916949752       -0.6860293232      -18.9049771492  WZ1       1033            0.0000000000
       713       238  TIP3      H1            -20.1735049752       -0.8722293232      -19.4249171492  WZ1       1033            0.0000000000
       714       238  TIP3      H2            -19.4637049752        0.2434006768      -18.6877271492  WZ1       1033            0.0000000000
       715       239  TIP3      OH2            -4.9856549752       -6.7995893232      -28.8742571492  WZ1       1034            0.0000000000
       716       239  TIP3      H1             -4.8965449752       -5.8557693232      -29.0065471492  WZ1       1034            0.0000000000
       717       239  TIP3      H2             -5.6238949752       -7.0749493232      -29.5323171492  WZ1       1034            0.0000000000
       718       240  TIP3      OH2            -6.0525249752       -7.5445193232      -25.4554371492  WZ1       1035            0.0000000000
       719       240  TIP3      H1             -6.0907749752       -8.1908893232      -24.7504771492  WZ1       1035            0.0000000000
       720       240  TIP3      H2             -6.3748749752       -8.0110793232      -26.2265671492  WZ1       1035            0.0000000000
       721       241  TIP3      OH2           -13.6840249752       -7.9303093232      -23.8624471492  WZ1       1036            0.0000000000
       722       241  TIP3      H1            -13.6428149752       -8.5559793232      -23.1392071492  WZ1       1036            0.0000000000
       723       241  TIP3      H2            -12.9812549752       -7.3064493232      -23.6804071492  WZ1       1036            0.0000000000
       724       242  TIP3      OH2            -2.3465049752       -4.6054793232      -27.1539271492  WZ1       1037            0.0000000000
       725       242  TIP3      H1             -2.7872349752       -5.3258793232      -26.7033671492  WZ1       1037            0.0000000000
       726       242  TIP3      H2             -2.3595349752       -3.8847593232      -26.5241571492  WZ1       1037            0.0000000000
       727       243  TIP3      OH2           -12.7607149752       -3.4804193232      -25.3275371492  WZ1       1038            0.0000000000
       728       243  TIP3      H1            -13.1301949752       -4.2823693232      -25.6971071492  WZ1       1038            0.0000000000
       729       243  TIP3      H2            -11.8196049752       -3.6489293232      -25.2811971492  WZ1       1038            0.0000000000
       730       244  TIP3      OH2            -5.2349549752        0.4986906768      -26.9418871492  WZ1       1041            0.0000000000
       731       244  TIP3      H1             -4.6153149752       -0.1778393232      -27.2149671492  WZ1       1041            0.0000000000
       732       244  TIP3      H2             -5.4432149752        0.2807706768      -26.0333971492  WZ1       1041            0.0000000000
       733       245  TIP3      OH2            -7.6630849752       -5.1123793232      -25.0493371492  WZ1       1042            0.0000000000
       734       245  TIP3      H1             -7.3592949752       -5.7982393232      -25.6439271492  WZ1       1042            0.0000000000
       735       245  TIP3      H2             -6.9416849752       -4.9935093232      -24.4315371492  WZ1       1042            0.0000000000
       736       246  TIP3      OH2             0.9998950248      -13.5108493232      -24.1887171492  WZ1       1043            0.0000000000
       737       246  TIP3      H1              1.0491150248      -12.9007293232      -23.4528071492  WZ1       1043            0.0000000000
       738       246  TIP3      H2              1.4254050248      -13.0497593232      -24.9116071492  WZ1       1043            0.0000000000
       739       247  TIP3      OH2            -4.5223849752      -10.7181393232      -24.7218571492  WZ1       1044            0.0000000000
       740       247  TIP3      H1             -4.3797949752      -11.6644393232      -24.7016971492  WZ1       1044            0.0000000000
       741       247  TIP3      H2             -4.6284849752      -10.5111593232      -25.6503671492  WZ1       1044            0.0000000000
       742       248  TIP3      OH2           -11.3675549752      -12.6164993232      -27.4493771492  WZ1       1045            0.0000000000
       743       248  TIP3      H1            -11.3244449752      -11.7566493232      -27.8677471492  WZ1       1045            0.0000000000
       744       248  TIP3      H2            -11.8251449752      -13.1690293232      -28.0830571492  WZ1       1045            0.0000000000
       745       249  TIP3      OH2            -3.6452849752      -12.4859393232      -29.0485471492  WZ1       1046            0.0000000000
       746       249  TIP3      H1             -2.9988549752      -12.8146193232      -28.4237871492  WZ1       1046            0.0000000000
       747       249  TIP3      H2             -3.1353449752      -11.9680393232      -29.6714071492  WZ1       1046            0.0000000000
       748       250  TIP3      OH2           -14.7474049752      -10.2199193232      -26.6872371492  WZ1       1047            0.0000000000
       749       250  TIP3      H1            -14.0937449752      -10.7697493232      -26.2552271492  WZ1       1047            0.0000000000
       750       250  TIP3      H2            -14.7234749752      -10.4940193232      -27.6040371492  WZ1       1047            0.0000000000
       751       251  TIP3      OH2            -9.5909549752       -8.6697893232      -27.4720871492  WZ1       1048            0.0000000000
       752       251  TIP3      H1             -8.9748549752       -9.1962493232      -26.9626871492  WZ1       1048            0.0000000000
       753       251  TIP3      H2            -10.1770749752       -9.3099193232      -27.8757271492  WZ1       1048            0.0000000000
       754       252  TIP3      OH2             1.3913550248      -12.0329293232      -21.9527371492  WZ1       1049            0.0000000000
       755       252  TIP3      H1              0.7028150248      -11.3748593232      -22.0480771492  WZ1       1049            0.0000000000
       756       252  TIP3      H2              1.4068150248      -12.2301393232      -21.0161971492  WZ1       1049            0.0000000000
       757       253  TIP3      OH2           -12.5573649752      -13.6986593232      -23.3752971492  WZ1       1050            0.0000000000
       758       253  TIP3      H1            -12.7761949752      -13.1685993232      -24.1416971492  WZ1       1050            0.0000000000
       759       253  TIP3      H2            -13.2252749752      -13.4721093232      -22.7281571492  WZ1       1050            0.0000000000
       760       254  TIP3      OH2            -5.1883849752       -4.1985493232      -29.8313871492  WZ1       1051            0.0000000000
       761       254  TIP3      H1             -5.4838749752       -4.5213193232      -30.6826971492  WZ1       1051            0.0000000000
       762       254  TIP3      H2             -5.5126049752       -3.2988793232      -29.7901271492  WZ1       1051            0.0000000000
       763       255  TIP3      OH2            -9.9882249752       -6.0230893232      -23.0879271492  WZ1       1052            0.0000000000
       764       255  TIP3      H1            -10.7283149752       -5.4249393232      -22.9844071492  WZ1       1052            0.0000000000
       765       255  TIP3      H2             -9.2742749752       -5.4691293232      -23.4035671492  WZ1       1052            0.0000000000
       766       256  TIP3      OH2            -1.8814449752      -13.1950093232      -27.0679571492  WZ1       1053            0.0000000000
       767       256  TIP3      H1             -2.0966449752      -13.9606693232      -26.5353571492  WZ1       1053            0.0000000000
       768       256  TIP3      H2             -1.2257049752      -12.7225493232      -26.5551071492  WZ1       1053            0.0000000000
       769       257  TIP3      OH2           -12.9636349752      -11.8064793232      -25.4230771492  WZ1       1054            0.0000000000
       770       257  TIP3      H1            -12.3500049752      -11.1737193232      -25.0498371492  WZ1       1054            0.0000000000
       771       257  TIP3      H2            -12.4515649752      -12.2789793232      -26.0793871492  WZ1       1054            0.0000000000
       772       258  TIP3      OH2           -11.5807949752       -4.0587893232      -22.3007771492  WZ1       1055            0.0000000000
       773       258  TIP3      H1            -11.5860349752       -3.1794393232      -22.6788471492  WZ1       1055            0.0000000000
       774       258  TIP3      H2            -12.4343849752       -4.1423793232      -21.8757871492  WZ1       1055            0.0000000000
       775       259  TIP3      OH2            -1.8347349752       -2.7664093232      -24.8059971492  WZ1       1057            0.0000000000
       776       259  TIP3      H1             -2.7763649752       -2.7080193232      -24.6443071492  WZ1       1057            0.0000000000
       777       259  TIP3      H2             -1.5581249752       -1.8603593232      -24.9430271492  WZ1       1057            0.0000000000
       778       260  TIP3      OH2            -1.5340349752      -14.4798793232      -23.3886071492  WZ1       1058            0.0000000000
       779       260  TIP3      H1             -2.2701149752      -13.8691693232      -23.4264771492  WZ1       1058            0.0000000000
       780       260  TIP3      H2             -0.8506349752      -14.0649793232      -23.9149671492  WZ1       1058            0.0000000000
       781       261  TIP3      OH2            -8.5308949752      -16.3931493232      -25.9228071492  WZ1       1059            0.0000000000
       782       261  TIP3      H1             -8.6484749752      -17.3415493232      -25.9769771492  WZ1       1059            0.0000000000
       783       261  TIP3      H2             -9.3858849752      -16.0605393232      -25.6496971492  WZ1       1059            0.0000000000
       784       262  TIP3      OH2            -3.5826149752       -0.9850593232      -28.1808371492  WZ1       1060            0.0000000000
       785       262  TIP3      H1             -3.1573849752       -1.6922693232      -28.6658771492  WZ1       1060            0.0000000000
       786       262  TIP3      H2             -3.2656149752       -0.1837893232      -28.5976171492  WZ1       1060            0.0000000000
       787       263  TIP3      OH2            -2.4229649752       -3.0842093232      -29.6721771492  WZ1       1061            0.0000000000
       788       263  TIP3      H1             -2.6804849752       -3.7741993232      -30.2835871492  WZ1       1061            0.0000000000
       789       263  TIP3      H2             -2.3518849752       -3.5270893232      -28.8265871492  WZ1       1061            0.0000000000
       790       264  TIP3      OH2            -0.7369449752       -4.5175393232      -21.1948271492  WZ1       1062            0.0000000000
       791       264  TIP3      H1             -0.5973149752       -5.1092893232      -21.9341271492  WZ1       1062            0.0000000000
       792       264  TIP3      H2             -0.5696649752       -3.6449493232      -21.5509471492  WZ1       1062            0.0000000000
       793       265  TIP3      OH2            -6.2644049752       -7.5555893232      -31.4222271492  WZ1       1063            0.0000000000
       794       265  TIP3      H1             -6.9758549752       -7.0206193232      -31.7741771492  WZ1       1063            0.0000000000
       795       265  TIP3      H2             -5.5734449752       -7.5003793232      -32.0823371492  WZ1       1063            0.0000000000
       796       266  TIP3      OH2             1.1049850248       -8.1777393232      -23.1287871492  WZ1       1065            0.0000000000
       797       266  TIP3      H1              0.4523950248       -7.4831793232      -23.0396971492  WZ1       1065            0.0000000000
       798       266  TIP3      H2              1.5700150248       -7.9676493232      -23.9386271492  WZ1       1065            0.0000000000
       799       267  TIP3      OH2            -2.8586349752       -7.3462593232      -30.4706371492  WZ1       1066            0.0000000000
       800       267  TIP3      H1             -3.5905349752       -7.1178893232      -29.8975771492  WZ1       1066            0.0000000000
       801       267  TIP3      H2             -2.4114149752       -8.0599893232      -30.0158871492  WZ1       1066            0.0000000000
       802       268  TIP3      OH2            -2.9612849752       -9.1719993232      -21.4029371492  WZ1       1067            0.0000000000
       803       268  TIP3      H1             -2.8813749752       -8.4085593232      -20.8310871492  WZ1       1067            0.0000000000
       804       268  TIP3      H2             -3.5625149752       -8.8927593232      -22.0934271492  WZ1       1067            0.0000000000
       805       269  TIP3      OH2           -11.2132649752       -6.7156393232      -28.5881371492  WZ1       1068            0.0000000000
       806       269  TIP3      H1            -11.5437449752       -7.0862993232      -29.4064371492  WZ1       1068            0.0000000000
       807       269  TIP3      H2            -10.6248549752       -7.3862393232      -28.2413071492  WZ1       1068            0.0000000000
       808       270  TIP3      OH2            -9.8465149752       -3.2875793232      -25.9069171492  WZ1       1069            0.0000000000
       809       270  TIP3      H1             -9.9413849752       -3.8662693232      -26.6634571492  WZ1       1069            0.0000000000
       810       270  TIP3      H2             -9.1171549752       -3.6590093232      -25.4106371492  WZ1       1069            0.0000000000
       811       271  TIP3      OH2           -10.8467149752       -7.9470793232      -24.9546371492  WZ1       1070            0.0000000000
       812       271  TIP3      H1            -10.2814649752       -7.8256593232      -25.7175171492  WZ1       1070            0.0000000000
       813       271  TIP3      H2            -10.5278249752       -7.3095793232      -24.3157871492  WZ1       1070            0.0000000000
       814       272  TIP3      OH2            -4.5374949752       -2.4438893232      -24.2205871492  WZ1       1071            0.0000000000
       815       272  TIP3      H1             -4.7778349752       -1.7815793232      -23.5726671492  WZ1       1071            0.0000000000
       816       272  TIP3      H2             -4.7356749752       -3.2783693232      -23.7956271492  WZ1       1071            0.0000000000
       817       273  TIP3      OH2            -9.9666449752       -3.5478093232      -20.2374471492  WZ1       1072            0.0000000000
       818       273  TIP3      H1            -10.2778949752       -2.7654893232      -19.7821271492  WZ1       1072            0.0000000000
       819       273  TIP3      H2            -10.6166249752       -3.7008993232      -20.9232471492  WZ1       1072            0.0000000000
       820       274  TIP3      OH2            -3.9876849752       -8.1839693232      -32.7855171492  WZ1       1073            0.0000000000
       821       274  TIP3      H1             -3.4081349752       -8.0339393232      -32.0386271492  WZ1       1073            0.0000000000
       822       274  TIP3      H2             -3.5736849752       -7.7132293232      -33.5088771492  WZ1       1073            0.0000000000
       823       275  TIP3      OH2           -13.0466549752       -7.3496993232      -21.0088771492  WZ1       1074            0.0000000000
       824       275  TIP3      H1            -12.9763349752       -6.6990193232      -20.3103771492  WZ1       1074            0.0000000000
       825       275  TIP3      H2            -13.9374349752       -7.2469493232      -21.3437871492  WZ1       1074            0.0000000000
       826       276  TIP3      OH2            -6.2611949752       -1.4471193232      -29.3502071492  WZ1       1075            0.0000000000
       827       276  TIP3      H1             -5.7874349752       -1.1514893232      -28.5727871492  WZ1       1075            0.0000000000
       828       276  TIP3      H2             -6.8242649752       -0.7089593232      -29.5832471492  WZ1       1075            0.0000000000
       829       277  TIP3      OH2           -11.7270549752       -1.4763093232      -19.4740671492  WZ1       1076            0.0000000000
       830       277  TIP3      H1            -11.7195249752       -1.6123393232      -20.4215171492  WZ1       1076            0.0000000000
       831       277  TIP3      H2            -12.6430149752       -1.5934993232      -19.2220671492  WZ1       1076            0.0000000000
       832       278  TIP3      OH2             0.9002950248       -2.0676893232      -34.5961571492  WZ1       1079            0.0000000000
       833       278  TIP3      H1              0.9736450248       -1.1286693232      -34.4256271492  WZ1       1079            0.0000000000
       834       278  TIP3      H2              1.8058050248       -2.3728293232      -34.6524271492  WZ1       1079            0.0000000000
       835       279  TIP3      OH2           -16.1299849752       -5.2832893232      -22.1838771492  WZ1       1080            0.0000000000
       836       279  TIP3      H1            -16.6311449752       -5.3113493232      -22.9989071492  WZ1       1080            0.0000000000
       837       279  TIP3      H2            -16.1246149752       -6.1889693232      -21.8741471492  WZ1       1080            0.0000000000
       838       280  TIP3      OH2           -16.3797149752       -2.5029093232      -25.2998571492  WZ1       1081            0.0000000000
       839       280  TIP3      H1            -15.4336549752       -2.6472093232      -25.3189071492  WZ1       1081            0.0000000000
       840       280  TIP3      H2            -16.4920849752       -1.7186293232      -24.7627371492  WZ1       1081            0.0000000000
       841       281  TIP3      OH2             1.8181350248       -1.8369393232      -19.6174871492  WZ1       1082            0.0000000000
       842       281  TIP3      H1              1.7688150248       -2.7921293232      -19.6547271492  WZ1       1082            0.0000000000
       843       281  TIP3      H2              0.9913650248       -1.5694093232      -19.2161071492  WZ1       1082            0.0000000000
       844       282  TIP3      OH2            -7.2034649752       -2.2630193232      -20.7413471492  WZ1       1083            0.0000000000
       845       282  TIP3      H1             -7.1160049752       -1.4365593232      -20.2664371492  WZ1       1083            0.0000000000
       846       282  TIP3      H2             -8.0669549752       -2.5926393232      -20.4924171492  WZ1       1083            0.0000000000
       847       283  TIP3      OH2            -6.7888849752        1.5093506768      -30.9352871492  WZ1       1084            0.0000000000
       848       283  TIP3      H1             -6.8642849752        1.3880706768      -31.8817671492  WZ1       1084            0.0000000000
       849       283  TIP3      H2             -6.7560149752        2.4586206768      -30.8168271492  WZ1       1084            0.0000000000
       850       284  TIP3      OH2           -13.1355049752        0.2980506768      -29.1543871492  WZ1       1085            0.0000000000
       851       284  TIP3      H1            -12.9834649752       -0.0499093232      -28.2757371492  WZ1       1085            0.0000000000
       852       284  TIP3      H2            -13.9864649752       -0.0582193232      -29.4096671492  WZ1       1085            0.0000000000
       853       285  TIP3      OH2            -3.6872849752        0.6633706768      -33.9330471492  WZ1       1086            0.0000000000
       854       285  TIP3      H1             -3.3124449752       -0.0810193232      -34.4037871492  WZ1       1086            0.0000000000
       855       285  TIP3      H2             -3.6829149752        0.3934306768      -33.0147171492  WZ1       1086            0.0000000000
       856       286  TIP3      OH2            -4.0184749752        0.5890806768      -31.1838271492  WZ1       1087            0.0000000000
       857       286  TIP3      H1             -4.9534949752        0.6892706768      -31.0051271492  WZ1       1087            0.0000000000
       858       286  TIP3      H2             -3.7382849752       -0.1203193232      -30.6055071492  WZ1       1087            0.0000000000
       859       287  TIP3      OH2            -1.0298849752      -10.3436893232      -19.1372671492  WZ1       1088            0.0000000000
       860       287  TIP3      H1             -1.4372049752       -9.8631293232      -19.8579371492  WZ1       1088            0.0000000000
       861       287  TIP3      H2             -0.9893149752      -11.2490893232      -19.4451871492  WZ1       1088            0.0000000000
       862       288  TIP3      OH2           -13.8809349752       -3.9597493232      -21.1405971492  WZ1       1089            0.0000000000
       863       288  TIP3      H1            -13.6648049752       -4.3211893232      -20.2810171492  WZ1       1089            0.0000000000
       864       288  TIP3      H2            -14.7364649752       -4.3343693232      -21.3502471492  WZ1       1089            0.0000000000
       865       289  TIP3      OH2           -11.2621349752      -15.4896993232      -25.1451771492  WZ1       1090            0.0000000000
       866       289  TIP3      H1            -12.1237649752      -15.5768793232      -25.5528871492  WZ1       1090            0.0000000000
       867       289  TIP3      H2            -11.2845649752      -14.6336893232      -24.7174171492  WZ1       1090            0.0000000000
       868       290  TIP3      OH2            -6.5993549752      -15.7676593232      -21.7704771492  WZ1       1091            0.0000000000
       869       290  TIP3      H1             -6.1790449752      -16.1829493232      -21.0174171492  WZ1       1091            0.0000000000
       870       290  TIP3      H2             -7.5323949752      -15.9463293232      -21.6532771492  WZ1       1091            0.0000000000
       871       291  TIP3      OH2            -3.2728649752      -12.0121393232      -20.9170271492  WZ1       1092            0.0000000000
       872       291  TIP3      H1             -3.7869149752      -12.1379193232      -20.1194271492  WZ1       1092            0.0000000000
       873       291  TIP3      H2             -3.4283949752      -11.0998293232      -21.1614071492  WZ1       1092            0.0000000000
       874       292  TIP3      OH2            -2.5103749752       -7.1511393232      -35.1557271492  WZ1       1093            0.0000000000
       875       292  TIP3      H1             -2.4682949752       -7.3737493232      -36.0857271492  WZ1       1093            0.0000000000
       876       292  TIP3      H2             -1.6611649752       -6.7524293232      -34.9657371492  WZ1       1093            0.0000000000
       877       293  TIP3      OH2           -11.1711249752      -10.5242493232      -24.0501571492  WZ1       1095            0.0000000000
       878       293  TIP3      H1            -11.8129149752      -10.5645193232      -23.3411471492  WZ1       1095            0.0000000000
       879       293  TIP3      H2            -11.1339249752       -9.5977793232      -24.2878571492  WZ1       1095            0.0000000000
       880       294  TIP3      OH2            -5.6386649752       -9.8872093232      -30.3210771492  WZ1       1097            0.0000000000
       881       294  TIP3      H1             -6.0476349752       -9.0723493232      -30.6125971492  WZ1       1097            0.0000000000
       882       294  TIP3      H2             -4.9180449752      -10.0271993232      -30.9353671492  WZ1       1097            0.0000000000
       883       295  TIP3      OH2            -6.5365049752       -9.7115693232      -18.8330071492  WZ1       1098            0.0000000000
       884       295  TIP3      H1             -7.0991249752      -10.4164093232      -18.5122271492  WZ1       1098            0.0000000000
       885       295  TIP3      H2             -5.7101649752       -9.8323793232      -18.3652471492  WZ1       1098            0.0000000000
       886       296  TIP3      OH2            -4.6338949752      -10.4411693232      -27.5071071492  WZ1       1099            0.0000000000
       887       296  TIP3      H1             -4.8294449752       -9.8354893232      -28.2220471492  WZ1       1099            0.0000000000
       888       296  TIP3      H2             -4.4526349752      -11.2746493232      -27.9414771492  WZ1       1099            0.0000000000
       889       297  TIP3      OH2           -13.4210749752      -10.2038993232      -22.1829571492  WZ1       1100            0.0000000000
       890       297  TIP3      H1            -13.4591349752       -9.8037393232      -21.3142471492  WZ1       1100            0.0000000000
       891       297  TIP3      H2            -13.9119649752      -11.0206593232      -22.0926671492  WZ1       1100            0.0000000000
       892       298  TIP3      OH2            -5.3699749752       -8.8030393232      -22.8358671492  WZ1       1104            0.0000000000
       893       298  TIP3      H1             -5.0464949752       -9.4340693232      -23.4788171492  WZ1       1104            0.0000000000
       894       298  TIP3      H2             -5.8100449752       -9.3378193232      -22.1751271492  WZ1       1104            0.0000000000
       895       299  TIP3      OH2            -8.5926849752      -12.8754893232      -28.0517471492  WZ1       1105            0.0000000000
       896       299  TIP3      H1             -9.5035749752      -12.8188093232      -27.7631471492  WZ1       1105            0.0000000000
       897       299  TIP3      H2             -8.0873949752      -12.9359393232      -27.2410271492  WZ1       1105            0.0000000000
       898       300  TIP3      OH2            -4.1874949752      -13.6408593232      -24.7875671492  WZ1       1108            0.0000000000
       899       300  TIP3      H1             -4.8643349752      -13.5095493232      -24.1235971492  WZ1       1108            0.0000000000
       900       300  TIP3      H2             -4.6730049752      -13.7959093232      -25.5977971492  WZ1       1108            0.0000000000
       901       301  TIP3      OH2            -0.8999849752        2.0306806768      -18.5108071492  WZ1       1110            0.0000000000
       902       301  TIP3      H1             -0.7001149752        2.4548706768      -19.3452771492  WZ1       1110            0.0000000000
       903       301  TIP3      H2             -0.2446149752        2.3745006768      -17.9037671492  WZ1       1110            0.0000000000
       904       302  TIP3      OH2           -13.3020049752       -5.4951893232      -18.9027571492  WZ1       1111            0.0000000000
       905       302  TIP3      H1            -12.5697649752       -5.2405993232      -18.3413071492  WZ1       1111            0.0000000000
       906       302  TIP3      H2            -14.0821349752       -5.2906493232      -18.3872171492  WZ1       1111            0.0000000000
       907       303  TIP3      OH2            -7.2727149752      -10.0881893232      -26.1647871492  WZ1       1112            0.0000000000
       908       303  TIP3      H1             -6.7083749752      -10.6345293232      -26.7118271492  WZ1       1112            0.0000000000
       909       303  TIP3      H2             -7.4203749752      -10.6099993232      -25.3760271492  WZ1       1112            0.0000000000
       910       304  TIP3      OH2            -8.6461249752      -11.6995793232      -23.7507471492  WZ1       1114            0.0000000000
       911       304  TIP3      H1             -9.4815949752      -11.2456293232      -23.6405071492  WZ1       1114            0.0000000000
       912       304  TIP3      H2             -8.1220649752      -11.4237293232      -22.9987571492  WZ1       1114            0.0000000000
       913       305  TIP3      OH2            -8.1018649752       -5.4868093232      -32.0661071492  WZ1       1115            0.0000000000
       914       305  TIP3      H1             -8.8467649752       -5.9942793232      -32.3883171492  WZ1       1115            0.0000000000
       915       305  TIP3      H2             -8.2361449752       -5.4380093232      -31.1196271492  WZ1       1115            0.0000000000
       916       306  TIP3      OH2            -0.9519749752       -6.3539893232      -23.2793471492  WZ1       1116            0.0000000000
       917       306  TIP3      H1             -0.3100949752       -5.8973593232      -23.8231271492  WZ1       1116            0.0000000000
       918       306  TIP3      H2             -1.7822849752       -6.2407493232      -23.7419371492  WZ1       1116            0.0000000000
       919       307  TIP3      OH2            -6.5826549752       -5.3024793232      -20.8291971492  WZ1       1118            0.0000000000
       920       307  TIP3      H1             -6.9280449752       -5.6842393232      -20.0222371492  WZ1       1118            0.0000000000
       921       307  TIP3      H2             -6.7826449752       -4.3691193232      -20.7579071492  WZ1       1118            0.0000000000
       922       308  TIP3      OH2            -3.4858349752      -10.8055493232      -32.2061071492  WZ1       1119            0.0000000000
       923       308  TIP3      H1             -2.5939349752      -10.9430493232      -31.8869871492  WZ1       1119            0.0000000000
       924       308  TIP3      H2             -3.4294749752      -10.0149393232      -32.7427571492  WZ1       1119            0.0000000000
       925       309  TIP3      OH2           -12.9770349752       -6.1918093232      -26.2963171492  WZ1       1120            0.0000000000
       926       309  TIP3      H1            -12.2323149752       -6.1942393232      -26.8976671492  WZ1       1120            0.0000000000
       927       309  TIP3      H2            -12.8993749752       -7.0154293232      -25.8148071492  WZ1       1120            0.0000000000
       928       310  TIP3      OH2            -5.9764549752       -4.0283793232      -33.0406471492  WZ1       1121            0.0000000000
       929       310  TIP3      H1             -6.2716149752       -3.2015893232      -32.6591671492  WZ1       1121            0.0000000000
       930       310  TIP3      H2             -6.6794549752       -4.6476893232      -32.8445071492  WZ1       1121            0.0000000000
       931       311  TIP3      OH2           -15.9690649752       -7.7311193232      -20.9814671492  WZ1       1122            0.0000000000
       932       311  TIP3      H1            -15.7462049752       -8.1491593232      -20.1497171492  WZ1       1122            0.0000000000
       933       311  TIP3      H2            -16.5710549752       -8.3436193232      -21.4041871492  WZ1       1122            0.0000000000
       934       312  TIP3      OH2            -8.9525749752       -8.2141293232      -18.7684971492  WZ1       1123            0.0000000000
       935       312  TIP3      H1             -9.2484949752       -8.3798293232      -19.6635871492  WZ1       1123            0.0000000000
       936       312  TIP3      H2             -8.0210549752       -8.4340993232      -18.7791071492  WZ1       1123            0.0000000000
       937       313  TIP3      OH2            -4.3322949752       -2.8409293232      -20.8786971492  WZ1       1124            0.0000000000
       938       313  TIP3      H1             -5.2328649752       -2.6576693232      -21.1463071492  WZ1       1124            0.0000000000
       939       313  TIP3      H2             -4.2981849752       -2.5819993232      -19.9578171492  WZ1       1124            0.0000000000
       940       314  TIP3      OH2             1.3990350248      -10.5961393232      -32.5114371492  WZ1       1125            0.0000000000
       941       314  TIP3      H1              0.8446650248      -10.9923393232      -33.1836871492  WZ1       1125            0.0000000000
       942       314  TIP3      H2              1.4993950248       -9.6856193232      -32.7891071492  WZ1       1125            0.0000000000
       943       315  TIP3      OH2             1.3622350248       -4.7959693232      -19.6742871492  WZ1       1126            0.0000000000
       944       315  TIP3      H1              0.5110850248       -4.5575893232      -20.0416471492  WZ1       1126            0.0000000000
       945       315  TIP3      H2              1.9525750248       -4.8126493232      -20.4275771492  WZ1       1126            0.0000000000
       946       316  TIP3      OH2            -0.3057949752       -1.8100993232      -32.0462271492  WZ1       1127            0.0000000000
       947       316  TIP3      H1             -0.6786849752       -2.6357193232      -31.7371671492  WZ1       1127            0.0000000000
       948       316  TIP3      H2             -0.0284449752       -1.9931593232      -32.9438871492  WZ1       1127            0.0000000000
       949       317  TIP3      OH2            -3.1454049752       -7.0021493232      -25.0250371492  WZ1       1128            0.0000000000
       950       317  TIP3      H1             -4.0737149752       -7.2339593232      -25.0521071492  WZ1       1128            0.0000000000
       951       317  TIP3      H2             -2.6942949752       -7.7791693232      -25.3551571492  WZ1       1128            0.0000000000
       952       318  TIP3      OH2           -10.6020949752       -2.6739893232      -28.8921671492  WZ1       1129            0.0000000000
       953       318  TIP3      H1            -10.0748749752       -1.9005493232      -29.0922871492  WZ1       1129            0.0000000000
       954       318  TIP3      H2            -11.4822449752       -2.4490693232      -29.1937671492  WZ1       1129            0.0000000000
       955       319  TIP3      OH2            -9.1748649752       -5.0109993232      -29.3157371492  WZ1       1131            0.0000000000
       956       319  TIP3      H1             -9.4158649752       -4.0855593232      -29.2742071492  WZ1       1131            0.0000000000
       957       319  TIP3      H2             -9.9155049752       -5.4698693232      -28.9193471492  WZ1       1131            0.0000000000
       958       320  TIP3      OH2            -8.6602049752       -0.8616393232      -23.0006271492  WZ1       1132            0.0000000000
       959       320  TIP3      H1             -8.2977349752       -0.0070793232      -23.2341871492  WZ1       1132            0.0000000000
       960       320  TIP3      H2             -8.1286849752       -1.1534793232      -22.2599971492  WZ1       1132            0.0000000000
       961       321  TIP3      OH2           -10.4917849752        0.0107606768      -29.7705171492  WZ1       1133            0.0000000000
       962       321  TIP3      H1            -11.4417349752        0.1165006768      -29.7191871492  WZ1       1133            0.0000000000
       963       321  TIP3      H2            -10.1399749752        0.8315006768      -29.4257671492  WZ1       1133            0.0000000000
       964       322  TIP3      OH2            -5.1161249752       -4.7625693232      -23.3000671492  WZ1       1134            0.0000000000
       965       322  TIP3      H1             -5.5419949752       -4.9903993232      -22.4736671492  WZ1       1134            0.0000000000
       966       322  TIP3      H2             -4.5355449752       -5.5013893232      -23.4825371492  WZ1       1134            0.0000000000
       967       323  TIP3      OH2            -2.9132349752       -3.8335193232      -34.2261671492  WZ1       1135            0.0000000000
       968       323  TIP3      H1             -2.5599249752       -4.2135393232      -33.4218171492  WZ1       1135            0.0000000000
       969       323  TIP3      H2             -3.8618849752       -3.9270393232      -34.1392371492  WZ1       1135            0.0000000000
       970       324  TIP3      OH2            -2.4577049752       -0.2106193232      -20.8305871492  WZ1       1136            0.0000000000
       971       324  TIP3      H1             -3.0593849752       -0.7663293232      -21.3259571492  WZ1       1136            0.0000000000
       972       324  TIP3      H2             -2.1763349752        0.4563606768      -21.4568471492  WZ1       1136            0.0000000000
       973       325  TIP3      OH2             1.5902050248        0.6457306768      -34.0251471492  WZ1       1137            0.0000000000
       974       325  TIP3      H1              2.3339950248        1.2317806768      -34.1649871492  WZ1       1137            0.0000000000
       975       325  TIP3      H2              0.8960150248        1.2143106768      -33.6919071492  WZ1       1137            0.0000000000
       976       326  TIP3      OH2           -14.3351149752      -12.9778493232      -21.4233271492  WZ1       1138            0.0000000000
       977       326  TIP3      H1            -15.2278849752      -12.6393093232      -21.4909271492  WZ1       1138            0.0000000000
       978       326  TIP3      H2            -14.4338349752      -13.8332393232      -21.0052471492  WZ1       1138            0.0000000000
       979       327  TIP3      OH2            -2.0473049752       -5.1613193232      -31.9993771492  WZ1       1139            0.0000000000
       980       327  TIP3      H1             -2.3245449752       -5.8893893232      -31.4432671492  WZ1       1139            0.0000000000
       981       327  TIP3      H2             -1.1200049752       -5.0421193232      -31.7941171492  WZ1       1139            0.0000000000
       982       328  TIP3      OH2           -14.6839149752       -1.1734093232      -22.9883871492  WZ1       1140            0.0000000000
       983       328  TIP3      H1            -14.4668849752       -2.1051693232      -23.0194171492  WZ1       1140            0.0000000000
       984       328  TIP3      H2            -14.4375649752       -0.8989093232      -22.1051071492  WZ1       1140            0.0000000000
       985       329  TIP3      OH2            -9.8853949752       -3.1515293232      -33.3229071492  WZ1       1142            0.0000000000
       986       329  TIP3      H1             -9.7385949752       -3.6715493232      -32.5328171492  WZ1       1142            0.0000000000
       987       329  TIP3      H2             -9.8882249752       -2.2447693232      -33.0163171492  WZ1       1142            0.0000000000
       988       330  TIP3      OH2            -5.6007749752      -13.2368193232      -22.5334671492  WZ1       1144            0.0000000000
       989       330  TIP3      H1             -4.9019849752      -13.1629493232      -21.8834971492  WZ1       1144            0.0000000000
       990       330  TIP3      H2             -5.9816349752      -14.1013193232      -22.3791771492  WZ1       1144            0.0000000000
       991       331  TIP3      OH2            -4.8162849752      -13.5846493232      -31.4362371492  WZ1       1145            0.0000000000
       992       331  TIP3      H1             -4.5964549752      -13.1131093232      -32.2396971492  WZ1       1145            0.0000000000
       993       331  TIP3      H2             -4.2578849752      -13.1903893232      -30.7661771492  WZ1       1145            0.0000000000
       994       332  TIP3      OH2            -7.1476749752       -1.4541693232      -32.5734871492  WZ1       1146            0.0000000000
       995       332  TIP3      H1             -7.9640649752       -0.9571993232      -32.5210571492  WZ1       1146            0.0000000000
       996       332  TIP3      H2             -6.6180449752       -0.9788193232      -33.2136071492  WZ1       1146            0.0000000000
       997       333  TIP3      OH2            -7.6162949752      -11.8567693232      -30.6013971492  WZ1       1147            0.0000000000
       998       333  TIP3      H1             -6.8040349752      -11.3524493232      -30.5552271492  WZ1       1147            0.0000000000
       999       333  TIP3      H2             -7.8609949752      -12.0017993232      -29.6874371492  WZ1       1147            0.0000000000
      1000       334  TIP3      OH2            -7.0806549752      -10.8704993232      -21.4167371492  WZ1       1148            0.0000000000
      1001       334  TIP3      H1             -6.9616249752      -10.2969593232      -20.6596971492  WZ1       1148            0.0000000000
      1002       334  TIP3      H2             -6.4251949752      -11.5585593232      -21.3019571492  WZ1       1148            0.0000000000
      1003       335  TIP3      OH2            -6.7326249752      -14.7754693232      -29.6632871492  WZ1       1149            0.0000000000
      1004       335  TIP3      H1             -7.0792749752      -14.1584093232      -29.0188571492  WZ1       1149            0.0000000000
      1005       335  TIP3      H2             -6.0739349752      -14.2748993232      -30.1447371492  WZ1       1149            0.0000000000
      1006       336  TIP3      OH2            -9.8093649752       -0.4104493232      -32.5917971492  WZ1       1150            0.0000000000
      1007       336  TIP3      H1             -9.6484949752        0.3893006768      -33.0925371492  WZ1       1150            0.0000000000
      1008       336  TIP3      H2            -10.0065849752       -0.1038493232      -31.7067371492  WZ1       1150            0.0000000000
      1009       337  TIP3      OH2            -0.8760749752      -12.9634693232      -20.5817671492  WZ1       1152            0.0000000000
      1010       337  TIP3      H1             -1.7924949752      -12.7012993232      -20.6693971492  WZ1       1152            0.0000000000
      1011       337  TIP3      H2             -0.5405749752      -12.9665693232      -21.4782371492  WZ1       1152            0.0000000000
      1012       338  TIP3      OH2            -2.2739749752       -9.2133693232      -26.4860371492  WZ1       1153            0.0000000000
      1013       338  TIP3      H1             -3.0715349752       -9.6283493232      -26.8145371492  WZ1       1153            0.0000000000
      1014       338  TIP3      H2             -1.8288649752       -9.9039993232      -25.9949871492  WZ1       1153            0.0000000000
      1015       339  TIP3      OH2            -1.1875149752        0.0428806768      -24.8636871492  WZ1       1156            0.0000000000
      1016       339  TIP3      H1             -1.3430849752        0.7213206768      -25.5207571492  WZ1       1156            0.0000000000
      1017       339  TIP3      H2             -0.2548749752        0.1148106768      -24.6606271492  WZ1       1156            0.0000000000
      1018       340  TIP3      OH2           -14.7619449752       -1.8986393232      -29.9659671492  WZ1       1158            0.0000000000
      1019       340  TIP3      H1            -15.5940849752       -1.4263693232      -29.9388271492  WZ1       1158            0.0000000000
      1020       340  TIP3      H2            -14.2161149752       -1.3888793232      -30.5646571492  WZ1       1158            0.0000000000
      1021       341  TIP3      OH2           -15.4735749752        0.7137306768      -18.6361671492  WZ1       1159            0.0000000000
      1022       341  TIP3      H1            -14.9333549752        0.4971306768      -17.8762471492  WZ1       1159            0.0000000000
      1023       341  TIP3      H2            -15.9547749752       -0.0916693232      -18.8259171492  WZ1       1159            0.0000000000
      1024       342  TIP3      OH2           -10.8762349752       -0.3668293232      -17.0157471492  WZ1       1160            0.0000000000
      1025       342  TIP3      H1            -10.1085149752       -0.8257493232      -16.6748271492  WZ1       1160            0.0000000000
      1026       342  TIP3      H2            -10.8976149752       -0.5928493232      -17.9456271492  WZ1       1160            0.0000000000
      1027       343  TIP3      OH2            -4.2993649752       -1.9867193232      -18.2865971492  WZ1       1162            0.0000000000
      1028       343  TIP3      H1             -4.6504149752       -2.8434193232      -18.0435571492  WZ1       1162            0.0000000000
      1029       343  TIP3      H2             -3.5730449752       -1.8440493232      -17.6796971492  WZ1       1162            0.0000000000
      1030       344  TIP3      OH2            -2.1799849752       -1.0417793232      -35.4067671492  WZ1       1163            0.0000000000
      1031       344  TIP3      H1             -1.8969449752       -1.8362593232      -34.9540771492  WZ1       1163            0.0000000000
      1032       344  TIP3      H2             -1.4401949752       -0.8086793232      -35.9676571492  WZ1       1163            0.0000000000
      1033       345  TIP3      OH2           -15.5666249752       -5.4758593232      -17.6817371492  WZ1       1164            0.0000000000
      1034       345  TIP3      H1            -15.4225749752       -6.3777893232      -17.9680671492  WZ1       1164            0.0000000000
      1035       345  TIP3      H2            -16.3388849752       -5.1896493232      -18.1695071492  WZ1       1164            0.0000000000
      1036       346  TIP3      OH2            -8.9110149752       -5.5060493232      -18.2490971492  WZ1       1166            0.0000000000
      1037       346  TIP3      H1             -9.2396349752       -5.2352393232      -19.1063571492  WZ1       1166            0.0000000000
      1038       346  TIP3      H2             -8.7591949752       -6.4470693232      -18.3365971492  WZ1       1166            0.0000000000
      1039       347  TIP3      OH2            -3.1764949752       -5.5903193232      -20.8658671492  WZ1       1168            0.0000000000
      1040       347  TIP3      H1             -2.4310149752       -5.0019493232      -20.9854671492  WZ1       1168            0.0000000000
      1041       347  TIP3      H2             -3.9338149752       -5.0083493232      -20.8025571492  WZ1       1168            0.0000000000
      1042       348  TIP3      OH2           -14.7339749752       -8.2755293232      -18.2618071492  WZ1       1169            0.0000000000
      1043       348  TIP3      H1            -14.3258549752       -9.1328693232      -18.3827471492  WZ1       1169            0.0000000000
      1044       348  TIP3      H2            -14.9942149752       -8.2613993232      -17.3407771492  WZ1       1169            0.0000000000
      1045       349  TIP3      OH2           -10.7869449752       -9.2669593232      -20.8875171492  WZ1       1171            0.0000000000
      1046       349  TIP3      H1            -11.4053349752       -8.5922993232      -20.6070471492  WZ1       1171            0.0000000000
      1047       349  TIP3      H2            -10.4428249752       -8.9455693232      -21.7208971492  WZ1       1171            0.0000000000
      1048       350  TIP3      OH2            -5.7671249752       -6.7954293232      -17.6100371492  WZ1       1173            0.0000000000
      1049       350  TIP3      H1             -4.8140049752       -6.7115193232      -17.6374371492  WZ1       1173            0.0000000000
      1050       350  TIP3      H2             -5.9276649752       -7.5072493232      -16.9905471492  WZ1       1173            0.0000000000
      1051       351  TIP3      OH2             0.3849950248       -6.5620693232      -35.5353471492  WZ1       1174            0.0000000000
      1052       351  TIP3      H1              0.1114750248       -6.9865193232      -36.3485171492  WZ1       1174            0.0000000000
      1053       351  TIP3      H2              0.4244050248       -5.6306193232      -35.7523071492  WZ1       1174            0.0000000000
      1054       352  TIP3      OH2           -10.4475749752      -11.9118793232      -19.8052071492  WZ1       1175            0.0000000000
      1055       352  TIP3      H1            -10.2974849752      -12.6407493232      -20.4072371492  WZ1       1175            0.0000000000
      1056       352  TIP3      H2            -10.4453349752      -11.1347093232      -20.3639871492  WZ1       1175            0.0000000000
      1057       353  TIP3      OH2           -10.0350049752      -13.5422993232      -22.3124671492  WZ1       1176            0.0000000000
      1058       353  TIP3      H1             -9.4992549752      -13.0906293232      -22.9645371492  WZ1       1176            0.0000000000
      1059       353  TIP3      H2            -10.8870449752      -13.6503193232      -22.7350571492  WZ1       1176            0.0000000000
      1060       354  TIP3      OH2            -8.4531649752       -8.1026793232      -22.0729471492  WZ1       1177            0.0000000000
      1061       354  TIP3      H1             -7.7026849752       -8.2589293232      -22.6461671492  WZ1       1177            0.0000000000
      1062       354  TIP3      H2             -8.7923349752       -7.2510193232      -22.3483971492  WZ1       1177            0.0000000000
      1063       355  TIP3      OH2            -4.0375449752      -10.2874993232      -17.0444171492  WZ1       1178            0.0000000000
      1064       355  TIP3      H1             -3.8454149752      -11.2185593232      -17.1559671492  WZ1       1178            0.0000000000
      1065       355  TIP3      H2             -3.1799149752       -9.8625493232      -17.0548771492  WZ1       1178            0.0000000000
      1066       356  TIP3      OH2            -2.7208249752       -7.4989793232      -18.9671471492  WZ1       1179            0.0000000000
      1067       356  TIP3      H1             -3.0023249752       -6.7895193232      -19.5447671492  WZ1       1179            0.0000000000
      1068       356  TIP3      H2             -1.7783949752       -7.5716793232      -19.1180271492  WZ1       1179            0.0000000000
      1069       357  TIP3      OH2           -11.9689449752      -10.7135293232      -17.8936471492  WZ1       1180            0.0000000000
      1070       357  TIP3      H1            -12.7360449752      -11.2460493232      -18.1038871492  WZ1       1180            0.0000000000
      1071       357  TIP3      H2            -11.2900449752      -11.0234893232      -18.4930171492  WZ1       1180            0.0000000000
      1072       358  TIP3      OH2            -9.2294549752      -16.0857293232      -21.8811071492  WZ1       1181            0.0000000000
      1073       358  TIP3      H1             -9.3274949752      -15.1394093232      -21.9864871492  WZ1       1181            0.0000000000
      1074       358  TIP3      H2             -9.9718349752      -16.4583493232      -22.3567571492  WZ1       1181            0.0000000000
      1075       359  TIP3      OH2            -7.9654049752      -11.7641893232      -18.3172671492  WZ1       1182            0.0000000000
      1076       359  TIP3      H1             -8.2008649752      -11.9835193232      -17.4157771492  WZ1       1182            0.0000000000
      1077       359  TIP3      H2             -8.7487149752      -11.9710693232      -18.8270171492  WZ1       1182            0.0000000000
      1078       360  TIP3      OH2            -5.2497449752      -12.6368393232      -19.2419171492  WZ1       1183            0.0000000000
      1079       360  TIP3      H1             -6.1972049752      -12.6048693232      -19.1095871492  WZ1       1183            0.0000000000
      1080       360  TIP3      H2             -4.9370749752      -13.2621293232      -18.5880971492  WZ1       1183            0.0000000000
      1081       361  TIP3      OH2            -3.6155949752      -14.0027293232      -17.2367271492  WZ1       1184            0.0000000000
      1082       361  TIP3      H1             -3.7124149752      -14.9549993232      -17.2425371492  WZ1       1184            0.0000000000
      1083       361  TIP3      H2             -3.9372849752      -13.7340493232      -16.3761771492  WZ1       1184            0.0000000000
      1084       362  TIP3      OH2           -13.7886649752      -12.7931493232      -18.1891771492  WZ1       1185            0.0000000000
      1085       362  TIP3      H1            -13.5769249752      -13.4995393232      -18.7994271492  WZ1       1185            0.0000000000
      1086       362  TIP3      H2            -13.8999149752      -13.2305493232      -17.3450571492  WZ1       1185            0.0000000000
      1087       363  TIP3      OH2            -9.0076449752      -16.7919893232      -19.2098271492  WZ1       1186            0.0000000000
      1088       363  TIP3      H1             -8.2958049752      -17.4317693232      -19.2239171492  WZ1       1186            0.0000000000
      1089       363  TIP3      H2             -9.1086049752      -16.5251593232      -20.1235171492  WZ1       1186            0.0000000000
      1090       364  TIP3      OH2            -8.6538949752      -15.1091493232      -17.1561971492  WZ1       1187            0.0000000000
      1091       364  TIP3      H1             -8.7856749752      -15.5847693232      -17.9763471492  WZ1       1187            0.0000000000
      1092       364  TIP3      H2             -9.2531549752      -14.3647893232      -17.2114871492  WZ1       1187            0.0000000000
      1093       365  TIP3      OH2            -9.1076649752        1.7738806768      -33.9797971492  WZ1       1188            0.0000000000
      1094       365  TIP3      H1             -8.1745949752        1.9317506768      -33.8359571492  WZ1       1188            0.0000000000
      1095       365  TIP3      H2             -9.3717849752        2.4491806768      -34.6046471492  WZ1       1188            0.0000000000
      1096       366  TIP3      OH2           -16.8901149752        1.8031106768      -29.4195971492  WZ1       1190            0.0000000000
      1097       366  TIP3      H1            -17.5374049752        1.3412806768      -29.9524771492  WZ1       1190            0.0000000000
      1098       366  TIP3      H2            -16.5356549752        1.1314406768      -28.8369771492  WZ1       1190            0.0000000000
      1099       367  TIP3      OH2           -16.0201949752       -0.1161893232      -27.6149771492  WZ1       1191            0.0000000000
      1100       367  TIP3      H1            -16.3545149752       -0.9964593232      -27.4429571492  WZ1       1191            0.0000000000
      1101       367  TIP3      H2            -15.7979549752        0.2293106768      -26.7504171492  WZ1       1191            0.0000000000
      1102       368  TIP3      OH2             1.5282850248        0.6934506768      -24.6344971492  WZ1       1192            0.0000000000
      1103       368  TIP3      H1              1.5069550248        0.8782906768      -23.6955571492  WZ1       1192            0.0000000000
      1104       368  TIP3      H2              2.2189050248        1.2618506768      -24.9753571492  WZ1       1192            0.0000000000
      1105       369  TIP3      OH2             1.0915750248        0.2605606768      -21.7125871492  WZ1       1193            0.0000000000
      1106       369  TIP3      H1              0.6044450248       -0.4750293232      -22.0838471492  WZ1       1193            0.0000000000
      1107       369  TIP3      H2              1.6408450248       -0.1330493232      -21.0346471492  WZ1       1193            0.0000000000
      1108       370  TIP3      OH2            -0.4576949752       -3.9496293232      -17.0745571492  WZ1       1194            0.0000000000
      1109       370  TIP3      H1             -1.3235849752       -4.0546593232      -16.6803271492  WZ1       1194            0.0000000000
      1110       370  TIP3      H2             -0.0811049752       -3.1912993232      -16.6280871492  WZ1       1194            0.0000000000
      1111       371  TIP3      OH2             0.8432750248       -5.6932593232      -31.5603071492  WZ1       1195            0.0000000000
      1112       371  TIP3      H1              1.6934150248       -5.2721693232      -31.4331471492  WZ1       1195            0.0000000000
      1113       371  TIP3      H2              0.8487850248       -6.4332493232      -30.9531671492  WZ1       1195            0.0000000000
      1114       372  TIP3      OH2             1.2378350248       -7.6395193232      -29.7367371492  WZ1       1196            0.0000000000
      1115       372  TIP3      H1              0.5112950248       -8.1192593232      -29.3389771492  WZ1       1196            0.0000000000
      1116       372  TIP3      H2              1.8191650248       -7.4340493232      -29.0045771492  WZ1       1196            0.0000000000
      1117       373  TIP3      OH2             0.9969550248       -4.8547693232      -24.7889771492  WZ1       1197            0.0000000000
      1118       373  TIP3      H1              1.8303750248       -5.2327693232      -25.0696171492  WZ1       1197            0.0000000000
      1119       373  TIP3      H2              1.1089850248       -3.9116493232      -24.9080671492  WZ1       1197            0.0000000000
      1120       374  TIP3      OH2            -0.5168149752       -1.9770193232      -22.4821371492  WZ1       1198            0.0000000000
      1121       374  TIP3      H1             -1.1642849752       -1.6518693232      -21.8566171492  WZ1       1198            0.0000000000
      1122       374  TIP3      H2             -1.0344149752       -2.4172493232      -23.1563071492  WZ1       1198            0.0000000000
      1123       375  TIP3      OH2             1.5061450248       -7.7386693232      -33.3456071492  WZ1       1199            0.0000000000
      1124       375  TIP3      H1              0.9842550248       -7.3822593232      -34.0645171492  WZ1       1199            0.0000000000
      1125       375  TIP3      H2              1.4730650248       -7.0638893232      -32.6675171492  WZ1       1199            0.0000000000
      1126       376  TIP3      OH2            -0.1449549752      -10.4991093232      -34.7948971492  WZ1       1200            0.0000000000
      1127       376  TIP3      H1             -0.0485149752       -9.8324093232      -35.4749271492  WZ1       1200            0.0000000000
      1128       376  TIP3      H2             -0.2849949752      -11.3144793232      -35.2763471492  WZ1       1200            0.0000000000
      1129       377  TIP3      OH2            -0.9754849752       -9.1188693232      -29.1738671492  WZ1       1201            0.0000000000
      1130       377  TIP3      H1             -1.1256049752      -10.0640093232      -29.1940871492  WZ1       1201            0.0000000000
      1131       377  TIP3      H2             -1.3290349752       -8.8377293232      -28.3299571492  WZ1       1201            0.0000000000
      1132       378  TIP3      OH2           -15.9402449752       -7.0406493232      -25.1634871492  WZ1       1202            0.0000000000
      1133       378  TIP3      H1            -15.7559549752       -7.1224793232      -26.0991971492  WZ1       1202            0.0000000000
      1134       378  TIP3      H2            -15.0909549752       -7.1649493232      -24.7398471492  WZ1       1202            0.0000000000
      1135       379  TIP3      OH2            -0.1191949752       -7.1485393232      -19.5350371492  WZ1       1203            0.0000000000
      1136       379  TIP3      H1              0.4635350248       -7.8833093232      -19.3433171492  WZ1       1203            0.0000000000
      1137       379  TIP3      H2              0.4447350248       -6.3765093232      -19.4884571492  WZ1       1203            0.0000000000
      1138       380  TIP3      OH2             1.3775150248       -9.2459593232      -18.8504971492  WZ1       1204            0.0000000000
      1139       380  TIP3      H1              0.5141850248       -9.6247493232      -19.0160271492  WZ1       1204            0.0000000000
      1140       380  TIP3      H2              1.9818850248       -9.9844793232      -18.9249171492  WZ1       1204            0.0000000000
      1141       381  TIP3      OH2            -1.2650049752      -11.5362893232      -30.7113571492  WZ1       1206            0.0000000000
      1142       381  TIP3      H1             -0.9852949752      -12.4432493232      -30.5871871492  WZ1       1206            0.0000000000
      1143       381  TIP3      H2             -0.5058349752      -11.1021393232      -31.1004371492  WZ1       1206            0.0000000000
      1144       382  TIP3      OH2            -0.6531749752      -10.9545493232      -25.2754671492  WZ1       1207            0.0000000000
      1145       382  TIP3      H1              0.2796250248      -10.7425593232      -25.3098671492  WZ1       1207            0.0000000000
      1146       382  TIP3      H2             -0.8884249752      -10.8533393232      -24.3531671492  WZ1       1207            0.0000000000
      1147       383  TIP3      OH2            -0.6239849752      -10.2180193232      -22.4995271492  WZ1       1208            0.0000000000
      1148       383  TIP3      H1             -1.4668549752       -9.9499793232      -22.1335471492  WZ1       1208            0.0000000000
      1149       383  TIP3      H2             -0.1815549752       -9.3958293232      -22.7104171492  WZ1       1208            0.0000000000
      1150       384  TIP3      OH2           -16.3427649752      -11.7701493232      -19.0226071492  WZ1       1209            0.0000000000
      1151       384  TIP3      H1            -15.4232749752      -11.8923193232      -18.7862971492  WZ1       1209            0.0000000000
      1152       384  TIP3      H2            -16.7923149752      -12.5201793232      -18.6332571492  WZ1       1209            0.0000000000
      1153       385  TIP3      OH2             1.6591750248      -16.2379993232      -17.1460271492  WZ1       1210            0.0000000000
      1154       385  TIP3      H1              2.0088750248      -16.8916493232      -17.7515571492  WZ1       1210            0.0000000000
      1155       385  TIP3      H2              1.8061250248      -15.4005893232      -17.5857671492  WZ1       1210            0.0000000000
      1156       386  TIP3      OH2            -0.6515249752      -14.2733593232      -30.6631571492  WZ1       1211            0.0000000000
      1157       386  TIP3      H1             -0.4690249752      -14.7222093232      -29.8376571492  WZ1       1211            0.0000000000
      1158       386  TIP3      H2             -1.2512349752      -14.8579193232      -31.1266971492  WZ1       1211            0.0000000000
      1159       387  TIP3      OH2           -16.8174849752      -10.4586893232      -25.0622971492  WZ1       1213            0.0000000000
      1160       387  TIP3      H1            -16.3255049752      -10.6796393232      -25.8530971492  WZ1       1213            0.0000000000
      1161       387  TIP3      H2            -16.4553949752       -9.6183493232      -24.7813471492  WZ1       1213            0.0000000000
      1162       388  TIP3      OH2             1.1788950248      -14.1285393232      -18.7968971492  WZ1       1214            0.0000000000
      1163       388  TIP3      H1              0.2614650248      -13.8578293232      -18.8325471492  WZ1       1214            0.0000000000
      1164       388  TIP3      H2              1.3018350248      -14.6636993232      -19.5809271492  WZ1       1214            0.0000000000
      1165       389  TIP3      OH2             1.2150950248      -14.2055493232      -34.1351271492  WZ1       1215            0.0000000000
      1166       389  TIP3      H1              1.6273550248      -14.9269793232      -34.6103271492  WZ1       1215            0.0000000000
      1167       389  TIP3      H2              1.8967450248      -13.5360893232      -34.0766971492  WZ1       1215            0.0000000000
      1168       390  TIP3      OH2            -1.7331149752        0.7833906768      -29.0623171492  WZ1       1217            0.0000000000
      1169       390  TIP3      H1             -1.0808249752        0.4356006768      -29.6704071492  WZ1       1217            0.0000000000
      1170       390  TIP3      H2             -1.2227349752        1.2717106768      -28.4163471492  WZ1       1217            0.0000000000
      1171       391  TIP3      OH2           -16.5402949752      -15.4628793232      -22.6638071492  WZ1       1218            0.0000000000
      1172       391  TIP3      H1            -17.2052449752      -15.7088493232      -22.0207171492  WZ1       1218            0.0000000000
      1173       391  TIP3      H2            -16.9831649752      -14.8408393232      -23.2410071492  WZ1       1218            0.0000000000
      1174       392  TIP3      OH2           -14.3483649752       -2.2874693232      -18.5192271492  WZ1       1219            0.0000000000
      1175       392  TIP3      H1            -15.1691149752       -2.1128193232      -18.9797571492  WZ1       1219            0.0000000000
      1176       392  TIP3      H2            -14.6005849752       -2.3609993232      -17.5987871492  WZ1       1219            0.0000000000
      1177       393  TIP3      OH2           -11.3940749752       -1.3133493232      -22.2608271492  WZ1       1220            0.0000000000
      1178       393  TIP3      H1            -11.8189649752       -0.5034993232      -22.5433671492  WZ1       1220            0.0000000000
      1179       393  TIP3      H2            -10.4897949752       -1.2279393232      -22.5628471492  WZ1       1220            0.0000000000
      1180       394  TIP3      OH2            -7.0829349752        0.0856506768      -19.3014571492  WZ1       1221            0.0000000000
      1181       394  TIP3      H1             -6.8981849752       -0.2477393232      -18.4234271492  WZ1       1221            0.0000000000
      1182       394  TIP3      H2             -6.2364849752        0.3955106768      -19.6235371492  WZ1       1221            0.0000000000
      1183       395  TIP3      OH2            -4.7378949752        1.3715406768      -20.0573171492  WZ1       1222            0.0000000000
      1184       395  TIP3      H1             -4.0610049752        0.7387706768      -20.2973971492  WZ1       1222            0.0000000000
      1185       395  TIP3      H2             -4.4160149752        1.7725906768      -19.2499871492  WZ1       1222            0.0000000000
      1186       396  TIP3      OH2             0.1794850248      -16.0389093232      -20.9778171492  WZ1       1223            0.0000000000
      1187       396  TIP3      H1             -0.6331649752      -15.7138793232      -21.3653471492  WZ1       1223            0.0000000000
      1188       396  TIP3      H2              0.4123350248      -16.7990593232      -21.5109071492  WZ1       1223            0.0000000000
      1189       397  TIP3      OH2           -13.9924049752        1.9430406768      -22.2132971492  WZ1       1224            0.0000000000
      1190       397  TIP3      H1            -14.7127649752        2.3831406768      -22.6645271492  WZ1       1224            0.0000000000
      1191       397  TIP3      H2            -14.3580049752        1.6925106768      -21.3648971492  WZ1       1224            0.0000000000
      1192       398  TIP3      OH2           -11.5251449752        1.5434306768      -23.1835771492  WZ1       1225            0.0000000000
      1193       398  TIP3      H1            -12.3899249752        1.6152806768      -22.7795671492  WZ1       1225            0.0000000000
      1194       398  TIP3      H2            -11.5802449752        2.0901606768      -23.9673271492  WZ1       1225            0.0000000000
      1195       399  TIP3      OH2            -6.8145849752        1.4313206768      -24.0079771492  WZ1       1226            0.0000000000
      1196       399  TIP3      H1             -7.2711849752        1.9602906768      -24.6621371492  WZ1       1226            0.0000000000
      1197       399  TIP3      H2             -6.6517849752        2.0344606768      -23.2827471492  WZ1       1226            0.0000000000
      1198       400  TIP3      OH2            -4.4869549752        0.3092806768      -23.0629471492  WZ1       1227            0.0000000000
      1199       400  TIP3      H1             -5.3915849752        0.4743006768      -23.3287371492  WZ1       1227            0.0000000000
      1200       400  TIP3      H2             -4.0580949752        1.1625006768      -23.1286071492  WZ1       1227            0.0000000000
      1201       401  TIP3      OH2            -1.8827649752        1.8791906768      -22.7681671492  WZ1       1228            0.0000000000
      1202       401  TIP3      H1             -2.0645649752        2.7950806768      -22.9786771492  WZ1       1228            0.0000000000
      1203       401  TIP3      H2             -1.7059849752        1.4689006768      -23.6147071492  WZ1       1228            0.0000000000
      1204       402  TIP3      OH2           -14.5775949752        0.5662906768      -25.3031171492  WZ1       1229            0.0000000000
      1205       402  TIP3      H1            -14.5959949752        0.1408006768      -24.4458871492  WZ1       1229            0.0000000000
      1206       402  TIP3      H2            -13.7728049752        0.2477906768      -25.7118971492  WZ1       1229            0.0000000000
      1207       403  TIP3      OH2           -12.4362849752       -0.7238393232      -26.6481271492  WZ1       1230            0.0000000000
      1208       403  TIP3      H1            -12.6552149752       -1.6400993232      -26.4785271492  WZ1       1230            0.0000000000
      1209       403  TIP3      H2            -11.6120649752       -0.5837993232      -26.1819871492  WZ1       1230            0.0000000000
      1210       404  TIP3      OH2            -9.8990349752       -0.2539093232      -25.7993271492  WZ1       1231            0.0000000000
      1211       404  TIP3      H1             -9.6864649752       -1.1420093232      -26.0862371492  WZ1       1231            0.0000000000
      1212       404  TIP3      H2             -9.8345249752       -0.2881393232      -24.8449271492  WZ1       1231            0.0000000000
      1213       405  TIP3      OH2            -6.3906649752      -14.5898493232      -26.6549971492  WZ1       1232            0.0000000000
      1214       405  TIP3      H1             -7.0649849752      -15.2192893232      -26.3994171492  WZ1       1232            0.0000000000
      1215       405  TIP3      H2             -5.8267449752      -15.0739593232      -27.2582071492  WZ1       1232            0.0000000000
      1216       406  TIP3      OH2            -1.2479449752      -16.4824493232      -26.5422871492  WZ1       1233            0.0000000000
      1217       406  TIP3      H1             -0.6441849752      -15.9349093232      -27.0441871492  WZ1       1233            0.0000000000
      1218       406  TIP3      H2             -2.1177449752      -16.1634093232      -26.7828771492  WZ1       1233            0.0000000000
      1219       407  TIP3      OH2             0.4790950248      -15.3435793232      -28.2091971492  WZ1       1234            0.0000000000
      1220       407  TIP3      H1              1.0908450248      -15.8580093232      -28.7358371492  WZ1       1234            0.0000000000
      1221       407  TIP3      H2              0.8614350248      -14.4663693232      -28.1857571492  WZ1       1234            0.0000000000
      1222       408  TIP3      OH2            -3.9278149752      -15.9991293232      -27.3705271492  WZ1       1238            0.0000000000
      1223       408  TIP3      H1             -3.8516549752      -15.9039693232      -28.3199271492  WZ1       1238            0.0000000000
      1224       408  TIP3      H2             -4.2028949752      -16.9068393232      -27.2416171492  WZ1       1238            0.0000000000
      1225       409  TIP3      OH2            -6.4622749752        0.9997006768      -33.7342671492  WZ1       1243            0.0000000000
      1226       409  TIP3      H1             -5.5962549752        1.3664406768      -33.9124471492  WZ1       1243            0.0000000000
      1227       409  TIP3      H2             -6.7089949752        0.5605006768      -34.5481871492  WZ1       1243            0.0000000000
      1228       410  TIP3      OH2             0.2466850248        0.5627306768      -31.0551571492  WZ1       1244            0.0000000000
      1229       410  TIP3      H1              0.0523950248       -0.1850593232      -31.6201971492  WZ1       1244            0.0000000000
      1230       410  TIP3      H2              0.2076950248        1.3207406768      -31.6383671492  WZ1       1244            0.0000000000
      1231       411  TIP3      OH2           -14.1061149752      -15.4416293232      -19.3153871492  WZ1       1245            0.0000000000
      1232       411  TIP3      H1            -14.4722949752      -16.2073693232      -18.8729171492  WZ1       1245            0.0000000000
      1233       411  TIP3      H2            -13.1932649752      -15.4126093232      -19.0288771492  WZ1       1245            0.0000000000
      1234       412  TIP3      OH2           -12.1330349752      -16.0911893232      -17.7796771492  WZ1       1246            0.0000000000
      1235       412  TIP3      H1            -11.2346749752      -16.3651693232      -17.9643371492  WZ1       1246            0.0000000000
      1236       412  TIP3      H2            -12.5197249752      -16.8335893232      -17.3154171492  WZ1       1246            0.0000000000
      1237       413  TIP3      OH2            -3.7118049752      -16.7586593232      -17.5973971492  WZ1       1248            0.0000000000
      1238       413  TIP3      H1             -3.6350849752      -17.1845893232      -16.7436271492  WZ1       1248            0.0000000000
      1239       413  TIP3      H2             -2.8181449752      -16.7451893232      -17.9400471492  WZ1       1248            0.0000000000
      1240       414  TIP3      OH2            -0.5356949752       -0.6860293232      -18.9049771492  WZ1       1249            0.0000000000
      1241       414  TIP3      H1             -1.3175049752       -0.8722293232      -19.4249171492  WZ1       1249            0.0000000000
      1242       414  TIP3      H2             -0.6077049752        0.2434006768      -18.6877271492  WZ1       1249            0.0000000000
      1243       415  TIP3      OH2            13.8703450248       -6.7995893232      -28.8742571492  WZ1       1250            0.0000000000
      1244       415  TIP3      H1             13.9594550248       -5.8557693232      -29.0065471492  WZ1       1250            0.0000000000
      1245       415  TIP3      H2             13.2321050248       -7.0749493232      -29.5323171492  WZ1       1250            0.0000000000
      1246       416  TIP3      OH2            12.8034750248       -7.5445193232      -25.4554371492  WZ1       1251            0.0000000000
      1247       416  TIP3      H1             12.7652250248       -8.1908893232      -24.7504771492  WZ1       1251            0.0000000000
      1248       416  TIP3      H2             12.4811250248       -8.0110793232      -26.2265671492  WZ1       1251            0.0000000000
      1249       417  TIP3      OH2             5.1719750248       -7.9303093232      -23.8624471492  WZ1       1252            0.0000000000
      1250       417  TIP3      H1              5.2131850248       -8.5559793232      -23.1392071492  WZ1       1252            0.0000000000
      1251       417  TIP3      H2              5.8747450248       -7.3064493232      -23.6804071492  WZ1       1252            0.0000000000
      1252       418  TIP3      OH2            16.5094950248       -4.6054793232      -27.1539271492  WZ1       1253            0.0000000000
      1253       418  TIP3      H1             16.0687650248       -5.3258793232      -26.7033671492  WZ1       1253            0.0000000000
      1254       418  TIP3      H2             16.4964650248       -3.8847593232      -26.5241571492  WZ1       1253            0.0000000000
      1255       419  TIP3      OH2             6.0952850248       -3.4804193232      -25.3275371492  WZ1       1254            0.0000000000
      1256       419  TIP3      H1              5.7258050248       -4.2823693232      -25.6971071492  WZ1       1254            0.0000000000
      1257       419  TIP3      H2              7.0363950248       -3.6489293232      -25.2811971492  WZ1       1254            0.0000000000
      1258       420  TIP3      OH2             2.7053350248       -9.8201593232      -29.9346571492  WZ1       1255            0.0000000000
      1259       420  TIP3      H1              2.2576750248       -8.9742893232      -29.9530071492  WZ1       1255            0.0000000000
      1260       420  TIP3      H2              2.1444550248      -10.3997393232      -30.4501471492  WZ1       1255            0.0000000000
      1261       421  TIP3      OH2             3.4159450248       -7.6581993232      -27.8088571492  WZ1       1256            0.0000000000
      1262       421  TIP3      H1              3.6292950248       -8.4280393232      -27.2815571492  WZ1       1256            0.0000000000
      1263       421  TIP3      H2              4.1537050248       -7.5685293232      -28.4120971492  WZ1       1256            0.0000000000
      1264       422  TIP3      OH2            13.6210450248        0.4986906768      -26.9418871492  WZ1       1257            0.0000000000
      1265       422  TIP3      H1             14.2406850248       -0.1778393232      -27.2149671492  WZ1       1257            0.0000000000
      1266       422  TIP3      H2             13.4127850248        0.2807706768      -26.0333971492  WZ1       1257            0.0000000000
      1267       423  TIP3      OH2            11.1929150248       -5.1123793232      -25.0493371492  WZ1       1258            0.0000000000
      1268       423  TIP3      H1             11.4967050248       -5.7982393232      -25.6439271492  WZ1       1258            0.0000000000
      1269       423  TIP3      H2             11.9143150248       -4.9935093232      -24.4315371492  WZ1       1258            0.0000000000
      1270       424  TIP3      OH2            19.8558950248      -13.5108493232      -24.1887171492  WZ1       1259            0.0000000000
      1271       424  TIP3      H1             19.9051150248      -12.9007293232      -23.4528071492  WZ1       1259            0.0000000000
      1272       424  TIP3      H2             20.2814050248      -13.0497593232      -24.9116071492  WZ1       1259            0.0000000000
      1273       425  TIP3      OH2            14.3336150248      -10.7181393232      -24.7218571492  WZ1       1260            0.0000000000
      1274       425  TIP3      H1             14.4762050248      -11.6644393232      -24.7016971492  WZ1       1260            0.0000000000
      1275       425  TIP3      H2             14.2275150248      -10.5111593232      -25.6503671492  WZ1       1260            0.0000000000
      1276       426  TIP3      OH2             7.4884450248      -12.6164993232      -27.4493771492  WZ1       1261            0.0000000000
      1277       426  TIP3      H1              7.5315550248      -11.7566493232      -27.8677471492  WZ1       1261            0.0000000000
      1278       426  TIP3      H2              7.0308550248      -13.1690293232      -28.0830571492  WZ1       1261            0.0000000000
      1279       427  TIP3      OH2            15.2107150248      -12.4859393232      -29.0485471492  WZ1       1262            0.0000000000
      1280       427  TIP3      H1             15.8571450248      -12.8146193232      -28.4237871492  WZ1       1262            0.0000000000
      1281       427  TIP3      H2             15.7206550248      -11.9680393232      -29.6714071492  WZ1       1262            0.0000000000
      1282       428  TIP3      OH2             4.1085950248      -10.2199193232      -26.6872371492  WZ1       1263            0.0000000000
      1283       428  TIP3      H1              4.7622550248      -10.7697493232      -26.2552271492  WZ1       1263            0.0000000000
      1284       428  TIP3      H2              4.1325250248      -10.4940193232      -27.6040371492  WZ1       1263            0.0000000000
      1285       429  TIP3      OH2             9.2650450248       -8.6697893232      -27.4720871492  WZ1       1264            0.0000000000
      1286       429  TIP3      H1              9.8811450248       -9.1962493232      -26.9626871492  WZ1       1264            0.0000000000
      1287       429  TIP3      H2              8.6789250248       -9.3099193232      -27.8757271492  WZ1       1264            0.0000000000
      1288       430  TIP3      OH2            20.2473550248      -12.0329293232      -21.9527371492  WZ1       1265            0.0000000000
      1289       430  TIP3      H1             19.5588150248      -11.3748593232      -22.0480771492  WZ1       1265            0.0000000000
      1290       430  TIP3      H2             20.2628150248      -12.2301393232      -21.0161971492  WZ1       1265            0.0000000000
      1291       431  TIP3      OH2             6.2986350248      -13.6986593232      -23.3752971492  WZ1       1266            0.0000000000
      1292       431  TIP3      H1              6.0798050248      -13.1685993232      -24.1416971492  WZ1       1266            0.0000000000
      1293       431  TIP3      H2              5.6307250248      -13.4721093232      -22.7281571492  WZ1       1266            0.0000000000
      1294       432  TIP3      OH2            13.6676150248       -4.1985493232      -29.8313871492  WZ1       1267            0.0000000000
      1295       432  TIP3      H1             13.3721250248       -4.5213193232      -30.6826971492  WZ1       1267            0.0000000000
      1296       432  TIP3      H2             13.3433950248       -3.2988793232      -29.7901271492  WZ1       1267            0.0000000000
      1297       433  TIP3      OH2             8.8677750248       -6.0230893232      -23.0879271492  WZ1       1268            0.0000000000
      1298       433  TIP3      H1              8.1276850248       -5.4249393232      -22.9844071492  WZ1       1268            0.0000000000
      1299       433  TIP3      H2              9.5817250248       -5.4691293232      -23.4035671492  WZ1       1268            0.0000000000
      1300       434  TIP3      OH2            16.9745550248      -13.1950093232      -27.0679571492  WZ1       1269            0.0000000000
      1301       434  TIP3      H1             16.7593550248      -13.9606693232      -26.5353571492  WZ1       1269            0.0000000000
      1302       434  TIP3      H2             17.6302950248      -12.7225493232      -26.5551071492  WZ1       1269            0.0000000000
      1303       435  TIP3      OH2             5.8923650248      -11.8064793232      -25.4230771492  WZ1       1270            0.0000000000
      1304       435  TIP3      H1              6.5059950248      -11.1737193232      -25.0498371492  WZ1       1270            0.0000000000
      1305       435  TIP3      H2              6.4044350248      -12.2789793232      -26.0793871492  WZ1       1270            0.0000000000
      1306       436  TIP3      OH2             7.2752050248       -4.0587893232      -22.3007771492  WZ1       1271            0.0000000000
      1307       436  TIP3      H1              7.2699650248       -3.1794393232      -22.6788471492  WZ1       1271            0.0000000000
      1308       436  TIP3      H2              6.4216150248       -4.1423793232      -21.8757871492  WZ1       1271            0.0000000000
      1309       437  TIP3      OH2             3.3962950248       -4.3879993232      -31.5188471492  WZ1       1272            0.0000000000
      1310       437  TIP3      H1              3.1243850248       -4.1588993232      -32.4075571492  WZ1       1272            0.0000000000
      1311       437  TIP3      H2              3.4418650248       -3.5501193232      -31.0583171492  WZ1       1272            0.0000000000
      1312       438  TIP3      OH2            17.0212650248       -2.7664093232      -24.8059971492  WZ1       1273            0.0000000000
      1313       438  TIP3      H1             16.0796350248       -2.7080193232      -24.6443071492  WZ1       1273            0.0000000000
      1314       438  TIP3      H2             17.2978750248       -1.8603593232      -24.9430271492  WZ1       1273            0.0000000000
      1315       439  TIP3      OH2            17.3219650248      -14.4798793232      -23.3886071492  WZ1       1274            0.0000000000
      1316       439  TIP3      H1             16.5858850248      -13.8691693232      -23.4264771492  WZ1       1274            0.0000000000
      1317       439  TIP3      H2             18.0053650248      -14.0649793232      -23.9149671492  WZ1       1274            0.0000000000
      1318       440  TIP3      OH2            10.3251050248      -16.3931493232      -25.9228071492  WZ1       1275            0.0000000000
      1319       440  TIP3      H1             10.2075250248      -17.3415493232      -25.9769771492  WZ1       1275            0.0000000000
      1320       440  TIP3      H2              9.4701150248      -16.0605393232      -25.6496971492  WZ1       1275            0.0000000000
      1321       441  TIP3      OH2            15.2733850248       -0.9850593232      -28.1808371492  WZ1       1276            0.0000000000
      1322       441  TIP3      H1             15.6986150248       -1.6922693232      -28.6658771492  WZ1       1276            0.0000000000
      1323       441  TIP3      H2             15.5903850248       -0.1837893232      -28.5976171492  WZ1       1276            0.0000000000
      1324       442  TIP3      OH2            16.4330350248       -3.0842093232      -29.6721771492  WZ1       1277            0.0000000000
      1325       442  TIP3      H1             16.1755150248       -3.7741993232      -30.2835871492  WZ1       1277            0.0000000000
      1326       442  TIP3      H2             16.5041150248       -3.5270893232      -28.8265871492  WZ1       1277            0.0000000000
      1327       443  TIP3      OH2            18.1190550248       -4.5175393232      -21.1948271492  WZ1       1278            0.0000000000
      1328       443  TIP3      H1             18.2586850248       -5.1092893232      -21.9341271492  WZ1       1278            0.0000000000
      1329       443  TIP3      H2             18.2863350248       -3.6449493232      -21.5509471492  WZ1       1278            0.0000000000
      1330       444  TIP3      OH2            12.5915950248       -7.5555893232      -31.4222271492  WZ1       1279            0.0000000000
      1331       444  TIP3      H1             11.8801450248       -7.0206193232      -31.7741771492  WZ1       1279            0.0000000000
      1332       444  TIP3      H2             13.2825550248       -7.5003793232      -32.0823371492  WZ1       1279            0.0000000000
      1333       445  TIP3      OH2            12.6455150248       -9.0981593232      -34.3837271492  WZ1       1280            0.0000000000
      1334       445  TIP3      H1             13.3465050248       -9.0754693232      -33.7323271492  WZ1       1280            0.0000000000
      1335       445  TIP3      H2             12.9478050248       -9.7261893232      -35.0397971492  WZ1       1280            0.0000000000
      1336       446  TIP3      OH2            19.9609850248       -8.1777393232      -23.1287871492  WZ1       1281            0.0000000000
      1337       446  TIP3      H1             19.3083950248       -7.4831793232      -23.0396971492  WZ1       1281            0.0000000000
      1338       446  TIP3      H2             20.4260150248       -7.9676493232      -23.9386271492  WZ1       1281            0.0000000000
      1339       447  TIP3      OH2            15.9973650248       -7.3462593232      -30.4706371492  WZ1       1282            0.0000000000
      1340       447  TIP3      H1             15.2654650248       -7.1178893232      -29.8975771492  WZ1       1282            0.0000000000
      1341       447  TIP3      H2             16.4445850248       -8.0599893232      -30.0158871492  WZ1       1282            0.0000000000
      1342       448  TIP3      OH2            15.8947150248       -9.1719993232      -21.4029371492  WZ1       1283            0.0000000000
      1343       448  TIP3      H1             15.9746250248       -8.4085593232      -20.8310871492  WZ1       1283            0.0000000000
      1344       448  TIP3      H2             15.2934850248       -8.8927593232      -22.0934271492  WZ1       1283            0.0000000000
      1345       449  TIP3      OH2             7.6427350248       -6.7156393232      -28.5881371492  WZ1       1284            0.0000000000
      1346       449  TIP3      H1              7.3122550248       -7.0862993232      -29.4064371492  WZ1       1284            0.0000000000
      1347       449  TIP3      H2              8.2311450248       -7.3862393232      -28.2413071492  WZ1       1284            0.0000000000
      1348       450  TIP3      OH2             9.0094850248       -3.2875793232      -25.9069171492  WZ1       1285            0.0000000000
      1349       450  TIP3      H1              8.9146150248       -3.8662693232      -26.6634571492  WZ1       1285            0.0000000000
      1350       450  TIP3      H2              9.7388450248       -3.6590093232      -25.4106371492  WZ1       1285            0.0000000000
      1351       451  TIP3      OH2             8.0092850248       -7.9470793232      -24.9546371492  WZ1       1286            0.0000000000
      1352       451  TIP3      H1              8.5745350248       -7.8256593232      -25.7175171492  WZ1       1286            0.0000000000
      1353       451  TIP3      H2              8.3281750248       -7.3095793232      -24.3157871492  WZ1       1286            0.0000000000
      1354       452  TIP3      OH2            14.3185050248       -2.4438893232      -24.2205871492  WZ1       1287            0.0000000000
      1355       452  TIP3      H1             14.0781650248       -1.7815793232      -23.5726671492  WZ1       1287            0.0000000000
      1356       452  TIP3      H2             14.1203250248       -3.2783693232      -23.7956271492  WZ1       1287            0.0000000000
      1357       453  TIP3      OH2             8.8893550248       -3.5478093232      -20.2374471492  WZ1       1288            0.0000000000
      1358       453  TIP3      H1              8.5781050248       -2.7654893232      -19.7821271492  WZ1       1288            0.0000000000
      1359       453  TIP3      H2              8.2393750248       -3.7008993232      -20.9232471492  WZ1       1288            0.0000000000
      1360       454  TIP3      OH2            14.8683150248       -8.1839693232      -32.7855171492  WZ1       1289            0.0000000000
      1361       454  TIP3      H1             15.4478650248       -8.0339393232      -32.0386271492  WZ1       1289            0.0000000000
      1362       454  TIP3      H2             15.2823150248       -7.7132293232      -33.5088771492  WZ1       1289            0.0000000000
      1363       455  TIP3      OH2             5.8093450248       -7.3496993232      -21.0088771492  WZ1       1290            0.0000000000
      1364       455  TIP3      H1              5.8796650248       -6.6990193232      -20.3103771492  WZ1       1290            0.0000000000
      1365       455  TIP3      H2              4.9185650248       -7.2469493232      -21.3437871492  WZ1       1290            0.0000000000
      1366       456  TIP3      OH2            12.5948050248       -1.4471193232      -29.3502071492  WZ1       1291            0.0000000000
      1367       456  TIP3      H1             13.0685650248       -1.1514893232      -28.5727871492  WZ1       1291            0.0000000000
      1368       456  TIP3      H2             12.0317350248       -0.7089593232      -29.5832471492  WZ1       1291            0.0000000000
      1369       457  TIP3      OH2             7.1289450248       -1.4763093232      -19.4740671492  WZ1       1292            0.0000000000
      1370       457  TIP3      H1              7.1364750248       -1.6123393232      -20.4215171492  WZ1       1292            0.0000000000
      1371       457  TIP3      H2              6.2129850248       -1.5934993232      -19.2220671492  WZ1       1292            0.0000000000
      1372       458  TIP3      OH2             6.6330050248       -7.6462093232      -30.9988571492  WZ1       1294            0.0000000000
      1373       458  TIP3      H1              6.3411350248       -6.8780393232      -31.4897271492  WZ1       1294            0.0000000000
      1374       458  TIP3      H2              5.9585250248       -8.3055893232      -31.1617171492  WZ1       1294            0.0000000000
      1375       459  TIP3      OH2             2.7260150248       -5.2832893232      -22.1838771492  WZ1       1296            0.0000000000
      1376       459  TIP3      H1              2.2248550248       -5.3113493232      -22.9989071492  WZ1       1296            0.0000000000
      1377       459  TIP3      H2              2.7313850248       -6.1889693232      -21.8741471492  WZ1       1296            0.0000000000
      1378       460  TIP3      OH2             2.4762850248       -2.5029093232      -25.2998571492  WZ1       1297            0.0000000000
      1379       460  TIP3      H1              3.4223450248       -2.6472093232      -25.3189071492  WZ1       1297            0.0000000000
      1380       460  TIP3      H2              2.3639150248       -1.7186293232      -24.7627371492  WZ1       1297            0.0000000000
      1381       461  TIP3      OH2            20.6741350248       -1.8369393232      -19.6174871492  WZ1       1298            0.0000000000
      1382       461  TIP3      H1             20.6248150248       -2.7921293232      -19.6547271492  WZ1       1298            0.0000000000
      1383       461  TIP3      H2             19.8473650248       -1.5694093232      -19.2161071492  WZ1       1298            0.0000000000
      1384       462  TIP3      OH2            11.6525350248       -2.2630193232      -20.7413471492  WZ1       1299            0.0000000000
      1385       462  TIP3      H1             11.7399950248       -1.4365593232      -20.2664371492  WZ1       1299            0.0000000000
      1386       462  TIP3      H2             10.7890450248       -2.5926393232      -20.4924171492  WZ1       1299            0.0000000000
      1387       463  TIP3      OH2            12.0671150248        1.5093506768      -30.9352871492  WZ1       1300            0.0000000000
      1388       463  TIP3      H1             11.9917150248        1.3880706768      -31.8817671492  WZ1       1300            0.0000000000
      1389       463  TIP3      H2             12.0999850248        2.4586206768      -30.8168271492  WZ1       1300            0.0000000000
      1390       464  TIP3      OH2             5.7204950248        0.2980506768      -29.1543871492  WZ1       1301            0.0000000000
      1391       464  TIP3      H1              5.8725350248       -0.0499093232      -28.2757371492  WZ1       1301            0.0000000000
      1392       464  TIP3      H2              4.8695350248       -0.0582193232      -29.4096671492  WZ1       1301            0.0000000000
      1393       465  TIP3      OH2            14.8375250248        0.5890806768      -31.1838271492  WZ1       1303            0.0000000000
      1394       465  TIP3      H1             13.9025050248        0.6892706768      -31.0051271492  WZ1       1303            0.0000000000
      1395       465  TIP3      H2             15.1177150248       -0.1203193232      -30.6055071492  WZ1       1303            0.0000000000
      1396       466  TIP3      OH2            17.8261150248      -10.3436893232      -19.1372671492  WZ1       1304            0.0000000000
      1397       466  TIP3      H1             17.4187950248       -9.8631293232      -19.8579371492  WZ1       1304            0.0000000000
      1398       466  TIP3      H2             17.8666850248      -11.2490893232      -19.4451871492  WZ1       1304            0.0000000000
      1399       467  TIP3      OH2             4.9750650248       -3.9597493232      -21.1405971492  WZ1       1305            0.0000000000
      1400       467  TIP3      H1              5.1911950248       -4.3211893232      -20.2810171492  WZ1       1305            0.0000000000
      1401       467  TIP3      H2              4.1195350248       -4.3343693232      -21.3502471492  WZ1       1305            0.0000000000
      1402       468  TIP3      OH2             7.5938650248      -15.4896993232      -25.1451771492  WZ1       1306            0.0000000000
      1403       468  TIP3      H1              6.7322350248      -15.5768793232      -25.5528871492  WZ1       1306            0.0000000000
      1404       468  TIP3      H2              7.5714350248      -14.6336893232      -24.7174171492  WZ1       1306            0.0000000000
      1405       469  TIP3      OH2            12.2566450248      -15.7676593232      -21.7704771492  WZ1       1307            0.0000000000
      1406       469  TIP3      H1             12.6769550248      -16.1829493232      -21.0174171492  WZ1       1307            0.0000000000
      1407       469  TIP3      H2             11.3236050248      -15.9463293232      -21.6532771492  WZ1       1307            0.0000000000
      1408       470  TIP3      OH2            15.5831350248      -12.0121393232      -20.9170271492  WZ1       1308            0.0000000000
      1409       470  TIP3      H1             15.0690850248      -12.1379193232      -20.1194271492  WZ1       1308            0.0000000000
      1410       470  TIP3      H2             15.4276050248      -11.0998293232      -21.1614071492  WZ1       1308            0.0000000000
      1411       471  TIP3      OH2            11.9183750248      -13.2753193232      -34.4853971492  WZ1       1310            0.0000000000
      1412       471  TIP3      H1             11.6648550248      -13.2561593232      -33.5625871492  WZ1       1310            0.0000000000
      1413       471  TIP3      H2             11.6615850248      -14.1467793232      -34.7867771492  WZ1       1310            0.0000000000
      1414       472  TIP3      OH2             7.6848750248      -10.5242493232      -24.0501571492  WZ1       1311            0.0000000000
      1415       472  TIP3      H1              7.0430850248      -10.5645193232      -23.3411471492  WZ1       1311            0.0000000000
      1416       472  TIP3      H2              7.7220750248       -9.5977793232      -24.2878571492  WZ1       1311            0.0000000000
      1417       473  TIP3      OH2             7.6817850248      -10.3032393232      -29.1381571492  WZ1       1312            0.0000000000
      1418       473  TIP3      H1              6.7890750248      -10.6436293232      -29.1967771492  WZ1       1312            0.0000000000
      1419       473  TIP3      H2              8.1324450248      -10.6801493232      -29.8938371492  WZ1       1312            0.0000000000
      1420       474  TIP3      OH2            13.2173350248       -9.8872093232      -30.3210771492  WZ1       1313            0.0000000000
      1421       474  TIP3      H1             12.8083650248       -9.0723493232      -30.6125971492  WZ1       1313            0.0000000000
      1422       474  TIP3      H2             13.9379550248      -10.0271993232      -30.9353671492  WZ1       1313            0.0000000000
      1423       475  TIP3      OH2            12.3194950248       -9.7115693232      -18.8330071492  WZ1       1314            0.0000000000
      1424       475  TIP3      H1             11.7568750248      -10.4164093232      -18.5122271492  WZ1       1314            0.0000000000
      1425       475  TIP3      H2             13.1458350248       -9.8323793232      -18.3652471492  WZ1       1314            0.0000000000
      1426       476  TIP3      OH2            14.2221050248      -10.4411693232      -27.5071071492  WZ1       1315            0.0000000000
      1427       476  TIP3      H1             14.0265550248       -9.8354893232      -28.2220471492  WZ1       1315            0.0000000000
      1428       476  TIP3      H2             14.4033650248      -11.2746493232      -27.9414771492  WZ1       1315            0.0000000000
      1429       477  TIP3      OH2             5.4349250248      -10.2038993232      -22.1829571492  WZ1       1316            0.0000000000
      1430       477  TIP3      H1              5.3968650248       -9.8037393232      -21.3142471492  WZ1       1316            0.0000000000
      1431       477  TIP3      H2              4.9440350248      -11.0206593232      -22.0926671492  WZ1       1316            0.0000000000
      1432       478  TIP3      OH2             8.8006650248      -12.8296693232      -35.3843571492  WZ1       1317            0.0000000000
      1433       478  TIP3      H1              8.3697350248      -13.2746593232      -34.6546171492  WZ1       1317            0.0000000000
      1434       478  TIP3      H2              8.0825350248      -12.4580393232      -35.8966071492  WZ1       1317            0.0000000000
      1435       479  TIP3      OH2             2.0430050248      -13.0877193232      -28.3324871492  WZ1       1318            0.0000000000
      1436       479  TIP3      H1              2.6737750248      -13.1165093232      -27.6130971492  WZ1       1318            0.0000000000
      1437       479  TIP3      H2              2.4924350248      -13.5128493232      -29.0628971492  WZ1       1318            0.0000000000
      1438       480  TIP3      OH2             3.3172150248      -12.3415193232      -32.9084471492  WZ1       1319            0.0000000000
      1439       480  TIP3      H1              3.7913850248      -11.7505293232      -33.4933571492  WZ1       1319            0.0000000000
      1440       480  TIP3      H2              2.5998550248      -11.8112293232      -32.5614371492  WZ1       1319            0.0000000000
      1441       481  TIP3      OH2            13.4860250248       -8.8030393232      -22.8358671492  WZ1       1320            0.0000000000
      1442       481  TIP3      H1             13.8095050248       -9.4340693232      -23.4788171492  WZ1       1320            0.0000000000
      1443       481  TIP3      H2             13.0459550248       -9.3378193232      -22.1751271492  WZ1       1320            0.0000000000
      1444       482  TIP3      OH2            10.2633150248      -12.8754893232      -28.0517471492  WZ1       1321            0.0000000000
      1445       482  TIP3      H1              9.3524250248      -12.8188093232      -27.7631471492  WZ1       1321            0.0000000000
      1446       482  TIP3      H2             10.7686050248      -12.9359393232      -27.2410271492  WZ1       1321            0.0000000000
      1447       483  TIP3      OH2             5.0916550248      -11.2468593232      -29.2249871492  WZ1       1322            0.0000000000
      1448       483  TIP3      H1              4.2024550248      -11.1473093232      -29.5650271492  WZ1       1322            0.0000000000
      1449       483  TIP3      H2              5.3881450248      -12.0885593232      -29.5711971492  WZ1       1322            0.0000000000
      1450       484  TIP3      OH2             8.7448350248      -11.2465993232      -31.5685271492  WZ1       1323            0.0000000000
      1451       484  TIP3      H1              9.6763850248      -11.1175993232      -31.3902171492  WZ1       1323            0.0000000000
      1452       484  TIP3      H2              8.5298650248      -10.5771693232      -32.2180571492  WZ1       1323            0.0000000000
      1453       485  TIP3      OH2            14.6685050248      -13.6408593232      -24.7875671492  WZ1       1324            0.0000000000
      1454       485  TIP3      H1             13.9916650248      -13.5095493232      -24.1235971492  WZ1       1324            0.0000000000
      1455       485  TIP3      H2             14.1829950248      -13.7959093232      -25.5977971492  WZ1       1324            0.0000000000
      1456       486  TIP3      OH2             7.4188550248      -10.0523793232      -34.0019171492  WZ1       1325            0.0000000000
      1457       486  TIP3      H1              6.8763650248      -10.4319993232      -34.6931571492  WZ1       1325            0.0000000000
      1458       486  TIP3      H2              8.2523450248       -9.8579093232      -34.4305071492  WZ1       1325            0.0000000000
      1459       487  TIP3      OH2            17.9560150248        2.0306806768      -18.5108071492  WZ1       1326            0.0000000000
      1460       487  TIP3      H1             18.1558850248        2.4548706768      -19.3452771492  WZ1       1326            0.0000000000
      1461       487  TIP3      H2             18.6113850248        2.3745006768      -17.9037671492  WZ1       1326            0.0000000000
      1462       488  TIP3      OH2             5.5539950248       -5.4951893232      -18.9027571492  WZ1       1327            0.0000000000
      1463       488  TIP3      H1              6.2862350248       -5.2405993232      -18.3413071492  WZ1       1327            0.0000000000
      1464       488  TIP3      H2              4.7738650248       -5.2906493232      -18.3872171492  WZ1       1327            0.0000000000
      1465       489  TIP3      OH2            11.5832850248      -10.0881893232      -26.1647871492  WZ1       1328            0.0000000000
      1466       489  TIP3      H1             12.1476250248      -10.6345293232      -26.7118271492  WZ1       1328            0.0000000000
      1467       489  TIP3      H2             11.4356250248      -10.6099993232      -25.3760271492  WZ1       1328            0.0000000000
      1468       490  TIP3      OH2             6.5852550248      -13.9515793232      -29.7463071492  WZ1       1329            0.0000000000
      1469       490  TIP3      H1              6.2682050248      -14.8540493232      -29.7817671492  WZ1       1329            0.0000000000
      1470       490  TIP3      H2              7.3666650248      -13.9498393232      -30.2991471492  WZ1       1329            0.0000000000
      1471       491  TIP3      OH2            10.2098750248      -11.6995793232      -23.7507471492  WZ1       1330            0.0000000000
      1472       491  TIP3      H1              9.3744050248      -11.2456293232      -23.6405071492  WZ1       1330            0.0000000000
      1473       491  TIP3      H2             10.7339350248      -11.4237293232      -22.9987571492  WZ1       1330            0.0000000000
      1474       492  TIP3      OH2            10.7541350248       -5.4868093232      -32.0661071492  WZ1       1331            0.0000000000
      1475       492  TIP3      H1             10.0092350248       -5.9942793232      -32.3883171492  WZ1       1331            0.0000000000
      1476       492  TIP3      H2             10.6198550248       -5.4380093232      -31.1196271492  WZ1       1331            0.0000000000
      1477       493  TIP3      OH2            17.9040250248       -6.3539893232      -23.2793471492  WZ1       1332            0.0000000000
      1478       493  TIP3      H1             18.5459050248       -5.8973593232      -23.8231271492  WZ1       1332            0.0000000000
      1479       493  TIP3      H2             17.0737150248       -6.2407493232      -23.7419371492  WZ1       1332            0.0000000000
      1480       494  TIP3      OH2            14.6518150248      -12.6728193232      -33.8668471492  WZ1       1333            0.0000000000
      1481       494  TIP3      H1             13.7132350248      -12.5612593232      -34.0179671492  WZ1       1333            0.0000000000
      1482       494  TIP3      H2             14.9490250248      -11.8161293232      -33.5602771492  WZ1       1333            0.0000000000
      1483       495  TIP3      OH2            12.2733450248       -5.3024793232      -20.8291971492  WZ1       1334            0.0000000000
      1484       495  TIP3      H1             11.9279550248       -5.6842393232      -20.0222371492  WZ1       1334            0.0000000000
      1485       495  TIP3      H2             12.0733550248       -4.3691193232      -20.7579071492  WZ1       1334            0.0000000000
      1486       496  TIP3      OH2            15.3701650248      -10.8055493232      -32.2061071492  WZ1       1335            0.0000000000
      1487       496  TIP3      H1             16.2620650248      -10.9430493232      -31.8869871492  WZ1       1335            0.0000000000
      1488       496  TIP3      H2             15.4265250248      -10.0149393232      -32.7427571492  WZ1       1335            0.0000000000
      1489       497  TIP3      OH2             5.8789650248       -6.1918093232      -26.2963171492  WZ1       1336            0.0000000000
      1490       497  TIP3      H1              6.6236850248       -6.1942393232      -26.8976671492  WZ1       1336            0.0000000000
      1491       497  TIP3      H2              5.9566250248       -7.0154293232      -25.8148071492  WZ1       1336            0.0000000000
      1492       498  TIP3      OH2            12.8795450248       -4.0283793232      -33.0406471492  WZ1       1337            0.0000000000
      1493       498  TIP3      H1             12.5843850248       -3.2015893232      -32.6591671492  WZ1       1337            0.0000000000
      1494       498  TIP3      H2             12.1765450248       -4.6476893232      -32.8445071492  WZ1       1337            0.0000000000
      1495       499  TIP3      OH2             2.8869350248       -7.7311193232      -20.9814671492  WZ1       1338            0.0000000000
      1496       499  TIP3      H1              3.1097950248       -8.1491593232      -20.1497171492  WZ1       1338            0.0000000000
      1497       499  TIP3      H2              2.2849450248       -8.3436193232      -21.4041871492  WZ1       1338            0.0000000000
      1498       500  TIP3      OH2             9.9034250248       -8.2141293232      -18.7684971492  WZ1       1339            0.0000000000
      1499       500  TIP3      H1              9.6075050248       -8.3798293232      -19.6635871492  WZ1       1339            0.0000000000
      1500       500  TIP3      H2             10.8349450248       -8.4340993232      -18.7791071492  WZ1       1339            0.0000000000
      1501       501  TIP3      OH2            14.5237050248       -2.8409293232      -20.8786971492  WZ1       1340            0.0000000000
      1502       501  TIP3      H1             13.6231350248       -2.6576693232      -21.1463071492  WZ1       1340            0.0000000000
      1503       501  TIP3      H2             14.5578150248       -2.5819993232      -19.9578171492  WZ1       1340            0.0000000000
      1504       502  TIP3      OH2            20.2182350248       -4.7959693232      -19.6742871492  WZ1       1342            0.0000000000
      1505       502  TIP3      H1             19.3670850248       -4.5575893232      -20.0416471492  WZ1       1342            0.0000000000
      1506       502  TIP3      H2             20.8085750248       -4.8126493232      -20.4275771492  WZ1       1342            0.0000000000
      1507       503  TIP3      OH2            15.7105950248       -7.0021493232      -25.0250371492  WZ1       1344            0.0000000000
      1508       503  TIP3      H1             14.7822850248       -7.2339593232      -25.0521071492  WZ1       1344            0.0000000000
      1509       503  TIP3      H2             16.1617050248       -7.7791693232      -25.3551571492  WZ1       1344            0.0000000000
      1510       504  TIP3      OH2             8.2539050248       -2.6739893232      -28.8921671492  WZ1       1345            0.0000000000
      1511       504  TIP3      H1              8.7811250248       -1.9005493232      -29.0922871492  WZ1       1345            0.0000000000
      1512       504  TIP3      H2              7.3737550248       -2.4490693232      -29.1937671492  WZ1       1345            0.0000000000
      1513       505  TIP3      OH2             4.0086750248       -7.8115793232      -34.3049271492  WZ1       1346            0.0000000000
      1514       505  TIP3      H1              4.6246650248       -7.1848593232      -33.9254471492  WZ1       1346            0.0000000000
      1515       505  TIP3      H2              3.1469350248       -7.4955993232      -34.0332771492  WZ1       1346            0.0000000000
      1516       506  TIP3      OH2             9.6811350248       -5.0109993232      -29.3157371492  WZ1       1347            0.0000000000
      1517       506  TIP3      H1              9.4401350248       -4.0855593232      -29.2742071492  WZ1       1347            0.0000000000
      1518       506  TIP3      H2              8.9404950248       -5.4698693232      -28.9193471492  WZ1       1347            0.0000000000
      1519       507  TIP3      OH2            10.1957950248       -0.8616393232      -23.0006271492  WZ1       1348            0.0000000000
      1520       507  TIP3      H1             10.5582650248       -0.0070793232      -23.2341871492  WZ1       1348            0.0000000000
      1521       507  TIP3      H2             10.7273150248       -1.1534793232      -22.2599971492  WZ1       1348            0.0000000000
      1522       508  TIP3      OH2             8.3642150248        0.0107606768      -29.7705171492  WZ1       1349            0.0000000000
      1523       508  TIP3      H1              7.4142650248        0.1165006768      -29.7191871492  WZ1       1349            0.0000000000
      1524       508  TIP3      H2              8.7160250248        0.8315006768      -29.4257671492  WZ1       1349            0.0000000000
      1525       509  TIP3      OH2            13.7398750248       -4.7625693232      -23.3000671492  WZ1       1350            0.0000000000
      1526       509  TIP3      H1             13.3140050248       -4.9903993232      -22.4736671492  WZ1       1350            0.0000000000
      1527       509  TIP3      H2             14.3204550248       -5.5013893232      -23.4825371492  WZ1       1350            0.0000000000
      1528       510  TIP3      OH2            16.3982950248       -0.2106193232      -20.8305871492  WZ1       1352            0.0000000000
      1529       510  TIP3      H1             15.7966150248       -0.7663293232      -21.3259571492  WZ1       1352            0.0000000000
      1530       510  TIP3      H2             16.6796650248        0.4563606768      -21.4568471492  WZ1       1352            0.0000000000
      1531       511  TIP3      OH2             4.5208850248      -12.9778493232      -21.4233271492  WZ1       1354            0.0000000000
      1532       511  TIP3      H1              3.6281150248      -12.6393093232      -21.4909271492  WZ1       1354            0.0000000000
      1533       511  TIP3      H2              4.4221650248      -13.8332393232      -21.0052471492  WZ1       1354            0.0000000000
      1534       512  TIP3      OH2            16.8086950248       -5.1613193232      -31.9993771492  WZ1       1355            0.0000000000
      1535       512  TIP3      H1             16.5314550248       -5.8893893232      -31.4432671492  WZ1       1355            0.0000000000
      1536       512  TIP3      H2             17.7359950248       -5.0421193232      -31.7941171492  WZ1       1355            0.0000000000
      1537       513  TIP3      OH2             4.1720850248       -1.1734093232      -22.9883871492  WZ1       1356            0.0000000000
      1538       513  TIP3      H1              4.3891150248       -2.1051693232      -23.0194171492  WZ1       1356            0.0000000000
      1539       513  TIP3      H2              4.4184350248       -0.8989093232      -22.1051071492  WZ1       1356            0.0000000000
      1540       514  TIP3      OH2             8.9706050248       -3.1515293232      -33.3229071492  WZ1       1358            0.0000000000
      1541       514  TIP3      H1              9.1174050248       -3.6715493232      -32.5328171492  WZ1       1358            0.0000000000
      1542       514  TIP3      H2              8.9677750248       -2.2447693232      -33.0163171492  WZ1       1358            0.0000000000
      1543       515  TIP3      OH2             5.4237150248       -5.8991993232      -32.8123671492  WZ1       1359            0.0000000000
      1544       515  TIP3      H1              4.7376450248       -5.5469493232      -32.2453971492  WZ1       1359            0.0000000000
      1545       515  TIP3      H2              5.9465050248       -5.1362393232      -33.0589371492  WZ1       1359            0.0000000000
      1546       516  TIP3      OH2            13.2552250248      -13.2368193232      -22.5334671492  WZ1       1360            0.0000000000
      1547       516  TIP3      H1             13.9540150248      -13.1629493232      -21.8834971492  WZ1       1360            0.0000000000
      1548       516  TIP3      H2             12.8743650248      -14.1013193232      -22.3791771492  WZ1       1360            0.0000000000
      1549       517  TIP3      OH2            14.0397150248      -13.5846493232      -31.4362371492  WZ1       1361            0.0000000000
      1550       517  TIP3      H1             14.2595450248      -13.1131093232      -32.2396971492  WZ1       1361            0.0000000000
      1551       517  TIP3      H2             14.5981150248      -13.1903893232      -30.7661771492  WZ1       1361            0.0000000000
      1552       518  TIP3      OH2            11.7083250248       -1.4541693232      -32.5734871492  WZ1       1362            0.0000000000
      1553       518  TIP3      H1             10.8919350248       -0.9571993232      -32.5210571492  WZ1       1362            0.0000000000
      1554       518  TIP3      H2             12.2379550248       -0.9788193232      -33.2136071492  WZ1       1362            0.0000000000
      1555       519  TIP3      OH2            11.2397050248      -11.8567693232      -30.6013971492  WZ1       1363            0.0000000000
      1556       519  TIP3      H1             12.0519650248      -11.3524493232      -30.5552271492  WZ1       1363            0.0000000000
      1557       519  TIP3      H2             10.9950050248      -12.0017993232      -29.6874371492  WZ1       1363            0.0000000000
      1558       520  TIP3      OH2            11.7753450248      -10.8704993232      -21.4167371492  WZ1       1364            0.0000000000
      1559       520  TIP3      H1             11.8943750248      -10.2969593232      -20.6596971492  WZ1       1364            0.0000000000
      1560       520  TIP3      H2             12.4308050248      -11.5585593232      -21.3019571492  WZ1       1364            0.0000000000
      1561       521  TIP3      OH2            12.1233750248      -14.7754693232      -29.6632871492  WZ1       1365            0.0000000000
      1562       521  TIP3      H1             11.7767250248      -14.1584093232      -29.0188571492  WZ1       1365            0.0000000000
      1563       521  TIP3      H2             12.7820650248      -14.2748993232      -30.1447371492  WZ1       1365            0.0000000000
      1564       522  TIP3      OH2             9.0466350248       -0.4104493232      -32.5917971492  WZ1       1366            0.0000000000
      1565       522  TIP3      H1              9.2075050248        0.3893006768      -33.0925371492  WZ1       1366            0.0000000000
      1566       522  TIP3      H2              8.8494150248       -0.1038493232      -31.7067371492  WZ1       1366            0.0000000000
      1567       523  TIP3      OH2             7.7810750248      -13.7125293232      -32.9760371492  WZ1       1367            0.0000000000
      1568       523  TIP3      H1              7.6975550248      -12.8242193232      -32.6293971492  WZ1       1367            0.0000000000
      1569       523  TIP3      H2              8.6711050248      -13.9778593232      -32.7443571492  WZ1       1367            0.0000000000
      1570       524  TIP3      OH2            17.9799250248      -12.9634693232      -20.5817671492  WZ1       1368            0.0000000000
      1571       524  TIP3      H1             17.0635050248      -12.7012993232      -20.6693971492  WZ1       1368            0.0000000000
      1572       524  TIP3      H2             18.3154250248      -12.9665693232      -21.4782371492  WZ1       1368            0.0000000000
      1573       525  TIP3      OH2            16.5820250248       -9.2133693232      -26.4860371492  WZ1       1369            0.0000000000
      1574       525  TIP3      H1             15.7844650248       -9.6283493232      -26.8145371492  WZ1       1369            0.0000000000
      1575       525  TIP3      H2             17.0271350248       -9.9039993232      -25.9949871492  WZ1       1369            0.0000000000
      1576       526  TIP3      OH2             6.0396050248       -3.2853093232      -33.9155871492  WZ1       1370            0.0000000000
      1577       526  TIP3      H1              6.6317550248       -2.5858293232      -33.6393471492  WZ1       1370            0.0000000000
      1578       526  TIP3      H2              6.4989050248       -3.7183593232      -34.6351271492  WZ1       1370            0.0000000000
      1579       527  TIP3      OH2             4.3555250248      -10.6210093232      -34.7996471492  WZ1       1371            0.0000000000
      1580       527  TIP3      H1              4.3107850248       -9.6816993232      -34.6209471492  WZ1       1371            0.0000000000
      1581       527  TIP3      H2              3.4678450248      -10.8565193232      -35.0694371492  WZ1       1371            0.0000000000
      1582       528  TIP3      OH2            17.6684850248        0.0428806768      -24.8636871492  WZ1       1372            0.0000000000
      1583       528  TIP3      H1             17.5129150248        0.7213206768      -25.5207571492  WZ1       1372            0.0000000000
      1584       528  TIP3      H2             18.6011250248        0.1148106768      -24.6606271492  WZ1       1372            0.0000000000
      1585       529  TIP3      OH2             5.1637250248      -15.8393493232      -26.1265471492  WZ1       1373            0.0000000000
      1586       529  TIP3      H1              4.9347050248      -15.7800993232      -27.0540471492  WZ1       1373            0.0000000000
      1587       529  TIP3      H2              4.7210650248      -16.6307993232      -25.8201371492  WZ1       1373            0.0000000000
      1588       530  TIP3      OH2             4.0940550248       -1.8986393232      -29.9659671492  WZ1       1374            0.0000000000
      1589       530  TIP3      H1              3.2619150248       -1.4263693232      -29.9388271492  WZ1       1374            0.0000000000
      1590       530  TIP3      H2              4.6398850248       -1.3888793232      -30.5646571492  WZ1       1374            0.0000000000
      1591       531  TIP3      OH2             3.3824250248        0.7137306768      -18.6361671492  WZ1       1375            0.0000000000
      1592       531  TIP3      H1              3.9226450248        0.4971306768      -17.8762471492  WZ1       1375            0.0000000000
      1593       531  TIP3      H2              2.9012250248       -0.0916693232      -18.8259171492  WZ1       1375            0.0000000000
      1594       532  TIP3      OH2             7.9797650248       -0.3668293232      -17.0157471492  WZ1       1376            0.0000000000
      1595       532  TIP3      H1              8.7474850248       -0.8257493232      -16.6748271492  WZ1       1376            0.0000000000
      1596       532  TIP3      H2              7.9583850248       -0.5928493232      -17.9456271492  WZ1       1376            0.0000000000
      1597       533  TIP3      OH2            14.5566350248       -1.9867193232      -18.2865971492  WZ1       1378            0.0000000000
      1598       533  TIP3      H1             14.2055850248       -2.8434193232      -18.0435571492  WZ1       1378            0.0000000000
      1599       533  TIP3      H2             15.2829550248       -1.8440493232      -17.6796971492  WZ1       1378            0.0000000000
      1600       534  TIP3      OH2             3.2893750248       -5.4758593232      -17.6817371492  WZ1       1380            0.0000000000
      1601       534  TIP3      H1              3.4334250248       -6.3777893232      -17.9680671492  WZ1       1380            0.0000000000
      1602       534  TIP3      H2              2.5171150248       -5.1896493232      -18.1695071492  WZ1       1380            0.0000000000
      1603       535  TIP3      OH2             7.6307450248       -5.1322893232      -35.5492771492  WZ1       1381            0.0000000000
      1604       535  TIP3      H1              7.6951550248       -5.9263293232      -35.0186371492  WZ1       1381            0.0000000000
      1605       535  TIP3      H2              8.2836650248       -5.2510093232      -36.2390771492  WZ1       1381            0.0000000000
      1606       536  TIP3      OH2             9.9449850248       -5.5060493232      -18.2490971492  WZ1       1382            0.0000000000
      1607       536  TIP3      H1              9.6163650248       -5.2352393232      -19.1063571492  WZ1       1382            0.0000000000
      1608       536  TIP3      H2             10.0968050248       -6.4470693232      -18.3365971492  WZ1       1382            0.0000000000
      1609       537  TIP3      OH2            15.6795050248       -5.5903193232      -20.8658671492  WZ1       1384            0.0000000000
      1610       537  TIP3      H1             16.4249850248       -5.0019493232      -20.9854671492  WZ1       1384            0.0000000000
      1611       537  TIP3      H2             14.9221850248       -5.0083493232      -20.8025571492  WZ1       1384            0.0000000000
      1612       538  TIP3      OH2             4.1220250248       -8.2755293232      -18.2618071492  WZ1       1385            0.0000000000
      1613       538  TIP3      H1              4.5301450248       -9.1328693232      -18.3827471492  WZ1       1385            0.0000000000
      1614       538  TIP3      H2              3.8617850248       -8.2613993232      -17.3407771492  WZ1       1385            0.0000000000
      1615       539  TIP3      OH2             8.7801250248       -7.1596693232      -33.2434771492  WZ1       1386            0.0000000000
      1616       539  TIP3      H1              8.3203250248       -7.6438393232      -32.5576271492  WZ1       1386            0.0000000000
      1617       539  TIP3      H2              9.0349950248       -7.8281293232      -33.8794271492  WZ1       1386            0.0000000000
      1618       540  TIP3      OH2             8.0690550248       -9.2669593232      -20.8875171492  WZ1       1387            0.0000000000
      1619       540  TIP3      H1              7.4506650248       -8.5922993232      -20.6070471492  WZ1       1387            0.0000000000
      1620       540  TIP3      H2              8.4131750248       -8.9455693232      -21.7208971492  WZ1       1387            0.0000000000
      1621       541  TIP3      OH2             9.8511650248       -8.9164893232      -34.9811571492  WZ1       1388            0.0000000000
      1622       541  TIP3      H1              9.6706650248       -9.0713693232      -35.9083271492  WZ1       1388            0.0000000000
      1623       541  TIP3      H2             10.8012150248       -8.8086193232      -34.9363671492  WZ1       1388            0.0000000000
      1624       542  TIP3      OH2            13.0888750248       -6.7954293232      -17.6100371492  WZ1       1389            0.0000000000
      1625       542  TIP3      H1             14.0419950248       -6.7115193232      -17.6374371492  WZ1       1389            0.0000000000
      1626       542  TIP3      H2             12.9283350248       -7.5072493232      -16.9905471492  WZ1       1389            0.0000000000
      1627       543  TIP3      OH2             8.4084250248      -11.9118793232      -19.8052071492  WZ1       1391            0.0000000000
      1628       543  TIP3      H1              8.5585150248      -12.6407493232      -20.4072371492  WZ1       1391            0.0000000000
      1629       543  TIP3      H2              8.4106650248      -11.1347093232      -20.3639871492  WZ1       1391            0.0000000000
      1630       544  TIP3      OH2             8.8209950248      -13.5422993232      -22.3124671492  WZ1       1392            0.0000000000
      1631       544  TIP3      H1              9.3567450248      -13.0906293232      -22.9645371492  WZ1       1392            0.0000000000
      1632       544  TIP3      H2              7.9689550248      -13.6503193232      -22.7350571492  WZ1       1392            0.0000000000
      1633       545  TIP3      OH2            10.4028350248       -8.1026793232      -22.0729471492  WZ1       1393            0.0000000000
      1634       545  TIP3      H1             11.1533150248       -8.2589293232      -22.6461671492  WZ1       1393            0.0000000000
      1635       545  TIP3      H2             10.0636650248       -7.2510193232      -22.3483971492  WZ1       1393            0.0000000000
      1636       546  TIP3      OH2            14.8184550248      -10.2874993232      -17.0444171492  WZ1       1394            0.0000000000
      1637       546  TIP3      H1             15.0105850248      -11.2185593232      -17.1559671492  WZ1       1394            0.0000000000
      1638       546  TIP3      H2             15.6760850248       -9.8625493232      -17.0548771492  WZ1       1394            0.0000000000
      1639       547  TIP3      OH2            16.1351750248       -7.4989793232      -18.9671471492  WZ1       1395            0.0000000000
      1640       547  TIP3      H1             15.8536750248       -6.7895193232      -19.5447671492  WZ1       1395            0.0000000000
      1641       547  TIP3      H2             17.0776050248       -7.5716793232      -19.1180271492  WZ1       1395            0.0000000000
      1642       548  TIP3      OH2             6.8870550248      -10.7135293232      -17.8936471492  WZ1       1396            0.0000000000
      1643       548  TIP3      H1              6.1199550248      -11.2460493232      -18.1038871492  WZ1       1396            0.0000000000
      1644       548  TIP3      H2              7.5659550248      -11.0234893232      -18.4930171492  WZ1       1396            0.0000000000
      1645       549  TIP3      OH2             9.6265450248      -16.0857293232      -21.8811071492  WZ1       1397            0.0000000000
      1646       549  TIP3      H1              9.5285050248      -15.1394093232      -21.9864871492  WZ1       1397            0.0000000000
      1647       549  TIP3      H2              8.8841650248      -16.4583493232      -22.3567571492  WZ1       1397            0.0000000000
      1648       550  TIP3      OH2            10.8905950248      -11.7641893232      -18.3172671492  WZ1       1398            0.0000000000
      1649       550  TIP3      H1             10.6551350248      -11.9835193232      -17.4157771492  WZ1       1398            0.0000000000
      1650       550  TIP3      H2             10.1072850248      -11.9710693232      -18.8270171492  WZ1       1398            0.0000000000
      1651       551  TIP3      OH2            13.6062550248      -12.6368393232      -19.2419171492  WZ1       1399            0.0000000000
      1652       551  TIP3      H1             12.6587950248      -12.6048693232      -19.1095871492  WZ1       1399            0.0000000000
      1653       551  TIP3      H2             13.9189250248      -13.2621293232      -18.5880971492  WZ1       1399            0.0000000000
      1654       552  TIP3      OH2            15.2404050248      -14.0027293232      -17.2367271492  WZ1       1400            0.0000000000
      1655       552  TIP3      H1             15.1435850248      -14.9549993232      -17.2425371492  WZ1       1400            0.0000000000
      1656       552  TIP3      H2             14.9187150248      -13.7340493232      -16.3761771492  WZ1       1400            0.0000000000
      1657       553  TIP3      OH2             5.0673350248      -12.7931493232      -18.1891771492  WZ1       1401            0.0000000000
      1658       553  TIP3      H1              5.2790750248      -13.4995393232      -18.7994271492  WZ1       1401            0.0000000000
      1659       553  TIP3      H2              4.9560850248      -13.2305493232      -17.3450571492  WZ1       1401            0.0000000000
      1660       554  TIP3      OH2             9.8483550248      -16.7919893232      -19.2098271492  WZ1       1402            0.0000000000
      1661       554  TIP3      H1             10.5601950248      -17.4317693232      -19.2239171492  WZ1       1402            0.0000000000
      1662       554  TIP3      H2              9.7473950248      -16.5251593232      -20.1235171492  WZ1       1402            0.0000000000
      1663       555  TIP3      OH2            10.2021050248      -15.1091493232      -17.1561971492  WZ1       1403            0.0000000000
      1664       555  TIP3      H1             10.0703250248      -15.5847693232      -17.9763471492  WZ1       1403            0.0000000000
      1665       555  TIP3      H2              9.6028450248      -14.3647893232      -17.2114871492  WZ1       1403            0.0000000000
      1666       556  TIP3      OH2             3.3168250248       -3.5897393232      -34.4969871492  WZ1       1405            0.0000000000
      1667       556  TIP3      H1              4.2307450248       -3.5108493232      -34.2235971492  WZ1       1405            0.0000000000
      1668       556  TIP3      H2              3.3241350248       -4.2767793232      -35.1634271492  WZ1       1405            0.0000000000
      1669       557  TIP3      OH2             1.9658850248        1.8031106768      -29.4195971492  WZ1       1406            0.0000000000
      1670       557  TIP3      H1              1.3185950248        1.3412806768      -29.9524771492  WZ1       1406            0.0000000000
      1671       557  TIP3      H2              2.3203450248        1.1314406768      -28.8369771492  WZ1       1406            0.0000000000
      1672       558  TIP3      OH2             2.8358050248       -0.1161893232      -27.6149771492  WZ1       1407            0.0000000000
      1673       558  TIP3      H1              2.5014850248       -0.9964593232      -27.4429571492  WZ1       1407            0.0000000000
      1674       558  TIP3      H2              3.0580450248        0.2293106768      -26.7504171492  WZ1       1407            0.0000000000
      1675       559  TIP3      OH2            20.3842850248        0.6934506768      -24.6344971492  WZ1       1408            0.0000000000
      1676       559  TIP3      H1             20.3629550248        0.8782906768      -23.6955571492  WZ1       1408            0.0000000000
      1677       559  TIP3      H2             21.0749050248        1.2618506768      -24.9753571492  WZ1       1408            0.0000000000
      1678       560  TIP3      OH2            19.9475750248        0.2605606768      -21.7125871492  WZ1       1409            0.0000000000
      1679       560  TIP3      H1             19.4604450248       -0.4750293232      -22.0838471492  WZ1       1409            0.0000000000
      1680       560  TIP3      H2             20.4968450248       -0.1330493232      -21.0346471492  WZ1       1409            0.0000000000
      1681       561  TIP3      OH2            18.3983050248       -3.9496293232      -17.0745571492  WZ1       1410            0.0000000000
      1682       561  TIP3      H1             17.5324150248       -4.0546593232      -16.6803271492  WZ1       1410            0.0000000000
      1683       561  TIP3      H2             18.7748950248       -3.1912993232      -16.6280871492  WZ1       1410            0.0000000000
      1684       562  TIP3      OH2            20.0938350248       -7.6395193232      -29.7367371492  WZ1       1412            0.0000000000
      1685       562  TIP3      H1             19.3672950248       -8.1192593232      -29.3389771492  WZ1       1412            0.0000000000
      1686       562  TIP3      H2             20.6751650248       -7.4340493232      -29.0045771492  WZ1       1412            0.0000000000
      1687       563  TIP3      OH2            19.8529550248       -4.8547693232      -24.7889771492  WZ1       1413            0.0000000000
      1688       563  TIP3      H1             20.6863750248       -5.2327693232      -25.0696171492  WZ1       1413            0.0000000000
      1689       563  TIP3      H2             19.9649850248       -3.9116493232      -24.9080671492  WZ1       1413            0.0000000000
      1690       564  TIP3      OH2            18.3391850248       -1.9770193232      -22.4821371492  WZ1       1414            0.0000000000
      1691       564  TIP3      H1             17.6917150248       -1.6518693232      -21.8566171492  WZ1       1414            0.0000000000
      1692       564  TIP3      H2             17.8215850248       -2.4172493232      -23.1563071492  WZ1       1414            0.0000000000
      1693       565  TIP3      OH2            17.8805150248       -9.1188693232      -29.1738671492  WZ1       1417            0.0000000000
      1694       565  TIP3      H1             17.7303950248      -10.0640093232      -29.1940871492  WZ1       1417            0.0000000000
      1695       565  TIP3      H2             17.5269650248       -8.8377293232      -28.3299571492  WZ1       1417            0.0000000000
      1696       566  TIP3      OH2             2.9157550248       -7.0406493232      -25.1634871492  WZ1       1418            0.0000000000
      1697       566  TIP3      H1              3.1000450248       -7.1224793232      -26.0991971492  WZ1       1418            0.0000000000
      1698       566  TIP3      H2              3.7650450248       -7.1649493232      -24.7398471492  WZ1       1418            0.0000000000
      1699       567  TIP3      OH2            18.7368050248       -7.1485393232      -19.5350371492  WZ1       1419            0.0000000000
      1700       567  TIP3      H1             19.3195350248       -7.8833093232      -19.3433171492  WZ1       1419            0.0000000000
      1701       567  TIP3      H2             19.3007350248       -6.3765093232      -19.4884571492  WZ1       1419            0.0000000000
      1702       568  TIP3      OH2            20.2335150248       -9.2459593232      -18.8504971492  WZ1       1420            0.0000000000
      1703       568  TIP3      H1             19.3701850248       -9.6247493232      -19.0160271492  WZ1       1420            0.0000000000
      1704       568  TIP3      H2             20.8378850248       -9.9844793232      -18.9249171492  WZ1       1420            0.0000000000
      1705       569  TIP3      OH2            17.5909950248      -11.5362893232      -30.7113571492  WZ1       1422            0.0000000000
      1706       569  TIP3      H1             17.8707050248      -12.4432493232      -30.5871871492  WZ1       1422            0.0000000000
      1707       569  TIP3      H2             18.3501650248      -11.1021393232      -31.1004371492  WZ1       1422            0.0000000000
      1708       570  TIP3      OH2            18.2028250248      -10.9545493232      -25.2754671492  WZ1       1423            0.0000000000
      1709       570  TIP3      H1             19.1356250248      -10.7425593232      -25.3098671492  WZ1       1423            0.0000000000
      1710       570  TIP3      H2             17.9675750248      -10.8533393232      -24.3531671492  WZ1       1423            0.0000000000
      1711       571  TIP3      OH2            18.2320150248      -10.2180193232      -22.4995271492  WZ1       1424            0.0000000000
      1712       571  TIP3      H1             17.3891450248       -9.9499793232      -22.1335471492  WZ1       1424            0.0000000000
      1713       571  TIP3      H2             18.6744450248       -9.3958293232      -22.7104171492  WZ1       1424            0.0000000000
      1714       572  TIP3      OH2             2.5132350248      -11.7701493232      -19.0226071492  WZ1       1425            0.0000000000
      1715       572  TIP3      H1              3.4327250248      -11.8923193232      -18.7862971492  WZ1       1425            0.0000000000
      1716       572  TIP3      H2              2.0636850248      -12.5201793232      -18.6332571492  WZ1       1425            0.0000000000
      1717       573  TIP3      OH2            20.5151750248      -16.2379993232      -17.1460271492  WZ1       1426            0.0000000000
      1718       573  TIP3      H1             20.8648750248      -16.8916493232      -17.7515571492  WZ1       1426            0.0000000000
      1719       573  TIP3      H2             20.6621250248      -15.4005893232      -17.5857671492  WZ1       1426            0.0000000000
      1720       574  TIP3      OH2            18.2044750248      -14.2733593232      -30.6631571492  WZ1       1427            0.0000000000
      1721       574  TIP3      H1             18.3869750248      -14.7222093232      -29.8376571492  WZ1       1427            0.0000000000
      1722       574  TIP3      H2             17.6047650248      -14.8579193232      -31.1266971492  WZ1       1427            0.0000000000
      1723       575  TIP3      OH2             3.7344850248      -13.4579893232      -26.1313171492  WZ1       1428            0.0000000000
      1724       575  TIP3      H1              4.1796450248      -14.2497393232      -25.8293471492  WZ1       1428            0.0000000000
      1725       575  TIP3      H2              4.2007850248      -12.7414693232      -25.7007571492  WZ1       1428            0.0000000000
      1726       576  TIP3      OH2             2.0385150248      -10.4586893232      -25.0622971492  WZ1       1429            0.0000000000
      1727       576  TIP3      H1              2.5304950248      -10.6796393232      -25.8530971492  WZ1       1429            0.0000000000
      1728       576  TIP3      H2              2.4006050248       -9.6183493232      -24.7813471492  WZ1       1429            0.0000000000
      1729       577  TIP3      OH2            20.0348950248      -14.1285393232      -18.7968971492  WZ1       1430            0.0000000000
      1730       577  TIP3      H1             19.1174650248      -13.8578293232      -18.8325471492  WZ1       1430            0.0000000000
      1731       577  TIP3      H2             20.1578350248      -14.6636993232      -19.5809271492  WZ1       1430            0.0000000000
      1732       578  TIP3      OH2             2.3521650248      -14.2007793232      -31.0080571492  WZ1       1432            0.0000000000
      1733       578  TIP3      H1              1.4270050248      -13.9921193232      -31.1375071492  WZ1       1432            0.0000000000
      1734       578  TIP3      H2              2.8061550248      -13.7166993232      -31.6978271492  WZ1       1432            0.0000000000
      1735       579  TIP3      OH2            17.1228850248        0.7833906768      -29.0623171492  WZ1       1433            0.0000000000
      1736       579  TIP3      H1             17.7751750248        0.4356006768      -29.6704071492  WZ1       1433            0.0000000000
      1737       579  TIP3      H2             17.6332650248        1.2717106768      -28.4163471492  WZ1       1433            0.0000000000
      1738       580  TIP3      OH2             2.3157050248      -15.4628793232      -22.6638071492  WZ1       1434            0.0000000000
      1739       580  TIP3      H1              1.6507550248      -15.7088493232      -22.0207171492  WZ1       1434            0.0000000000
      1740       580  TIP3      H2              1.8728350248      -14.8408393232      -23.2410071492  WZ1       1434            0.0000000000
      1741       581  TIP3      OH2             4.5076350248       -2.2874693232      -18.5192271492  WZ1       1435            0.0000000000
      1742       581  TIP3      H1              3.6868850248       -2.1128193232      -18.9797571492  WZ1       1435            0.0000000000
      1743       581  TIP3      H2              4.2554150248       -2.3609993232      -17.5987871492  WZ1       1435            0.0000000000
      1744       582  TIP3      OH2             7.4619250248       -1.3133493232      -22.2608271492  WZ1       1436            0.0000000000
      1745       582  TIP3      H1              7.0370350248       -0.5034993232      -22.5433671492  WZ1       1436            0.0000000000
      1746       582  TIP3      H2              8.3662050248       -1.2279393232      -22.5628471492  WZ1       1436            0.0000000000
      1747       583  TIP3      OH2            11.7730650248        0.0856506768      -19.3014571492  WZ1       1437            0.0000000000
      1748       583  TIP3      H1             11.9578150248       -0.2477393232      -18.4234271492  WZ1       1437            0.0000000000
      1749       583  TIP3      H2             12.6195150248        0.3955106768      -19.6235371492  WZ1       1437            0.0000000000
      1750       584  TIP3      OH2            14.1181050248        1.3715406768      -20.0573171492  WZ1       1438            0.0000000000
      1751       584  TIP3      H1             14.7949950248        0.7387706768      -20.2973971492  WZ1       1438            0.0000000000
      1752       584  TIP3      H2             14.4399850248        1.7725906768      -19.2499871492  WZ1       1438            0.0000000000
      1753       585  TIP3      OH2            19.0354850248      -16.0389093232      -20.9778171492  WZ1       1439            0.0000000000
      1754       585  TIP3      H1             18.2228350248      -15.7138793232      -21.3653471492  WZ1       1439            0.0000000000
      1755       585  TIP3      H2             19.2683350248      -16.7990593232      -21.5109071492  WZ1       1439            0.0000000000
      1756       586  TIP3      OH2             4.8635950248        1.9430406768      -22.2132971492  WZ1       1440            0.0000000000
      1757       586  TIP3      H1              4.1432350248        2.3831406768      -22.6645271492  WZ1       1440            0.0000000000
      1758       586  TIP3      H2              4.4979950248        1.6925106768      -21.3648971492  WZ1       1440            0.0000000000
      1759       587  TIP3      OH2             7.3308550248        1.5434306768      -23.1835771492  WZ1       1441            0.0000000000
      1760       587  TIP3      H1              6.4660750248        1.6152806768      -22.7795671492  WZ1       1441            0.0000000000
      1761       587  TIP3      H2              7.2757550248        2.0901606768      -23.9673271492  WZ1       1441            0.0000000000
      1762       588  TIP3      OH2            12.0414150248        1.4313206768      -24.0079771492  WZ1       1442            0.0000000000
      1763       588  TIP3      H1             11.5848150248        1.9602906768      -24.6621371492  WZ1       1442            0.0000000000
      1764       588  TIP3      H2             12.2042150248        2.0344606768      -23.2827471492  WZ1       1442            0.0000000000
      1765       589  TIP3      OH2            14.3690450248        0.3092806768      -23.0629471492  WZ1       1443            0.0000000000
      1766       589  TIP3      H1             13.4644150248        0.4743006768      -23.3287371492  WZ1       1443            0.0000000000
      1767       589  TIP3      H2             14.7979050248        1.1625006768      -23.1286071492  WZ1       1443            0.0000000000
      1768       590  TIP3      OH2            16.9732350248        1.8791906768      -22.7681671492  WZ1       1444            0.0000000000
      1769       590  TIP3      H1             16.7914350248        2.7950806768      -22.9786771492  WZ1       1444            0.0000000000
      1770       590  TIP3      H2             17.1500150248        1.4689006768      -23.6147071492  WZ1       1444            0.0000000000
      1771       591  TIP3      OH2             4.2784050248        0.5662906768      -25.3031171492  WZ1       1445            0.0000000000
      1772       591  TIP3      H1              4.2600050248        0.1408006768      -24.4458871492  WZ1       1445            0.0000000000
      1773       591  TIP3      H2              5.0831950248        0.2477906768      -25.7118971492  WZ1       1445            0.0000000000
      1774       592  TIP3      OH2             6.4197150248       -0.7238393232      -26.6481271492  WZ1       1446            0.0000000000
      1775       592  TIP3      H1              6.2007850248       -1.6400993232      -26.4785271492  WZ1       1446            0.0000000000
      1776       592  TIP3      H2              7.2439350248       -0.5837993232      -26.1819871492  WZ1       1446            0.0000000000
      1777       593  TIP3      OH2             8.9569650248       -0.2539093232      -25.7993271492  WZ1       1447            0.0000000000
      1778       593  TIP3      H1              9.1695350248       -1.1420093232      -26.0862371492  WZ1       1447            0.0000000000
      1779       593  TIP3      H2              9.0214750248       -0.2881393232      -24.8449271492  WZ1       1447            0.0000000000
      1780       594  TIP3      OH2            12.4653350248      -14.5898493232      -26.6549971492  WZ1       1448            0.0000000000
      1781       594  TIP3      H1             11.7910150248      -15.2192893232      -26.3994171492  WZ1       1448            0.0000000000
      1782       594  TIP3      H2             13.0292550248      -15.0739593232      -27.2582071492  WZ1       1448            0.0000000000
      1783       595  TIP3      OH2            17.6080550248      -16.4824493232      -26.5422871492  WZ1       1449            0.0000000000
      1784       595  TIP3      H1             18.2118150248      -15.9349093232      -27.0441871492  WZ1       1449            0.0000000000
      1785       595  TIP3      H2             16.7382550248      -16.1634093232      -26.7828771492  WZ1       1449            0.0000000000
      1786       596  TIP3      OH2            19.3350950248      -15.3435793232      -28.2091971492  WZ1       1450            0.0000000000
      1787       596  TIP3      H1             19.9468450248      -15.8580093232      -28.7358371492  WZ1       1450            0.0000000000
      1788       596  TIP3      H2             19.7174350248      -14.4663693232      -28.1857571492  WZ1       1450            0.0000000000
      1789       597  TIP3      OH2             4.7920850248      -15.9558193232      -28.8330071492  WZ1       1451            0.0000000000
      1790       597  TIP3      H1              4.0150650248      -16.1903293232      -29.3404171492  WZ1       1451            0.0000000000
      1791       597  TIP3      H2              5.3224450248      -16.7526093232      -28.8242071492  WZ1       1451            0.0000000000
      1792       598  TIP3      OH2             3.6284250248      -16.1580093232      -33.0293971492  WZ1       1452            0.0000000000
      1793       598  TIP3      H1              4.0674950248      -15.5469593232      -33.6210471492  WZ1       1452            0.0000000000
      1794       598  TIP3      H2              2.9946650248      -15.6195993232      -32.5553971492  WZ1       1452            0.0000000000
      1795       599  TIP3      OH2             9.3713450248      -16.0291093232      -29.0196971492  WZ1       1453            0.0000000000
      1796       599  TIP3      H1             10.2456850248      -15.6406793232      -29.0492671492  WZ1       1453            0.0000000000
      1797       599  TIP3      H2              9.2354250248      -16.2443293232      -28.0969771492  WZ1       1453            0.0000000000
      1798       600  TIP3      OH2            14.9281850248      -15.9991293232      -27.3705271492  WZ1       1454            0.0000000000
      1799       600  TIP3      H1             15.0043450248      -15.9039693232      -28.3199271492  WZ1       1454            0.0000000000
      1800       600  TIP3      H2             14.6531050248      -16.9068393232      -27.2416171492  WZ1       1454            0.0000000000
      1801       601  TIP3      OH2             3.5293750248       -0.2097893232      -32.1318871492  WZ1       1456            0.0000000000
      1802       601  TIP3      H1              2.8443650248       -0.2478993232      -32.7993771492  WZ1       1456            0.0000000000
      1803       601  TIP3      H2              3.5330950248        0.7029706768      -31.8436771492  WZ1       1456            0.0000000000
      1804       602  TIP3      OH2             5.4893350248      -14.2418593232      -34.5869871492  WZ1       1457            0.0000000000
      1805       602  TIP3      H1              5.9806750248      -14.8716193232      -35.1144371492  WZ1       1457            0.0000000000
      1806       602  TIP3      H2              6.1129650248      -13.9459193232      -33.9238671492  WZ1       1457            0.0000000000
      1807       603  TIP3      OH2            10.5153450248      -13.9487093232      -32.1299371492  WZ1       1458            0.0000000000
      1808       603  TIP3      H1             10.6934750248      -14.5953893232      -31.4470771492  WZ1       1458            0.0000000000
      1809       603  TIP3      H2             10.4619650248      -13.1149393232      -31.6628271492  WZ1       1458            0.0000000000
      1810       604  TIP3      OH2             4.7498850248      -15.4416293232      -19.3153871492  WZ1       1461            0.0000000000
      1811       604  TIP3      H1              4.3837050248      -16.2073693232      -18.8729171492  WZ1       1461            0.0000000000
      1812       604  TIP3      H2              5.6627350248      -15.4126093232      -19.0288771492  WZ1       1461            0.0000000000
      1813       605  TIP3      OH2             6.7229650248      -16.0911893232      -17.7796771492  WZ1       1462            0.0000000000
      1814       605  TIP3      H1              7.6213250248      -16.3651693232      -17.9643371492  WZ1       1462            0.0000000000
      1815       605  TIP3      H2              6.3362750248      -16.8335893232      -17.3154171492  WZ1       1462            0.0000000000
      1816       606  TIP3      OH2             5.3474950248        0.7102906768      -35.1066771492  WZ1       1463            0.0000000000
      1817       606  TIP3      H1              5.0799550248        0.9965806768      -34.2333671492  WZ1       1463            0.0000000000
      1818       606  TIP3      H2              6.1187550248        0.1642106768      -34.9544271492  WZ1       1463            0.0000000000
      1819       607  TIP3      OH2            15.1441950248      -16.7586593232      -17.5973971492  WZ1       1464            0.0000000000
      1820       607  TIP3      H1             15.2209150248      -17.1845893232      -16.7436271492  WZ1       1464            0.0000000000
      1821       607  TIP3      H2             16.0378550248      -16.7451893232      -17.9400471492  WZ1       1464            0.0000000000
      1822       608  TIP3      OH2            18.3203050248       -0.6860293232      -18.9049771492  WZ1       1465            0.0000000000
      1823       608  TIP3      H1             17.5384950248       -0.8722293232      -19.4249171492  WZ1       1465            0.0000000000
      1824       608  TIP3      H2             18.2482950248        0.2434006768      -18.6877271492  WZ1       1465            0.0000000000
      1825       609  TIP3      OH2            24.0279750248       -7.9303093232      -23.8624471492  WZ1       1468            0.0000000000
      1826       609  TIP3      H1             24.0691850248       -8.5559793232      -23.1392071492  WZ1       1468            0.0000000000
      1827       609  TIP3      H2             24.7307450248       -7.3064493232      -23.6804071492  WZ1       1468            0.0000000000
      1828       610  TIP3      OH2            24.9512850248       -3.4804193232      -25.3275371492  WZ1       1470            0.0000000000
      1829       610  TIP3      H1             24.5818050248       -4.2823693232      -25.6971071492  WZ1       1470            0.0000000000
      1830       610  TIP3      H2             25.8923950248       -3.6489293232      -25.2811971492  WZ1       1470            0.0000000000
      1831       611  TIP3      OH2            21.5613350248       -9.8201593232      -29.9346571492  WZ1       1471            0.0000000000
      1832       611  TIP3      H1             21.1136750248       -8.9742893232      -29.9530071492  WZ1       1471            0.0000000000
      1833       611  TIP3      H2             21.0004550248      -10.3997393232      -30.4501471492  WZ1       1471            0.0000000000
      1834       612  TIP3      OH2            22.2719450248       -7.6581993232      -27.8088571492  WZ1       1472            0.0000000000
      1835       612  TIP3      H1             22.4852950248       -8.4280393232      -27.2815571492  WZ1       1472            0.0000000000
      1836       612  TIP3      H2             23.0097050248       -7.5685293232      -28.4120971492  WZ1       1472            0.0000000000
      1837       613  TIP3      OH2            22.9645950248      -10.2199193232      -26.6872371492  WZ1       1478            0.0000000000
      1838       613  TIP3      H1             23.6182550248      -10.7697493232      -26.2552271492  WZ1       1478            0.0000000000
      1839       613  TIP3      H2             22.9885250248      -10.4940193232      -27.6040371492  WZ1       1478            0.0000000000
      1840       614  TIP3      OH2            25.1546350248      -13.6986593232      -23.3752971492  WZ1       1480            0.0000000000
      1841       614  TIP3      H1             24.9358050248      -13.1685993232      -24.1416971492  WZ1       1480            0.0000000000
      1842       614  TIP3      H2             24.4867250248      -13.4721093232      -22.7281571492  WZ1       1480            0.0000000000
      1843       615  TIP3      OH2            27.7237750248       -6.0230893232      -23.0879271492  WZ1       1482            0.0000000000
      1844       615  TIP3      H1             26.9836850248       -5.4249393232      -22.9844071492  WZ1       1482            0.0000000000
      1845       615  TIP3      H2             28.4377250248       -5.4691293232      -23.4035671492  WZ1       1482            0.0000000000
      1846       616  TIP3      OH2            24.7483650248      -11.8064793232      -25.4230771492  WZ1       1483            0.0000000000
      1847       616  TIP3      H1             25.3619950248      -11.1737193232      -25.0498371492  WZ1       1483            0.0000000000
      1848       616  TIP3      H2             25.2604350248      -12.2789793232      -26.0793871492  WZ1       1483            0.0000000000
      1849       617  TIP3      OH2            26.1312050248       -4.0587893232      -22.3007771492  WZ1       1484            0.0000000000
      1850       617  TIP3      H1             26.1259650248       -3.1794393232      -22.6788471492  WZ1       1484            0.0000000000
      1851       617  TIP3      H2             25.2776150248       -4.1423793232      -21.8757871492  WZ1       1484            0.0000000000
      1852       618  TIP3      OH2            26.8652850248       -7.9470793232      -24.9546371492  WZ1       1495            0.0000000000
      1853       618  TIP3      H1             27.4305350248       -7.8256593232      -25.7175171492  WZ1       1495            0.0000000000
      1854       618  TIP3      H2             27.1841750248       -7.3095793232      -24.3157871492  WZ1       1495            0.0000000000
      1855       619  TIP3      OH2            27.7453550248       -3.5478093232      -20.2374471492  WZ1       1497            0.0000000000
      1856       619  TIP3      H1             27.4341050248       -2.7654893232      -19.7821271492  WZ1       1497            0.0000000000
      1857       619  TIP3      H2             27.0953750248       -3.7008993232      -20.9232471492  WZ1       1497            0.0000000000
      1858       620  TIP3      OH2            24.6653450248       -7.3496993232      -21.0088771492  WZ1       1499            0.0000000000
      1859       620  TIP3      H1             24.7356650248       -6.6990193232      -20.3103771492  WZ1       1499            0.0000000000
      1860       620  TIP3      H2             23.7745650248       -7.2469493232      -21.3437871492  WZ1       1499            0.0000000000
      1861       621  TIP3      OH2            25.9849450248       -1.4763093232      -19.4740671492  WZ1       1501            0.0000000000
      1862       621  TIP3      H1             25.9924750248       -1.6123393232      -20.4215171492  WZ1       1501            0.0000000000
      1863       621  TIP3      H2             25.0689850248       -1.5934993232      -19.2220671492  WZ1       1501            0.0000000000
      1864       622  TIP3      OH2            21.5820150248       -5.2832893232      -22.1838771492  WZ1       1503            0.0000000000
      1865       622  TIP3      H1             21.0808550248       -5.3113493232      -22.9989071492  WZ1       1503            0.0000000000
      1866       622  TIP3      H2             21.5873850248       -6.1889693232      -21.8741471492  WZ1       1503            0.0000000000
      1867       623  TIP3      OH2            21.3322850248       -2.5029093232      -25.2998571492  WZ1       1504            0.0000000000
      1868       623  TIP3      H1             22.2783450248       -2.6472093232      -25.3189071492  WZ1       1504            0.0000000000
      1869       623  TIP3      H2             21.2199150248       -1.7186293232      -24.7627371492  WZ1       1504            0.0000000000
      1870       624  TIP3      OH2            30.5085350248       -2.2630193232      -20.7413471492  WZ1       1505            0.0000000000
      1871       624  TIP3      H1             30.5959950248       -1.4365593232      -20.2664371492  WZ1       1505            0.0000000000
      1872       624  TIP3      H2             29.6450450248       -2.5926393232      -20.4924171492  WZ1       1505            0.0000000000
      1873       625  TIP3      OH2            23.8310650248       -3.9597493232      -21.1405971492  WZ1       1510            0.0000000000
      1874       625  TIP3      H1             24.0471950248       -4.3211893232      -20.2810171492  WZ1       1510            0.0000000000
      1875       625  TIP3      H2             22.9755350248       -4.3343693232      -21.3502471492  WZ1       1510            0.0000000000
      1876       626  TIP3      OH2            26.4498650248      -15.4896993232      -25.1451771492  WZ1       1511            0.0000000000
      1877       626  TIP3      H1             25.5882350248      -15.5768793232      -25.5528871492  WZ1       1511            0.0000000000
      1878       626  TIP3      H2             26.4274350248      -14.6336893232      -24.7174171492  WZ1       1511            0.0000000000
      1879       627  TIP3      OH2            26.5408750248      -10.5242493232      -24.0501571492  WZ1       1516            0.0000000000
      1880       627  TIP3      H1             25.8990850248      -10.5645193232      -23.3411471492  WZ1       1516            0.0000000000
      1881       627  TIP3      H2             26.5780750248       -9.5977793232      -24.2878571492  WZ1       1516            0.0000000000
      1882       628  TIP3      OH2            24.2909250248      -10.2038993232      -22.1829571492  WZ1       1521            0.0000000000
      1883       628  TIP3      H1             24.2528650248       -9.8037393232      -21.3142471492  WZ1       1521            0.0000000000
      1884       628  TIP3      H2             23.8000350248      -11.0206593232      -22.0926671492  WZ1       1521            0.0000000000
      1885       629  TIP3      OH2            20.8990050248      -13.0877193232      -28.3324871492  WZ1       1523            0.0000000000
      1886       629  TIP3      H1             21.5297750248      -13.1165093232      -27.6130971492  WZ1       1523            0.0000000000
      1887       629  TIP3      H2             21.3484350248      -13.5128493232      -29.0628971492  WZ1       1523            0.0000000000
      1888       630  TIP3      OH2            23.9476550248      -11.2468593232      -29.2249871492  WZ1       1527            0.0000000000
      1889       630  TIP3      H1             23.0584550248      -11.1473093232      -29.5650271492  WZ1       1527            0.0000000000
      1890       630  TIP3      H2             24.2441450248      -12.0885593232      -29.5711971492  WZ1       1527            0.0000000000
      1891       631  TIP3      OH2            24.4099950248       -5.4951893232      -18.9027571492  WZ1       1531            0.0000000000
      1892       631  TIP3      H1             25.1422350248       -5.2405993232      -18.3413071492  WZ1       1531            0.0000000000
      1893       631  TIP3      H2             23.6298650248       -5.2906493232      -18.3872171492  WZ1       1531            0.0000000000
      1894       632  TIP3      OH2            30.4392850248      -10.0881893232      -26.1647871492  WZ1       1532            0.0000000000
      1895       632  TIP3      H1             31.0036250248      -10.6345293232      -26.7118271492  WZ1       1532            0.0000000000
      1896       632  TIP3      H2             30.2916250248      -10.6099993232      -25.3760271492  WZ1       1532            0.0000000000
      1897       633  TIP3      OH2            29.0658750248      -11.6995793232      -23.7507471492  WZ1       1534            0.0000000000
      1898       633  TIP3      H1             28.2304050248      -11.2456293232      -23.6405071492  WZ1       1534            0.0000000000
      1899       633  TIP3      H2             29.5899350248      -11.4237293232      -22.9987571492  WZ1       1534            0.0000000000
      1900       634  TIP3      OH2            31.1293450248       -5.3024793232      -20.8291971492  WZ1       1537            0.0000000000
      1901       634  TIP3      H1             30.7839550248       -5.6842393232      -20.0222371492  WZ1       1537            0.0000000000
      1902       634  TIP3      H2             30.9293550248       -4.3691193232      -20.7579071492  WZ1       1537            0.0000000000
      1903       635  TIP3      OH2            24.7349650248       -6.1918093232      -26.2963171492  WZ1       1539            0.0000000000
      1904       635  TIP3      H1             25.4796850248       -6.1942393232      -26.8976671492  WZ1       1539            0.0000000000
      1905       635  TIP3      H2             24.8126250248       -7.0154293232      -25.8148071492  WZ1       1539            0.0000000000
      1906       636  TIP3      OH2            21.7429350248       -7.7311193232      -20.9814671492  WZ1       1541            0.0000000000
      1907       636  TIP3      H1             21.9657950248       -8.1491593232      -20.1497171492  WZ1       1541            0.0000000000
      1908       636  TIP3      H2             21.1409450248       -8.3436193232      -21.4041871492  WZ1       1541            0.0000000000
      1909       637  TIP3      OH2            28.7594250248       -8.2141293232      -18.7684971492  WZ1       1542            0.0000000000
      1910       637  TIP3      H1             28.4635050248       -8.3798293232      -19.6635871492  WZ1       1542            0.0000000000
      1911       637  TIP3      H2             29.6909450248       -8.4340993232      -18.7791071492  WZ1       1542            0.0000000000
      1912       638  TIP3      OH2            33.3797050248       -2.8409293232      -20.8786971492  WZ1       1543            0.0000000000
      1913       638  TIP3      H1             32.4791350248       -2.6576693232      -21.1463071492  WZ1       1543            0.0000000000
      1914       638  TIP3      H2             33.4138150248       -2.5819993232      -19.9578171492  WZ1       1543            0.0000000000
      1915       639  TIP3      OH2            29.0517950248       -0.8616393232      -23.0006271492  WZ1       1548            0.0000000000
      1916       639  TIP3      H1             29.4142650248       -0.0070793232      -23.2341871492  WZ1       1548            0.0000000000
      1917       639  TIP3      H2             29.5833150248       -1.1534793232      -22.2599971492  WZ1       1548            0.0000000000
      1918       640  TIP3      OH2            23.3768850248      -12.9778493232      -21.4233271492  WZ1       1553            0.0000000000
      1919       640  TIP3      H1             22.4841150248      -12.6393093232      -21.4909271492  WZ1       1553            0.0000000000
      1920       640  TIP3      H2             23.2781650248      -13.8332393232      -21.0052471492  WZ1       1553            0.0000000000
      1921       641  TIP3      OH2            23.0280850248       -1.1734093232      -22.9883871492  WZ1       1555            0.0000000000
      1922       641  TIP3      H1             23.2451150248       -2.1051693232      -23.0194171492  WZ1       1555            0.0000000000
      1923       641  TIP3      H2             23.2744350248       -0.8989093232      -22.1051071492  WZ1       1555            0.0000000000
      1924       642  TIP3      OH2            22.2384250248        0.7137306768      -18.6361671492  WZ1       1572            0.0000000000
      1925       642  TIP3      H1             22.7786450248        0.4971306768      -17.8762471492  WZ1       1572            0.0000000000
      1926       642  TIP3      H2             21.7572250248       -0.0916693232      -18.8259171492  WZ1       1572            0.0000000000
      1927       643  TIP3      OH2            26.8357650248       -0.3668293232      -17.0157471492  WZ1       1573            0.0000000000
      1928       643  TIP3      H1             27.6034850248       -0.8257493232      -16.6748271492  WZ1       1573            0.0000000000
      1929       643  TIP3      H2             26.8143850248       -0.5928493232      -17.9456271492  WZ1       1573            0.0000000000
      1930       644  TIP3      OH2            33.4126350248       -1.9867193232      -18.2865971492  WZ1       1575            0.0000000000
      1931       644  TIP3      H1             33.0615850248       -2.8434193232      -18.0435571492  WZ1       1575            0.0000000000
      1932       644  TIP3      H2             34.1389550248       -1.8440493232      -17.6796971492  WZ1       1575            0.0000000000
      1933       645  TIP3      OH2            22.1453750248       -5.4758593232      -17.6817371492  WZ1       1577            0.0000000000
      1934       645  TIP3      H1             22.2894250248       -6.3777893232      -17.9680671492  WZ1       1577            0.0000000000
      1935       645  TIP3      H2             21.3731150248       -5.1896493232      -18.1695071492  WZ1       1577            0.0000000000
      1936       646  TIP3      OH2            28.8009850248       -5.5060493232      -18.2490971492  WZ1       1579            0.0000000000
      1937       646  TIP3      H1             28.4723650248       -5.2352393232      -19.1063571492  WZ1       1579            0.0000000000
      1938       646  TIP3      H2             28.9528050248       -6.4470693232      -18.3365971492  WZ1       1579            0.0000000000
      1939       647  TIP3      OH2            22.9780250248       -8.2755293232      -18.2618071492  WZ1       1582            0.0000000000
      1940       647  TIP3      H1             23.3861450248       -9.1328693232      -18.3827471492  WZ1       1582            0.0000000000
      1941       647  TIP3      H2             22.7177850248       -8.2613993232      -17.3407771492  WZ1       1582            0.0000000000
      1942       648  TIP3      OH2            26.9250550248       -9.2669593232      -20.8875171492  WZ1       1584            0.0000000000
      1943       648  TIP3      H1             26.3066650248       -8.5922993232      -20.6070471492  WZ1       1584            0.0000000000
      1944       648  TIP3      H2             27.2691750248       -8.9455693232      -21.7208971492  WZ1       1584            0.0000000000
      1945       649  TIP3      OH2            27.2644250248      -11.9118793232      -19.8052071492  WZ1       1587            0.0000000000
      1946       649  TIP3      H1             27.4145150248      -12.6407493232      -20.4072371492  WZ1       1587            0.0000000000
      1947       649  TIP3      H2             27.2666650248      -11.1347093232      -20.3639871492  WZ1       1587            0.0000000000
      1948       650  TIP3      OH2            27.6769950248      -13.5422993232      -22.3124671492  WZ1       1588            0.0000000000
      1949       650  TIP3      H1             28.2127450248      -13.0906293232      -22.9645371492  WZ1       1588            0.0000000000
      1950       650  TIP3      H2             26.8249550248      -13.6503193232      -22.7350571492  WZ1       1588            0.0000000000
      1951       651  TIP3      OH2            29.2588350248       -8.1026793232      -22.0729471492  WZ1       1589            0.0000000000
      1952       651  TIP3      H1             30.0093150248       -8.2589293232      -22.6461671492  WZ1       1589            0.0000000000
      1953       651  TIP3      H2             28.9196650248       -7.2510193232      -22.3483971492  WZ1       1589            0.0000000000
      1954       652  TIP3      OH2            25.7430550248      -10.7135293232      -17.8936471492  WZ1       1592            0.0000000000
      1955       652  TIP3      H1             24.9759550248      -11.2460493232      -18.1038871492  WZ1       1592            0.0000000000
      1956       652  TIP3      H2             26.4219550248      -11.0234893232      -18.4930171492  WZ1       1592            0.0000000000
      1957       653  TIP3      OH2            28.4825450248      -16.0857293232      -21.8811071492  WZ1       1593            0.0000000000
      1958       653  TIP3      H1             28.3845050248      -15.1394093232      -21.9864871492  WZ1       1593            0.0000000000
      1959       653  TIP3      H2             27.7401650248      -16.4583493232      -22.3567571492  WZ1       1593            0.0000000000
      1960       654  TIP3      OH2            29.7465950248      -11.7641893232      -18.3172671492  WZ1       1594            0.0000000000
      1961       654  TIP3      H1             29.5111350248      -11.9835193232      -17.4157771492  WZ1       1594            0.0000000000
      1962       654  TIP3      H2             28.9632850248      -11.9710693232      -18.8270171492  WZ1       1594            0.0000000000
      1963       655  TIP3      OH2            23.9233350248      -12.7931493232      -18.1891771492  WZ1       1597            0.0000000000
      1964       655  TIP3      H1             24.1350750248      -13.4995393232      -18.7994271492  WZ1       1597            0.0000000000
      1965       655  TIP3      H2             23.8120850248      -13.2305493232      -17.3450571492  WZ1       1597            0.0000000000
      1966       656  TIP3      OH2            29.0581050248      -15.1091493232      -17.1561971492  WZ1       1599            0.0000000000
      1967       656  TIP3      H1             28.9263250248      -15.5847693232      -17.9763471492  WZ1       1599            0.0000000000
      1968       656  TIP3      H2             28.4588450248      -14.3647893232      -17.2114871492  WZ1       1599            0.0000000000
      1969       657  TIP3      OH2            21.6918050248       -0.1161893232      -27.6149771492  WZ1       1603            0.0000000000
      1970       657  TIP3      H1             21.3574850248       -0.9964593232      -27.4429571492  WZ1       1603            0.0000000000
      1971       657  TIP3      H2             21.9140450248        0.2293106768      -26.7504171492  WZ1       1603            0.0000000000
      1972       658  TIP3      OH2            21.7717550248       -7.0406493232      -25.1634871492  WZ1       1604            0.0000000000
      1973       658  TIP3      H1             21.9560450248       -7.1224793232      -26.0991971492  WZ1       1604            0.0000000000
      1974       658  TIP3      H2             22.6210450248       -7.1649493232      -24.7398471492  WZ1       1604            0.0000000000
      1975       659  TIP3      OH2            21.3692350248      -11.7701493232      -19.0226071492  WZ1       1605            0.0000000000
      1976       659  TIP3      H1             22.2887250248      -11.8923193232      -18.7862971492  WZ1       1605            0.0000000000
      1977       659  TIP3      H2             20.9196850248      -12.5201793232      -18.6332571492  WZ1       1605            0.0000000000
      1978       660  TIP3      OH2            22.5904850248      -13.4579893232      -26.1313171492  WZ1       1606            0.0000000000
      1979       660  TIP3      H1             23.0356450248      -14.2497393232      -25.8293471492  WZ1       1606            0.0000000000
      1980       660  TIP3      H2             23.0567850248      -12.7414693232      -25.7007571492  WZ1       1606            0.0000000000
      1981       661  TIP3      OH2            20.8945150248      -10.4586893232      -25.0622971492  WZ1       1607            0.0000000000
      1982       661  TIP3      H1             21.3864950248      -10.6796393232      -25.8530971492  WZ1       1607            0.0000000000
      1983       661  TIP3      H2             21.2566050248       -9.6183493232      -24.7813471492  WZ1       1607            0.0000000000
      1984       662  TIP3      OH2            21.1717050248      -15.4628793232      -22.6638071492  WZ1       1609            0.0000000000
      1985       662  TIP3      H1             20.5067550248      -15.7088493232      -22.0207171492  WZ1       1609            0.0000000000
      1986       662  TIP3      H2             20.7288350248      -14.8408393232      -23.2410071492  WZ1       1609            0.0000000000
      1987       663  TIP3      OH2            23.3636350248       -2.2874693232      -18.5192271492  WZ1       1610            0.0000000000
      1988       663  TIP3      H1             22.5428850248       -2.1128193232      -18.9797571492  WZ1       1610            0.0000000000
      1989       663  TIP3      H2             23.1114150248       -2.3609993232      -17.5987871492  WZ1       1610            0.0000000000
      1990       664  TIP3      OH2            26.3179250248       -1.3133493232      -22.2608271492  WZ1       1611            0.0000000000
      1991       664  TIP3      H1             25.8930350248       -0.5034993232      -22.5433671492  WZ1       1611            0.0000000000
      1992       664  TIP3      H2             27.2222050248       -1.2279393232      -22.5628471492  WZ1       1611            0.0000000000
      1993       665  TIP3      OH2            30.6290650248        0.0856506768      -19.3014571492  WZ1       1612            0.0000000000
      1994       665  TIP3      H1             30.8138150248       -0.2477393232      -18.4234271492  WZ1       1612            0.0000000000
      1995       665  TIP3      H2             31.4755150248        0.3955106768      -19.6235371492  WZ1       1612            0.0000000000
      1996       666  TIP3      OH2            32.9741050248        1.3715406768      -20.0573171492  WZ1       1613            0.0000000000
      1997       666  TIP3      H1             33.6509950248        0.7387706768      -20.2973971492  WZ1       1613            0.0000000000
      1998       666  TIP3      H2             33.2959850248        1.7725906768      -19.2499871492  WZ1       1613            0.0000000000
      1999       667  TIP3      OH2            23.7195950248        1.9430406768      -22.2132971492  WZ1       1614            0.0000000000
      2000       667  TIP3      H1             22.9992350248        2.3831406768      -22.6645271492  WZ1       1614            0.0000000000
      2001       667  TIP3      H2             23.3539950248        1.6925106768      -21.3648971492  WZ1       1614            0.0000000000
      2002       668  TIP3      OH2            26.1868550248        1.5434306768      -23.1835771492  WZ1       1615            0.0000000000
      2003       668  TIP3      H1             25.3220750248        1.6152806768      -22.7795671492  WZ1       1615            0.0000000000
      2004       668  TIP3      H2             26.1317550248        2.0901606768      -23.9673271492  WZ1       1615            0.0000000000
      2005       669  TIP3      OH2            23.1344050248        0.5662906768      -25.3031171492  WZ1       1618            0.0000000000
      2006       669  TIP3      H1             23.1160050248        0.1408006768      -24.4458871492  WZ1       1618            0.0000000000
      2007       669  TIP3      H2             23.9391950248        0.2477906768      -25.7118971492  WZ1       1618            0.0000000000
      2008       670  TIP3      OH2            23.6058850248      -15.4416293232      -19.3153871492  WZ1       1631            0.0000000000
      2009       670  TIP3      H1             23.2397050248      -16.2073693232      -18.8729171492  WZ1       1631            0.0000000000
      2010       670  TIP3      H2             24.5187350248      -15.4126093232      -19.0288771492  WZ1       1631            0.0000000000
      2011       671  TIP3      OH2            25.5789650248      -16.0911893232      -17.7796771492  WZ1       1632            0.0000000000
      2012       671  TIP3      H1             26.4773250248      -16.3651693232      -17.9643371492  WZ1       1632            0.0000000000
      2013       671  TIP3      H2             25.1922750248      -16.8335893232      -17.3154171492  WZ1       1632            0.0000000000
      2014       672  TIP3      OH2           -24.9085249752       11.3114806768      -25.4554371492  WZ1       1636            0.0000000000
      2015       672  TIP3      H1            -24.9467749752       10.6651106768      -24.7504771492  WZ1       1636            0.0000000000
      2016       672  TIP3      H2            -25.2308749752       10.8449206768      -26.2265671492  WZ1       1636            0.0000000000
      2017       673  TIP3      OH2           -21.2025049752       14.2505206768      -27.1539271492  WZ1       1638            0.0000000000
      2018       673  TIP3      H1            -21.6432349752       13.5301206768      -26.7033671492  WZ1       1638            0.0000000000
      2019       673  TIP3      H2            -21.2155349752       14.9712406768      -26.5241571492  WZ1       1638            0.0000000000
      2020       674  TIP3      OH2           -26.5190849752       13.7436206768      -25.0493371492  WZ1       1643            0.0000000000
      2021       674  TIP3      H1            -26.2152949752       13.0577606768      -25.6439271492  WZ1       1643            0.0000000000
      2022       674  TIP3      H2            -25.7976849752       13.8624906768      -24.4315371492  WZ1       1643            0.0000000000
      2023       675  TIP3      OH2           -17.8561049752        5.3451506768      -24.1887171492  WZ1       1644            0.0000000000
      2024       675  TIP3      H1            -17.8068849752        5.9552706768      -23.4528071492  WZ1       1644            0.0000000000
      2025       675  TIP3      H2            -17.4305949752        5.8062406768      -24.9116071492  WZ1       1644            0.0000000000
      2026       676  TIP3      OH2           -23.3783849752        8.1378606768      -24.7218571492  WZ1       1645            0.0000000000
      2027       676  TIP3      H1            -23.2357949752        7.1915606768      -24.7016971492  WZ1       1645            0.0000000000
      2028       676  TIP3      H2            -23.4844849752        8.3448406768      -25.6503671492  WZ1       1645            0.0000000000
      2029       677  TIP3      OH2           -22.5012849752        6.3700606768      -29.0485471492  WZ1       1647            0.0000000000
      2030       677  TIP3      H1            -21.8548549752        6.0413806768      -28.4237871492  WZ1       1647            0.0000000000
      2031       677  TIP3      H2            -21.9913449752        6.8879606768      -29.6714071492  WZ1       1647            0.0000000000
      2032       678  TIP3      OH2           -17.4646449752        6.8230706768      -21.9527371492  WZ1       1650            0.0000000000
      2033       678  TIP3      H1            -18.1531849752        7.4811406768      -22.0480771492  WZ1       1650            0.0000000000
      2034       678  TIP3      H2            -17.4491849752        6.6258606768      -21.0161971492  WZ1       1650            0.0000000000
      2035       679  TIP3      OH2           -31.4133649752        5.1573406768      -23.3752971492  WZ1       1651            0.0000000000
      2036       679  TIP3      H1            -31.6321949752        5.6874006768      -24.1416971492  WZ1       1651            0.0000000000
      2037       679  TIP3      H2            -32.0812749752        5.3838906768      -22.7281571492  WZ1       1651            0.0000000000
      2038       680  TIP3      OH2           -28.8442249752       12.8329106768      -23.0879271492  WZ1       1653            0.0000000000
      2039       680  TIP3      H1            -29.5843149752       13.4310606768      -22.9844071492  WZ1       1653            0.0000000000
      2040       680  TIP3      H2            -28.1302749752       13.3868706768      -23.4035671492  WZ1       1653            0.0000000000
      2041       681  TIP3      OH2           -20.7374449752        5.6609906768      -27.0679571492  WZ1       1654            0.0000000000
      2042       681  TIP3      H1            -20.9526449752        4.8953306768      -26.5353571492  WZ1       1654            0.0000000000
      2043       681  TIP3      H2            -20.0817049752        6.1334506768      -26.5551071492  WZ1       1654            0.0000000000
      2044       682  TIP3      OH2           -20.6907349752       16.0895906768      -24.8059971492  WZ1       1658            0.0000000000
      2045       682  TIP3      H1            -21.6323649752       16.1479806768      -24.6443071492  WZ1       1658            0.0000000000
      2046       682  TIP3      H2            -20.4141249752       16.9956406768      -24.9430271492  WZ1       1658            0.0000000000
      2047       683  TIP3      OH2           -20.3900349752        4.3761206768      -23.3886071492  WZ1       1659            0.0000000000
      2048       683  TIP3      H1            -21.1261149752        4.9868306768      -23.4264771492  WZ1       1659            0.0000000000
      2049       683  TIP3      H2            -19.7066349752        4.7910206768      -23.9149671492  WZ1       1659            0.0000000000
      2050       684  TIP3      OH2           -19.5929449752       14.3384606768      -21.1948271492  WZ1       1663            0.0000000000
      2051       684  TIP3      H1            -19.4533149752       13.7467106768      -21.9341271492  WZ1       1663            0.0000000000
      2052       684  TIP3      H2            -19.4256649752       15.2110506768      -21.5509471492  WZ1       1663            0.0000000000
      2053       685  TIP3      OH2           -17.7510149752       10.6782606768      -23.1287871492  WZ1       1666            0.0000000000
      2054       685  TIP3      H1            -18.4036049752       11.3728206768      -23.0396971492  WZ1       1666            0.0000000000
      2055       685  TIP3      H2            -17.2859849752       10.8883506768      -23.9386271492  WZ1       1666            0.0000000000
      2056       686  TIP3      OH2           -21.7146349752       11.5097406768      -30.4706371492  WZ1       1667            0.0000000000
      2057       686  TIP3      H1            -22.4465349752       11.7381106768      -29.8975771492  WZ1       1667            0.0000000000
      2058       686  TIP3      H2            -21.2674149752       10.7960106768      -30.0158871492  WZ1       1667            0.0000000000
      2059       687  TIP3      OH2           -21.8172849752        9.6840006768      -21.4029371492  WZ1       1668            0.0000000000
      2060       687  TIP3      H1            -21.7373749752       10.4474406768      -20.8310871492  WZ1       1668            0.0000000000
      2061       687  TIP3      H2            -22.4185149752        9.9632406768      -22.0934271492  WZ1       1668            0.0000000000
      2062       688  TIP3      OH2           -29.7027149752       10.9089206768      -24.9546371492  WZ1       1671            0.0000000000
      2063       688  TIP3      H1            -29.1374649752       11.0303406768      -25.7175171492  WZ1       1671            0.0000000000
      2064       688  TIP3      H2            -29.3838249752       11.5464206768      -24.3157871492  WZ1       1671            0.0000000000
      2065       689  TIP3      OH2           -23.3934949752       16.4121106768      -24.2205871492  WZ1       1672            0.0000000000
      2066       689  TIP3      H1            -23.6338349752       17.0744206768      -23.5726671492  WZ1       1672            0.0000000000
      2067       689  TIP3      H2            -23.5916749752       15.5776306768      -23.7956271492  WZ1       1672            0.0000000000
      2068       690  TIP3      OH2           -17.0378649752       17.0190606768      -19.6174871492  WZ1       1683            0.0000000000
      2069       690  TIP3      H1            -17.0871849752       16.0638706768      -19.6547271492  WZ1       1683            0.0000000000
      2070       690  TIP3      H2            -17.8646349752       17.2865906768      -19.2161071492  WZ1       1683            0.0000000000
      2071       691  TIP3      OH2           -26.0594649752       16.5929806768      -20.7413471492  WZ1       1684            0.0000000000
      2072       691  TIP3      H1            -25.9720049752       17.4194406768      -20.2664371492  WZ1       1684            0.0000000000
      2073       691  TIP3      H2            -26.9229549752       16.2633606768      -20.4924171492  WZ1       1684            0.0000000000
      2074       692  TIP3      OH2           -19.8858849752        8.5123106768      -19.1372671492  WZ1       1689            0.0000000000
      2075       692  TIP3      H1            -20.2932049752        8.9928706768      -19.8579371492  WZ1       1689            0.0000000000
      2076       692  TIP3      H2            -19.8453149752        7.6069106768      -19.4451871492  WZ1       1689            0.0000000000
      2077       693  TIP3      OH2           -25.4553549752        3.0883406768      -21.7704771492  WZ1       1692            0.0000000000
      2078       693  TIP3      H1            -25.0350449752        2.6730506768      -21.0174171492  WZ1       1692            0.0000000000
      2079       693  TIP3      H2            -26.3883949752        2.9096706768      -21.6532771492  WZ1       1692            0.0000000000
      2080       694  TIP3      OH2           -22.1288649752        6.8438606768      -20.9170271492  WZ1       1693            0.0000000000
      2081       694  TIP3      H1            -22.6429149752        6.7180806768      -20.1194271492  WZ1       1693            0.0000000000
      2082       694  TIP3      H2            -22.2843949752        7.7561706768      -21.1614071492  WZ1       1693            0.0000000000
      2083       695  TIP3      OH2           -30.0271249752        8.3317506768      -24.0501571492  WZ1       1696            0.0000000000
      2084       695  TIP3      H1            -30.6689149752        8.2914806768      -23.3411471492  WZ1       1696            0.0000000000
      2085       695  TIP3      H2            -29.9899249752        9.2582206768      -24.2878571492  WZ1       1696            0.0000000000
      2086       696  TIP3      OH2           -25.3925049752        9.1444306768      -18.8330071492  WZ1       1699            0.0000000000
      2087       696  TIP3      H1            -25.9551249752        8.4395906768      -18.5122271492  WZ1       1699            0.0000000000
      2088       696  TIP3      H2            -24.5661649752        9.0236206768      -18.3652471492  WZ1       1699            0.0000000000
      2089       697  TIP3      OH2           -23.4898949752        8.4148306768      -27.5071071492  WZ1       1700            0.0000000000
      2090       697  TIP3      H1            -23.6854449752        9.0205106768      -28.2220471492  WZ1       1700            0.0000000000
      2091       697  TIP3      H2            -23.3086349752        7.5813506768      -27.9414771492  WZ1       1700            0.0000000000
      2092       698  TIP3      OH2           -24.2259749752       10.0529606768      -22.8358671492  WZ1       1705            0.0000000000
      2093       698  TIP3      H1            -23.9024949752        9.4219306768      -23.4788171492  WZ1       1705            0.0000000000
      2094       698  TIP3      H2            -24.6660449752        9.5181806768      -22.1751271492  WZ1       1705            0.0000000000
      2095       699  TIP3      OH2           -23.0434949752        5.2151406768      -24.7875671492  WZ1       1709            0.0000000000
      2096       699  TIP3      H1            -23.7203349752        5.3464506768      -24.1235971492  WZ1       1709            0.0000000000
      2097       699  TIP3      H2            -23.5290049752        5.0600906768      -25.5977971492  WZ1       1709            0.0000000000
      2098       700  TIP3      OH2           -19.7559849752       20.8866806768      -18.5108071492  WZ1       1711            0.0000000000
      2099       700  TIP3      H1            -19.5561149752       21.3108706768      -19.3452771492  WZ1       1711            0.0000000000
      2100       700  TIP3      H2            -19.1006149752       21.2305006768      -17.9037671492  WZ1       1711            0.0000000000
      2101       701  TIP3      OH2           -26.1287149752        8.7678106768      -26.1647871492  WZ1       1713            0.0000000000
      2102       701  TIP3      H1            -25.5643749752        8.2214706768      -26.7118271492  WZ1       1713            0.0000000000
      2103       701  TIP3      H2            -26.2763749752        8.2460006768      -25.3760271492  WZ1       1713            0.0000000000
      2104       702  TIP3      OH2           -27.5021249752        7.1564206768      -23.7507471492  WZ1       1715            0.0000000000
      2105       702  TIP3      H1            -28.3375949752        7.6103706768      -23.6405071492  WZ1       1715            0.0000000000
      2106       702  TIP3      H2            -26.9780649752        7.4322706768      -22.9987571492  WZ1       1715            0.0000000000
      2107       703  TIP3      OH2           -19.8079749752       12.5020106768      -23.2793471492  WZ1       1717            0.0000000000
      2108       703  TIP3      H1            -19.1660949752       12.9586406768      -23.8231271492  WZ1       1717            0.0000000000
      2109       703  TIP3      H2            -20.6382849752       12.6152506768      -23.7419371492  WZ1       1717            0.0000000000
      2110       704  TIP3      OH2           -25.4386549752       13.5535206768      -20.8291971492  WZ1       1719            0.0000000000
      2111       704  TIP3      H1            -25.7840449752       13.1717606768      -20.0222371492  WZ1       1719            0.0000000000
      2112       704  TIP3      H2            -25.6386449752       14.4868806768      -20.7579071492  WZ1       1719            0.0000000000
      2113       705  TIP3      OH2           -27.8085749752       10.6418706768      -18.7684971492  WZ1       1724            0.0000000000
      2114       705  TIP3      H1            -28.1044949752       10.4761706768      -19.6635871492  WZ1       1724            0.0000000000
      2115       705  TIP3      H2            -26.8770549752       10.4219006768      -18.7791071492  WZ1       1724            0.0000000000
      2116       706  TIP3      OH2           -23.1882949752       16.0150706768      -20.8786971492  WZ1       1725            0.0000000000
      2117       706  TIP3      H1            -24.0888649752       16.1983306768      -21.1463071492  WZ1       1725            0.0000000000
      2118       706  TIP3      H2            -23.1541849752       16.2740006768      -19.9578171492  WZ1       1725            0.0000000000
      2119       707  TIP3      OH2           -17.4569649752        8.2598606768      -32.5114371492  WZ1       1726            0.0000000000
      2120       707  TIP3      H1            -18.0113349752        7.8636606768      -33.1836871492  WZ1       1726            0.0000000000
      2121       707  TIP3      H2            -17.3566049752        9.1703806768      -32.7891071492  WZ1       1726            0.0000000000
      2122       708  TIP3      OH2           -17.4937649752       14.0600306768      -19.6742871492  WZ1       1727            0.0000000000
      2123       708  TIP3      H1            -18.3449149752       14.2984106768      -20.0416471492  WZ1       1727            0.0000000000
      2124       708  TIP3      H2            -16.9034249752       14.0433506768      -20.4275771492  WZ1       1727            0.0000000000
      2125       709  TIP3      OH2           -22.0014049752       11.8538506768      -25.0250371492  WZ1       1729            0.0000000000
      2126       709  TIP3      H1            -22.9297149752       11.6220406768      -25.0521071492  WZ1       1729            0.0000000000
      2127       709  TIP3      H2            -21.5502949752       11.0768306768      -25.3551571492  WZ1       1729            0.0000000000
      2128       710  TIP3      OH2           -23.9721249752       14.0934306768      -23.3000671492  WZ1       1735            0.0000000000
      2129       710  TIP3      H1            -24.3979949752       13.8656006768      -22.4736671492  WZ1       1735            0.0000000000
      2130       710  TIP3      H2            -23.3915449752       13.3546106768      -23.4825371492  WZ1       1735            0.0000000000
      2131       711  TIP3      OH2           -21.3137049752       18.6453806768      -20.8305871492  WZ1       1737            0.0000000000
      2132       711  TIP3      H1            -21.9153849752       18.0896706768      -21.3259571492  WZ1       1737            0.0000000000
      2133       711  TIP3      H2            -21.0323349752       19.3123606768      -21.4568471492  WZ1       1737            0.0000000000
      2134       712  TIP3      OH2           -24.4567749752        5.6191806768      -22.5334671492  WZ1       1745            0.0000000000
      2135       712  TIP3      H1            -23.7579849752        5.6930506768      -21.8834971492  WZ1       1745            0.0000000000
      2136       712  TIP3      H2            -24.8376349752        4.7546806768      -22.3791771492  WZ1       1745            0.0000000000
      2137       713  TIP3      OH2           -25.9366549752        7.9855006768      -21.4167371492  WZ1       1749            0.0000000000
      2138       713  TIP3      H1            -25.8176249752        8.5590406768      -20.6596971492  WZ1       1749            0.0000000000
      2139       713  TIP3      H2            -25.2811949752        7.2974406768      -21.3019571492  WZ1       1749            0.0000000000
      2140       714  TIP3      OH2           -19.7320749752        5.8925306768      -20.5817671492  WZ1       1753            0.0000000000
      2141       714  TIP3      H1            -20.6484949752        6.1547006768      -20.6693971492  WZ1       1753            0.0000000000
      2142       714  TIP3      H2            -19.3965749752        5.8894306768      -21.4782371492  WZ1       1753            0.0000000000
      2143       715  TIP3      OH2           -21.1299749752        9.6426306768      -26.4860371492  WZ1       1754            0.0000000000
      2144       715  TIP3      H1            -21.9275349752        9.2276506768      -26.8145371492  WZ1       1754            0.0000000000
      2145       715  TIP3      H2            -20.6848649752        8.9520006768      -25.9949871492  WZ1       1754            0.0000000000
      2146       716  TIP3      OH2           -20.0435149752       18.8988806768      -24.8636871492  WZ1       1757            0.0000000000
      2147       716  TIP3      H1            -20.1990849752       19.5773206768      -25.5207571492  WZ1       1757            0.0000000000
      2148       716  TIP3      H2            -19.1108749752       18.9708106768      -24.6606271492  WZ1       1757            0.0000000000
      2149       717  TIP3      OH2           -23.1553649752       16.8692806768      -18.2865971492  WZ1       1763            0.0000000000
      2150       717  TIP3      H1            -23.5064149752       16.0125806768      -18.0435571492  WZ1       1763            0.0000000000
      2151       717  TIP3      H2            -22.4290449752       17.0119506768      -17.6796971492  WZ1       1763            0.0000000000
      2152       718  TIP3      OH2           -27.7670149752       13.3499506768      -18.2490971492  WZ1       1767            0.0000000000
      2153       718  TIP3      H1            -28.0956349752       13.6207606768      -19.1063571492  WZ1       1767            0.0000000000
      2154       718  TIP3      H2            -27.6151949752       12.4089306768      -18.3365971492  WZ1       1767            0.0000000000
      2155       719  TIP3      OH2           -22.0324949752       13.2656806768      -20.8658671492  WZ1       1769            0.0000000000
      2156       719  TIP3      H1            -21.2870149752       13.8540506768      -20.9854671492  WZ1       1769            0.0000000000
      2157       719  TIP3      H2            -22.7898149752       13.8476506768      -20.8025571492  WZ1       1769            0.0000000000
      2158       720  TIP3      OH2           -29.6429449752        9.5890406768      -20.8875171492  WZ1       1772            0.0000000000
      2159       720  TIP3      H1            -30.2613349752       10.2637006768      -20.6070471492  WZ1       1772            0.0000000000
      2160       720  TIP3      H2            -29.2988249752        9.9104306768      -21.7208971492  WZ1       1772            0.0000000000
      2161       721  TIP3      OH2           -24.6231249752       12.0605706768      -17.6100371492  WZ1       1774            0.0000000000
      2162       721  TIP3      H1            -23.6700049752       12.1444806768      -17.6374371492  WZ1       1774            0.0000000000
      2163       721  TIP3      H2            -24.7836649752       11.3487506768      -16.9905471492  WZ1       1774            0.0000000000
      2164       722  TIP3      OH2           -29.3035749752        6.9441206768      -19.8052071492  WZ1       1776            0.0000000000
      2165       722  TIP3      H1            -29.1534849752        6.2152506768      -20.4072371492  WZ1       1776            0.0000000000
      2166       722  TIP3      H2            -29.3013349752        7.7212906768      -20.3639871492  WZ1       1776            0.0000000000
      2167       723  TIP3      OH2           -28.8910049752        5.3137006768      -22.3124671492  WZ1       1777            0.0000000000
      2168       723  TIP3      H1            -28.3552549752        5.7653706768      -22.9645371492  WZ1       1777            0.0000000000
      2169       723  TIP3      H2            -29.7430449752        5.2056806768      -22.7350571492  WZ1       1777            0.0000000000
      2170       724  TIP3      OH2           -27.3091649752       10.7533206768      -22.0729471492  WZ1       1778            0.0000000000
      2171       724  TIP3      H1            -26.5586849752       10.5970706768      -22.6461671492  WZ1       1778            0.0000000000
      2172       724  TIP3      H2            -27.6483349752       11.6049806768      -22.3483971492  WZ1       1778            0.0000000000
      2173       725  TIP3      OH2           -22.8935449752        8.5685006768      -17.0444171492  WZ1       1779            0.0000000000
      2174       725  TIP3      H1            -22.7014149752        7.6374406768      -17.1559671492  WZ1       1779            0.0000000000
      2175       725  TIP3      H2            -22.0359149752        8.9934506768      -17.0548771492  WZ1       1779            0.0000000000
      2176       726  TIP3      OH2           -21.5768249752       11.3570206768      -18.9671471492  WZ1       1780            0.0000000000
      2177       726  TIP3      H1            -21.8583249752       12.0664806768      -19.5447671492  WZ1       1780            0.0000000000
      2178       726  TIP3      H2            -20.6343949752       11.2843206768      -19.1180271492  WZ1       1780            0.0000000000
      2179       727  TIP3      OH2           -30.8249449752        8.1424706768      -17.8936471492  WZ1       1781            0.0000000000
      2180       727  TIP3      H1            -31.5920449752        7.6099506768      -18.1038871492  WZ1       1781            0.0000000000
      2181       727  TIP3      H2            -30.1460449752        7.8325106768      -18.4930171492  WZ1       1781            0.0000000000
      2182       728  TIP3      OH2           -28.0854549752        2.7702706768      -21.8811071492  WZ1       1782            0.0000000000
      2183       728  TIP3      H1            -28.1834949752        3.7165906768      -21.9864871492  WZ1       1782            0.0000000000
      2184       728  TIP3      H2            -28.8278349752        2.3976506768      -22.3567571492  WZ1       1782            0.0000000000
      2185       729  TIP3      OH2           -26.8214049752        7.0918106768      -18.3172671492  WZ1       1783            0.0000000000
      2186       729  TIP3      H1            -27.0568649752        6.8724806768      -17.4157771492  WZ1       1783            0.0000000000
      2187       729  TIP3      H2            -27.6047149752        6.8849306768      -18.8270171492  WZ1       1783            0.0000000000
      2188       730  TIP3      OH2           -24.1057449752        6.2191606768      -19.2419171492  WZ1       1784            0.0000000000
      2189       730  TIP3      H1            -25.0532049752        6.2511306768      -19.1095871492  WZ1       1784            0.0000000000
      2190       730  TIP3      H2            -23.7930749752        5.5938706768      -18.5880971492  WZ1       1784            0.0000000000
      2191       731  TIP3      OH2           -22.4715949752        4.8532706768      -17.2367271492  WZ1       1785            0.0000000000
      2192       731  TIP3      H1            -22.5684149752        3.9010006768      -17.2425371492  WZ1       1785            0.0000000000
      2193       731  TIP3      H2            -22.7932849752        5.1219506768      -16.3761771492  WZ1       1785            0.0000000000
      2194       732  TIP3      OH2           -27.8636449752        2.0640106768      -19.2098271492  WZ1       1787            0.0000000000
      2195       732  TIP3      H1            -27.1518049752        1.4242306768      -19.2239171492  WZ1       1787            0.0000000000
      2196       732  TIP3      H2            -27.9646049752        2.3308406768      -20.1235171492  WZ1       1787            0.0000000000
      2197       733  TIP3      OH2           -27.5098949752        3.7468506768      -17.1561971492  WZ1       1788            0.0000000000
      2198       733  TIP3      H1            -27.6416749752        3.2712306768      -17.9763471492  WZ1       1788            0.0000000000
      2199       733  TIP3      H2            -28.1091549752        4.4912106768      -17.2114871492  WZ1       1788            0.0000000000
      2200       734  TIP3      OH2           -17.3277149752       19.5494506768      -24.6344971492  WZ1       1793            0.0000000000
      2201       734  TIP3      H1            -17.3490449752       19.7342906768      -23.6955571492  WZ1       1793            0.0000000000
      2202       734  TIP3      H2            -16.6370949752       20.1178506768      -24.9753571492  WZ1       1793            0.0000000000
      2203       735  TIP3      OH2           -17.7644249752       19.1165606768      -21.7125871492  WZ1       1794            0.0000000000
      2204       735  TIP3      H1            -18.2515549752       18.3809706768      -22.0838471492  WZ1       1794            0.0000000000
      2205       735  TIP3      H2            -17.2151549752       18.7229506768      -21.0346471492  WZ1       1794            0.0000000000
      2206       736  TIP3      OH2           -19.3136949752       14.9063706768      -17.0745571492  WZ1       1795            0.0000000000
      2207       736  TIP3      H1            -20.1795849752       14.8013406768      -16.6803271492  WZ1       1795            0.0000000000
      2208       736  TIP3      H2            -18.9371049752       15.6647006768      -16.6280871492  WZ1       1795            0.0000000000
      2209       737  TIP3      OH2           -18.0127249752       13.1627406768      -31.5603071492  WZ1       1796            0.0000000000
      2210       737  TIP3      H1            -17.1625849752       13.5838306768      -31.4331471492  WZ1       1796            0.0000000000
      2211       737  TIP3      H2            -18.0072149752       12.4227506768      -30.9531671492  WZ1       1796            0.0000000000
      2212       738  TIP3      OH2           -17.6181649752       11.2164806768      -29.7367371492  WZ1       1797            0.0000000000
      2213       738  TIP3      H1            -18.3447049752       10.7367406768      -29.3389771492  WZ1       1797            0.0000000000
      2214       738  TIP3      H2            -17.0368349752       11.4219506768      -29.0045771492  WZ1       1797            0.0000000000
      2215       739  TIP3      OH2           -17.8590449752       14.0012306768      -24.7889771492  WZ1       1798            0.0000000000
      2216       739  TIP3      H1            -17.0256249752       13.6232306768      -25.0696171492  WZ1       1798            0.0000000000
      2217       739  TIP3      H2            -17.7470149752       14.9443506768      -24.9080671492  WZ1       1798            0.0000000000
      2218       740  TIP3      OH2           -19.3728149752       16.8789806768      -22.4821371492  WZ1       1799            0.0000000000
      2219       740  TIP3      H1            -20.0202849752       17.2041306768      -21.8566171492  WZ1       1799            0.0000000000
      2220       740  TIP3      H2            -19.8904149752       16.4387506768      -23.1563071492  WZ1       1799            0.0000000000
      2221       741  TIP3      OH2           -17.3498549752       11.1173306768      -33.3456071492  WZ1       1800            0.0000000000
      2222       741  TIP3      H1            -17.8717449752       11.4737406768      -34.0645171492  WZ1       1800            0.0000000000
      2223       741  TIP3      H2            -17.3829349752       11.7921106768      -32.6675171492  WZ1       1800            0.0000000000
      2224       742  TIP3      OH2           -19.8314849752        9.7371306768      -29.1738671492  WZ1       1802            0.0000000000
      2225       742  TIP3      H1            -19.9816049752        8.7919906768      -29.1940871492  WZ1       1802            0.0000000000
      2226       742  TIP3      H2            -20.1850349752       10.0182706768      -28.3299571492  WZ1       1802            0.0000000000
      2227       743  TIP3      OH2           -18.9751949752       11.7074606768      -19.5350371492  WZ1       1804            0.0000000000
      2228       743  TIP3      H1            -18.3924649752       10.9726906768      -19.3433171492  WZ1       1804            0.0000000000
      2229       743  TIP3      H2            -18.4112649752       12.4794906768      -19.4884571492  WZ1       1804            0.0000000000
      2230       744  TIP3      OH2           -17.4784849752        9.6100406768      -18.8504971492  WZ1       1805            0.0000000000
      2231       744  TIP3      H1            -18.3418149752        9.2312506768      -19.0160271492  WZ1       1805            0.0000000000
      2232       744  TIP3      H2            -16.8741149752        8.8715206768      -18.9249171492  WZ1       1805            0.0000000000
      2233       745  TIP3      OH2           -20.1210049752        7.3197106768      -30.7113571492  WZ1       1807            0.0000000000
      2234       745  TIP3      H1            -19.8412949752        6.4127506768      -30.5871871492  WZ1       1807            0.0000000000
      2235       745  TIP3      H2            -19.3618349752        7.7538606768      -31.1004371492  WZ1       1807            0.0000000000
      2236       746  TIP3      OH2           -19.5091749752        7.9014506768      -25.2754671492  WZ1       1808            0.0000000000
      2237       746  TIP3      H1            -18.5763749752        8.1134406768      -25.3098671492  WZ1       1808            0.0000000000
      2238       746  TIP3      H2            -19.7444249752        8.0026606768      -24.3531671492  WZ1       1808            0.0000000000
      2239       747  TIP3      OH2           -19.4799849752        8.6379806768      -22.4995271492  WZ1       1809            0.0000000000
      2240       747  TIP3      H1            -20.3228549752        8.9060206768      -22.1335471492  WZ1       1809            0.0000000000
      2241       747  TIP3      H2            -19.0375549752        9.4601706768      -22.7104171492  WZ1       1809            0.0000000000
      2242       748  TIP3      OH2           -17.1968249752        2.6180006768      -17.1460271492  WZ1       1811            0.0000000000
      2243       748  TIP3      H1            -16.8471249752        1.9643506768      -17.7515571492  WZ1       1811            0.0000000000
      2244       748  TIP3      H2            -17.0498749752        3.4554106768      -17.5857671492  WZ1       1811            0.0000000000
      2245       749  TIP3      OH2           -17.6771049752        4.7274606768      -18.7968971492  WZ1       1815            0.0000000000
      2246       749  TIP3      H1            -18.5945349752        4.9981706768      -18.8325471492  WZ1       1815            0.0000000000
      2247       749  TIP3      H2            -17.5541649752        4.1923006768      -19.5809271492  WZ1       1815            0.0000000000
      2248       750  TIP3      OH2           -25.9389349752       18.9416506768      -19.3014571492  WZ1       1822            0.0000000000
      2249       750  TIP3      H1            -25.7541849752       18.6082606768      -18.4234271492  WZ1       1822            0.0000000000
      2250       750  TIP3      H2            -25.0924849752       19.2515106768      -19.6235371492  WZ1       1822            0.0000000000
      2251       751  TIP3      OH2           -23.5938949752       20.2275406768      -20.0573171492  WZ1       1823            0.0000000000
      2252       751  TIP3      H1            -22.9170049752       19.5947706768      -20.2973971492  WZ1       1823            0.0000000000
      2253       751  TIP3      H2            -23.2720149752       20.6285906768      -19.2499871492  WZ1       1823            0.0000000000
      2254       752  TIP3      OH2           -18.6765149752        2.8170906768      -20.9778171492  WZ1       1824            0.0000000000
      2255       752  TIP3      H1            -19.4891649752        3.1421206768      -21.3653471492  WZ1       1824            0.0000000000
      2256       752  TIP3      H2            -18.4436649752        2.0569406768      -21.5109071492  WZ1       1824            0.0000000000
      2257       753  TIP3      OH2           -23.3429549752       19.1652806768      -23.0629471492  WZ1       1828            0.0000000000
      2258       753  TIP3      H1            -24.2475849752       19.3303006768      -23.3287371492  WZ1       1828            0.0000000000
      2259       753  TIP3      H2            -22.9140949752       20.0185006768      -23.1286071492  WZ1       1828            0.0000000000
      2260       754  TIP3      OH2           -20.7387649752       20.7351906768      -22.7681671492  WZ1       1829            0.0000000000
      2261       754  TIP3      H1            -20.9205649752       21.6510806768      -22.9786771492  WZ1       1829            0.0000000000
      2262       754  TIP3      H2            -20.5619849752       20.3249006768      -23.6147071492  WZ1       1829            0.0000000000
      2263       755  TIP3      OH2           -25.2466649752        4.2661506768      -26.6549971492  WZ1       1833            0.0000000000
      2264       755  TIP3      H1            -25.9209849752        3.6367106768      -26.3994171492  WZ1       1833            0.0000000000
      2265       755  TIP3      H2            -24.6827449752        3.7820406768      -27.2582071492  WZ1       1833            0.0000000000
      2266       756  TIP3      OH2           -20.1039449752        2.3735506768      -26.5422871492  WZ1       1834            0.0000000000
      2267       756  TIP3      H1            -19.5001849752        2.9210906768      -27.0441871492  WZ1       1834            0.0000000000
      2268       756  TIP3      H2            -20.9737449752        2.6925906768      -26.7828771492  WZ1       1834            0.0000000000
      2269       757  TIP3      OH2           -18.3769049752        3.5124206768      -28.2091971492  WZ1       1835            0.0000000000
      2270       757  TIP3      H1            -17.7651549752        2.9979906768      -28.7358371492  WZ1       1835            0.0000000000
      2271       757  TIP3      H2            -17.9945649752        4.3896306768      -28.1857571492  WZ1       1835            0.0000000000
      2272       758  TIP3      OH2           -32.9621149752        3.4143706768      -19.3153871492  WZ1       1846            0.0000000000
      2273       758  TIP3      H1            -33.3282949752        2.6486306768      -18.8729171492  WZ1       1846            0.0000000000
      2274       758  TIP3      H2            -32.0492649752        3.4433906768      -19.0288771492  WZ1       1846            0.0000000000
      2275       759  TIP3      OH2           -30.9890349752        2.7648106768      -17.7796771492  WZ1       1847            0.0000000000
      2276       759  TIP3      H1            -30.0906749752        2.4908306768      -17.9643371492  WZ1       1847            0.0000000000
      2277       759  TIP3      H2            -31.3757249752        2.0224106768      -17.3154171492  WZ1       1847            0.0000000000
      2278       760  TIP3      OH2           -22.5678049752        2.0973406768      -17.5973971492  WZ1       1849            0.0000000000
      2279       760  TIP3      H1            -22.4910849752        1.6714106768      -16.7436271492  WZ1       1849            0.0000000000
      2280       760  TIP3      H2            -21.6741449752        2.1108106768      -17.9400471492  WZ1       1849            0.0000000000
      2281       761  TIP3      OH2           -19.3916949752       18.1699706768      -18.9049771492  WZ1       1850            0.0000000000
      2282       761  TIP3      H1            -20.1735049752       17.9837706768      -19.4249171492  WZ1       1850            0.0000000000
      2283       761  TIP3      H2            -19.4637049752       19.0994006768      -18.6877271492  WZ1       1850            0.0000000000
      2284       762  TIP3      OH2            -4.9856549752       12.0564106768      -28.8742571492  WZ1       1851            0.0000000000
      2285       762  TIP3      H1             -4.8965449752       13.0002306768      -29.0065471492  WZ1       1851            0.0000000000
      2286       762  TIP3      H2             -5.6238949752       11.7810506768      -29.5323171492  WZ1       1851            0.0000000000
      2287       763  TIP3      OH2            -6.0525249752       11.3114806768      -25.4554371492  WZ1       1852            0.0000000000
      2288       763  TIP3      H1             -6.0907749752       10.6651106768      -24.7504771492  WZ1       1852            0.0000000000
      2289       763  TIP3      H2             -6.3748749752       10.8449206768      -26.2265671492  WZ1       1852            0.0000000000
      2290       764  TIP3      OH2           -13.6840249752       10.9256906768      -23.8624471492  WZ1       1853            0.0000000000
      2291       764  TIP3      H1            -13.6428149752       10.3000206768      -23.1392071492  WZ1       1853            0.0000000000
      2292       764  TIP3      H2            -12.9812549752       11.5495506768      -23.6804071492  WZ1       1853            0.0000000000
      2293       765  TIP3      OH2            -2.3465049752       14.2505206768      -27.1539271492  WZ1       1854            0.0000000000
      2294       765  TIP3      H1             -2.7872349752       13.5301206768      -26.7033671492  WZ1       1854            0.0000000000
      2295       765  TIP3      H2             -2.3595349752       14.9712406768      -26.5241571492  WZ1       1854            0.0000000000
      2296       766  TIP3      OH2           -12.7607149752       15.3755806768      -25.3275371492  WZ1       1855            0.0000000000
      2297       766  TIP3      H1            -13.1301949752       14.5736306768      -25.6971071492  WZ1       1855            0.0000000000
      2298       766  TIP3      H2            -11.8196049752       15.2070706768      -25.2811971492  WZ1       1855            0.0000000000
      2299       767  TIP3      OH2           -16.1506649752        9.0358406768      -29.9346571492  WZ1       1856            0.0000000000
      2300       767  TIP3      H1            -16.5983249752        9.8817106768      -29.9530071492  WZ1       1856            0.0000000000
      2301       767  TIP3      H2            -16.7115449752        8.4562606768      -30.4501471492  WZ1       1856            0.0000000000
      2302       768  TIP3      OH2           -15.4400549752       11.1978006768      -27.8088571492  WZ1       1857            0.0000000000
      2303       768  TIP3      H1            -15.2267049752       10.4279606768      -27.2815571492  WZ1       1857            0.0000000000
      2304       768  TIP3      H2            -14.7022949752       11.2874706768      -28.4120971492  WZ1       1857            0.0000000000
      2305       769  TIP3      OH2            -5.2349549752       19.3546906768      -26.9418871492  WZ1       1858            0.0000000000
      2306       769  TIP3      H1             -4.6153149752       18.6781606768      -27.2149671492  WZ1       1858            0.0000000000
      2307       769  TIP3      H2             -5.4432149752       19.1367706768      -26.0333971492  WZ1       1858            0.0000000000
      2308       770  TIP3      OH2            -7.6630849752       13.7436206768      -25.0493371492  WZ1       1859            0.0000000000
      2309       770  TIP3      H1             -7.3592949752       13.0577606768      -25.6439271492  WZ1       1859            0.0000000000
      2310       770  TIP3      H2             -6.9416849752       13.8624906768      -24.4315371492  WZ1       1859            0.0000000000
      2311       771  TIP3      OH2             0.9998950248        5.3451506768      -24.1887171492  WZ1       1860            0.0000000000
      2312       771  TIP3      H1              1.0491150248        5.9552706768      -23.4528071492  WZ1       1860            0.0000000000
      2313       771  TIP3      H2              1.4254050248        5.8062406768      -24.9116071492  WZ1       1860            0.0000000000
      2314       772  TIP3      OH2            -4.5223849752        8.1378606768      -24.7218571492  WZ1       1861            0.0000000000
      2315       772  TIP3      H1             -4.3797949752        7.1915606768      -24.7016971492  WZ1       1861            0.0000000000
      2316       772  TIP3      H2             -4.6284849752        8.3448406768      -25.6503671492  WZ1       1861            0.0000000000
      2317       773  TIP3      OH2           -11.3675549752        6.2395006768      -27.4493771492  WZ1       1862            0.0000000000
      2318       773  TIP3      H1            -11.3244449752        7.0993506768      -27.8677471492  WZ1       1862            0.0000000000
      2319       773  TIP3      H2            -11.8251449752        5.6869706768      -28.0830571492  WZ1       1862            0.0000000000
      2320       774  TIP3      OH2            -3.6452849752        6.3700606768      -29.0485471492  WZ1       1863            0.0000000000
      2321       774  TIP3      H1             -2.9988549752        6.0413806768      -28.4237871492  WZ1       1863            0.0000000000
      2322       774  TIP3      H2             -3.1353449752        6.8879606768      -29.6714071492  WZ1       1863            0.0000000000
      2323       775  TIP3      OH2           -14.7474049752        8.6360806768      -26.6872371492  WZ1       1864            0.0000000000
      2324       775  TIP3      H1            -14.0937449752        8.0862506768      -26.2552271492  WZ1       1864            0.0000000000
      2325       775  TIP3      H2            -14.7234749752        8.3619806768      -27.6040371492  WZ1       1864            0.0000000000
      2326       776  TIP3      OH2            -9.5909549752       10.1862106768      -27.4720871492  WZ1       1865            0.0000000000
      2327       776  TIP3      H1             -8.9748549752        9.6597506768      -26.9626871492  WZ1       1865            0.0000000000
      2328       776  TIP3      H2            -10.1770749752        9.5460806768      -27.8757271492  WZ1       1865            0.0000000000
      2329       777  TIP3      OH2             1.3913550248        6.8230706768      -21.9527371492  WZ1       1866            0.0000000000
      2330       777  TIP3      H1              0.7028150248        7.4811406768      -22.0480771492  WZ1       1866            0.0000000000
      2331       777  TIP3      H2              1.4068150248        6.6258606768      -21.0161971492  WZ1       1866            0.0000000000
      2332       778  TIP3      OH2           -12.5573649752        5.1573406768      -23.3752971492  WZ1       1867            0.0000000000
      2333       778  TIP3      H1            -12.7761949752        5.6874006768      -24.1416971492  WZ1       1867            0.0000000000
      2334       778  TIP3      H2            -13.2252749752        5.3838906768      -22.7281571492  WZ1       1867            0.0000000000
      2335       779  TIP3      OH2            -5.1883849752       14.6574506768      -29.8313871492  WZ1       1868            0.0000000000
      2336       779  TIP3      H1             -5.4838749752       14.3346806768      -30.6826971492  WZ1       1868            0.0000000000
      2337       779  TIP3      H2             -5.5126049752       15.5571206768      -29.7901271492  WZ1       1868            0.0000000000
      2338       780  TIP3      OH2            -9.9882249752       12.8329106768      -23.0879271492  WZ1       1869            0.0000000000
      2339       780  TIP3      H1            -10.7283149752       13.4310606768      -22.9844071492  WZ1       1869            0.0000000000
      2340       780  TIP3      H2             -9.2742749752       13.3868706768      -23.4035671492  WZ1       1869            0.0000000000
      2341       781  TIP3      OH2            -1.8814449752        5.6609906768      -27.0679571492  WZ1       1870            0.0000000000
      2342       781  TIP3      H1             -2.0966449752        4.8953306768      -26.5353571492  WZ1       1870            0.0000000000
      2343       781  TIP3      H2             -1.2257049752        6.1334506768      -26.5551071492  WZ1       1870            0.0000000000
      2344       782  TIP3      OH2           -12.9636349752        7.0495206768      -25.4230771492  WZ1       1871            0.0000000000
      2345       782  TIP3      H1            -12.3500049752        7.6822806768      -25.0498371492  WZ1       1871            0.0000000000
      2346       782  TIP3      H2            -12.4515649752        6.5770206768      -26.0793871492  WZ1       1871            0.0000000000
      2347       783  TIP3      OH2           -11.5807949752       14.7972106768      -22.3007771492  WZ1       1872            0.0000000000
      2348       783  TIP3      H1            -11.5860349752       15.6765606768      -22.6788471492  WZ1       1872            0.0000000000
      2349       783  TIP3      H2            -12.4343849752       14.7136206768      -21.8757871492  WZ1       1872            0.0000000000
      2350       784  TIP3      OH2           -15.4597049752       14.4680006768      -31.5188471492  WZ1       1873            0.0000000000
      2351       784  TIP3      H1            -15.7316149752       14.6971006768      -32.4075571492  WZ1       1873            0.0000000000
      2352       784  TIP3      H2            -15.4141349752       15.3058806768      -31.0583171492  WZ1       1873            0.0000000000
      2353       785  TIP3      OH2            -1.8347349752       16.0895906768      -24.8059971492  WZ1       1874            0.0000000000
      2354       785  TIP3      H1             -2.7763649752       16.1479806768      -24.6443071492  WZ1       1874            0.0000000000
      2355       785  TIP3      H2             -1.5581249752       16.9956406768      -24.9430271492  WZ1       1874            0.0000000000
      2356       786  TIP3      OH2            -1.5340349752        4.3761206768      -23.3886071492  WZ1       1875            0.0000000000
      2357       786  TIP3      H1             -2.2701149752        4.9868306768      -23.4264771492  WZ1       1875            0.0000000000
      2358       786  TIP3      H2             -0.8506349752        4.7910206768      -23.9149671492  WZ1       1875            0.0000000000
      2359       787  TIP3      OH2            -8.5308949752        2.4628506768      -25.9228071492  WZ1       1876            0.0000000000
      2360       787  TIP3      H1             -8.6484749752        1.5144506768      -25.9769771492  WZ1       1876            0.0000000000
      2361       787  TIP3      H2             -9.3858849752        2.7954606768      -25.6496971492  WZ1       1876            0.0000000000
      2362       788  TIP3      OH2            -3.5826149752       17.8709406768      -28.1808371492  WZ1       1877            0.0000000000
      2363       788  TIP3      H1             -3.1573849752       17.1637306768      -28.6658771492  WZ1       1877            0.0000000000
      2364       788  TIP3      H2             -3.2656149752       18.6722106768      -28.5976171492  WZ1       1877            0.0000000000
      2365       789  TIP3      OH2            -2.4229649752       15.7717906768      -29.6721771492  WZ1       1878            0.0000000000
      2366       789  TIP3      H1             -2.6804849752       15.0818006768      -30.2835871492  WZ1       1878            0.0000000000
      2367       789  TIP3      H2             -2.3518849752       15.3289106768      -28.8265871492  WZ1       1878            0.0000000000
      2368       790  TIP3      OH2            -0.7369449752       14.3384606768      -21.1948271492  WZ1       1879            0.0000000000
      2369       790  TIP3      H1             -0.5973149752       13.7467106768      -21.9341271492  WZ1       1879            0.0000000000
      2370       790  TIP3      H2             -0.5696649752       15.2110506768      -21.5509471492  WZ1       1879            0.0000000000
      2371       791  TIP3      OH2            -6.2644049752       11.3004106768      -31.4222271492  WZ1       1880            0.0000000000
      2372       791  TIP3      H1             -6.9758549752       11.8353806768      -31.7741771492  WZ1       1880            0.0000000000
      2373       791  TIP3      H2             -5.5734449752       11.3556206768      -32.0823371492  WZ1       1880            0.0000000000
      2374       792  TIP3      OH2            -6.2104849752        9.7578406768      -34.3837271492  WZ1       1881            0.0000000000
      2375       792  TIP3      H1             -5.5094949752        9.7805306768      -33.7323271492  WZ1       1881            0.0000000000
      2376       792  TIP3      H2             -5.9081949752        9.1298106768      -35.0397971492  WZ1       1881            0.0000000000
      2377       793  TIP3      OH2             1.1049850248       10.6782606768      -23.1287871492  WZ1       1882            0.0000000000
      2378       793  TIP3      H1              0.4523950248       11.3728206768      -23.0396971492  WZ1       1882            0.0000000000
      2379       793  TIP3      H2              1.5700150248       10.8883506768      -23.9386271492  WZ1       1882            0.0000000000
      2380       794  TIP3      OH2            -2.8586349752       11.5097406768      -30.4706371492  WZ1       1883            0.0000000000
      2381       794  TIP3      H1             -3.5905349752       11.7381106768      -29.8975771492  WZ1       1883            0.0000000000
      2382       794  TIP3      H2             -2.4114149752       10.7960106768      -30.0158871492  WZ1       1883            0.0000000000
      2383       795  TIP3      OH2            -2.9612849752        9.6840006768      -21.4029371492  WZ1       1884            0.0000000000
      2384       795  TIP3      H1             -2.8813749752       10.4474406768      -20.8310871492  WZ1       1884            0.0000000000
      2385       795  TIP3      H2             -3.5625149752        9.9632406768      -22.0934271492  WZ1       1884            0.0000000000
      2386       796  TIP3      OH2           -11.2132649752       12.1403606768      -28.5881371492  WZ1       1885            0.0000000000
      2387       796  TIP3      H1            -11.5437449752       11.7697006768      -29.4064371492  WZ1       1885            0.0000000000
      2388       796  TIP3      H2            -10.6248549752       11.4697606768      -28.2413071492  WZ1       1885            0.0000000000
      2389       797  TIP3      OH2            -9.8465149752       15.5684206768      -25.9069171492  WZ1       1886            0.0000000000
      2390       797  TIP3      H1             -9.9413849752       14.9897306768      -26.6634571492  WZ1       1886            0.0000000000
      2391       797  TIP3      H2             -9.1171549752       15.1969906768      -25.4106371492  WZ1       1886            0.0000000000
      2392       798  TIP3      OH2           -10.8467149752       10.9089206768      -24.9546371492  WZ1       1887            0.0000000000
      2393       798  TIP3      H1            -10.2814649752       11.0303406768      -25.7175171492  WZ1       1887            0.0000000000
      2394       798  TIP3      H2            -10.5278249752       11.5464206768      -24.3157871492  WZ1       1887            0.0000000000
      2395       799  TIP3      OH2            -4.5374949752       16.4121106768      -24.2205871492  WZ1       1888            0.0000000000
      2396       799  TIP3      H1             -4.7778349752       17.0744206768      -23.5726671492  WZ1       1888            0.0000000000
      2397       799  TIP3      H2             -4.7356749752       15.5776306768      -23.7956271492  WZ1       1888            0.0000000000
      2398       800  TIP3      OH2            -9.9666449752       15.3081906768      -20.2374471492  WZ1       1889            0.0000000000
      2399       800  TIP3      H1            -10.2778949752       16.0905106768      -19.7821271492  WZ1       1889            0.0000000000
      2400       800  TIP3      H2            -10.6166249752       15.1551006768      -20.9232471492  WZ1       1889            0.0000000000
      2401       801  TIP3      OH2            -3.9876849752       10.6720306768      -32.7855171492  WZ1       1890            0.0000000000
      2402       801  TIP3      H1             -3.4081349752       10.8220606768      -32.0386271492  WZ1       1890            0.0000000000
      2403       801  TIP3      H2             -3.5736849752       11.1427706768      -33.5088771492  WZ1       1890            0.0000000000
      2404       802  TIP3      OH2           -13.0466549752       11.5063006768      -21.0088771492  WZ1       1891            0.0000000000
      2405       802  TIP3      H1            -12.9763349752       12.1569806768      -20.3103771492  WZ1       1891            0.0000000000
      2406       802  TIP3      H2            -13.9374349752       11.6090506768      -21.3437871492  WZ1       1891            0.0000000000
      2407       803  TIP3      OH2            -6.2611949752       17.4088806768      -29.3502071492  WZ1       1892            0.0000000000
      2408       803  TIP3      H1             -5.7874349752       17.7045106768      -28.5727871492  WZ1       1892            0.0000000000
      2409       803  TIP3      H2             -6.8242649752       18.1470406768      -29.5832471492  WZ1       1892            0.0000000000
      2410       804  TIP3      OH2           -11.7270549752       17.3796906768      -19.4740671492  WZ1       1893            0.0000000000
      2411       804  TIP3      H1            -11.7195249752       17.2436606768      -20.4215171492  WZ1       1893            0.0000000000
      2412       804  TIP3      H2            -12.6430149752       17.2625006768      -19.2220671492  WZ1       1893            0.0000000000
      2413       805  TIP3      OH2            -0.2888449752        2.4220706768      -32.9725471492  WZ1       1894            0.0000000000
      2414       805  TIP3      H1             -1.1887749752        2.5609706768      -32.6774871492  WZ1       1894            0.0000000000
      2415       805  TIP3      H2             -0.0370049752        3.2535306768      -33.3743771492  WZ1       1894            0.0000000000
      2416       806  TIP3      OH2           -12.2229949752       11.2097906768      -30.9988571492  WZ1       1895            0.0000000000
      2417       806  TIP3      H1            -12.5148649752       11.9779606768      -31.4897271492  WZ1       1895            0.0000000000
      2418       806  TIP3      H2            -12.8974749752       10.5504106768      -31.1617171492  WZ1       1895            0.0000000000
      2419       807  TIP3      OH2           -16.1299849752       13.5727106768      -22.1838771492  WZ1       1897            0.0000000000
      2420       807  TIP3      H1            -16.6311449752       13.5446506768      -22.9989071492  WZ1       1897            0.0000000000
      2421       807  TIP3      H2            -16.1246149752       12.6670306768      -21.8741471492  WZ1       1897            0.0000000000
      2422       808  TIP3      OH2           -16.3797149752       16.3530906768      -25.2998571492  WZ1       1898            0.0000000000
      2423       808  TIP3      H1            -15.4336549752       16.2087906768      -25.3189071492  WZ1       1898            0.0000000000
      2424       808  TIP3      H2            -16.4920849752       17.1373706768      -24.7627371492  WZ1       1898            0.0000000000
      2425       809  TIP3      OH2             1.8181350248       17.0190606768      -19.6174871492  WZ1       1899            0.0000000000
      2426       809  TIP3      H1              1.7688150248       16.0638706768      -19.6547271492  WZ1       1899            0.0000000000
      2427       809  TIP3      H2              0.9913650248       17.2865906768      -19.2161071492  WZ1       1899            0.0000000000
      2428       810  TIP3      OH2            -7.2034649752       16.5929806768      -20.7413471492  WZ1       1900            0.0000000000
      2429       810  TIP3      H1             -7.1160049752       17.4194406768      -20.2664371492  WZ1       1900            0.0000000000
      2430       810  TIP3      H2             -8.0669549752       16.2633606768      -20.4924171492  WZ1       1900            0.0000000000
      2431       811  TIP3      OH2            -6.7888849752       20.3653506768      -30.9352871492  WZ1       1901            0.0000000000
      2432       811  TIP3      H1             -6.8642849752       20.2440706768      -31.8817671492  WZ1       1901            0.0000000000
      2433       811  TIP3      H2             -6.7560149752       21.3146206768      -30.8168271492  WZ1       1901            0.0000000000
      2434       812  TIP3      OH2           -13.1355049752       19.1540506768      -29.1543871492  WZ1       1902            0.0000000000
      2435       812  TIP3      H1            -12.9834649752       18.8060906768      -28.2757371492  WZ1       1902            0.0000000000
      2436       812  TIP3      H2            -13.9864649752       18.7977806768      -29.4096671492  WZ1       1902            0.0000000000
      2437       813  TIP3      OH2            -3.6872849752       19.5193706768      -33.9330471492  WZ1       1903            0.0000000000
      2438       813  TIP3      H1             -3.3124449752       18.7749806768      -34.4037871492  WZ1       1903            0.0000000000
      2439       813  TIP3      H2             -3.6829149752       19.2494306768      -33.0147171492  WZ1       1903            0.0000000000
      2440       814  TIP3      OH2            -4.0184749752       19.4450806768      -31.1838271492  WZ1       1904            0.0000000000
      2441       814  TIP3      H1             -4.9534949752       19.5452706768      -31.0051271492  WZ1       1904            0.0000000000
      2442       814  TIP3      H2             -3.7382849752       18.7356806768      -30.6055071492  WZ1       1904            0.0000000000
      2443       815  TIP3      OH2            -1.0298849752        8.5123106768      -19.1372671492  WZ1       1905            0.0000000000
      2444       815  TIP3      H1             -1.4372049752        8.9928706768      -19.8579371492  WZ1       1905            0.0000000000
      2445       815  TIP3      H2             -0.9893149752        7.6069106768      -19.4451871492  WZ1       1905            0.0000000000
      2446       816  TIP3      OH2           -13.8809349752       14.8962506768      -21.1405971492  WZ1       1906            0.0000000000
      2447       816  TIP3      H1            -13.6648049752       14.5348106768      -20.2810171492  WZ1       1906            0.0000000000
      2448       816  TIP3      H2            -14.7364649752       14.5216306768      -21.3502471492  WZ1       1906            0.0000000000
      2449       817  TIP3      OH2           -11.2621349752        3.3663006768      -25.1451771492  WZ1       1907            0.0000000000
      2450       817  TIP3      H1            -12.1237649752        3.2791206768      -25.5528871492  WZ1       1907            0.0000000000
      2451       817  TIP3      H2            -11.2845649752        4.2223106768      -24.7174171492  WZ1       1907            0.0000000000
      2452       818  TIP3      OH2            -6.5993549752        3.0883406768      -21.7704771492  WZ1       1908            0.0000000000
      2453       818  TIP3      H1             -6.1790449752        2.6730506768      -21.0174171492  WZ1       1908            0.0000000000
      2454       818  TIP3      H2             -7.5323949752        2.9096706768      -21.6532771492  WZ1       1908            0.0000000000
      2455       819  TIP3      OH2            -3.2728649752        6.8438606768      -20.9170271492  WZ1       1909            0.0000000000
      2456       819  TIP3      H1             -3.7869149752        6.7180806768      -20.1194271492  WZ1       1909            0.0000000000
      2457       819  TIP3      H2             -3.4283949752        7.7561706768      -21.1614071492  WZ1       1909            0.0000000000
      2458       820  TIP3      OH2            -2.5103749752       11.7048606768      -35.1557271492  WZ1       1910            0.0000000000
      2459       820  TIP3      H1             -2.4682949752       11.4822506768      -36.0857271492  WZ1       1910            0.0000000000
      2460       820  TIP3      H2             -1.6611649752       12.1035706768      -34.9657371492  WZ1       1910            0.0000000000
      2461       821  TIP3      OH2            -6.9376249752        5.5806806768      -34.4853971492  WZ1       1911            0.0000000000
      2462       821  TIP3      H1             -7.1911449752        5.5998406768      -33.5625871492  WZ1       1911            0.0000000000
      2463       821  TIP3      H2             -7.1944149752        4.7092206768      -34.7867771492  WZ1       1911            0.0000000000
      2464       822  TIP3      OH2           -11.1711249752        8.3317506768      -24.0501571492  WZ1       1912            0.0000000000
      2465       822  TIP3      H1            -11.8129149752        8.2914806768      -23.3411471492  WZ1       1912            0.0000000000
      2466       822  TIP3      H2            -11.1339249752        9.2582206768      -24.2878571492  WZ1       1912            0.0000000000
      2467       823  TIP3      OH2           -11.1742149752        8.5527606768      -29.1381571492  WZ1       1913            0.0000000000
      2468       823  TIP3      H1            -12.0669249752        8.2123706768      -29.1967771492  WZ1       1913            0.0000000000
      2469       823  TIP3      H2            -10.7235549752        8.1758506768      -29.8938371492  WZ1       1913            0.0000000000
      2470       824  TIP3      OH2            -5.6386649752        8.9687906768      -30.3210771492  WZ1       1914            0.0000000000
      2471       824  TIP3      H1             -6.0476349752        9.7836506768      -30.6125971492  WZ1       1914            0.0000000000
      2472       824  TIP3      H2             -4.9180449752        8.8288006768      -30.9353671492  WZ1       1914            0.0000000000
      2473       825  TIP3      OH2            -6.5365049752        9.1444306768      -18.8330071492  WZ1       1915            0.0000000000
      2474       825  TIP3      H1             -7.0991249752        8.4395906768      -18.5122271492  WZ1       1915            0.0000000000
      2475       825  TIP3      H2             -5.7101649752        9.0236206768      -18.3652471492  WZ1       1915            0.0000000000
      2476       826  TIP3      OH2            -4.6338949752        8.4148306768      -27.5071071492  WZ1       1916            0.0000000000
      2477       826  TIP3      H1             -4.8294449752        9.0205106768      -28.2220471492  WZ1       1916            0.0000000000
      2478       826  TIP3      H2             -4.4526349752        7.5813506768      -27.9414771492  WZ1       1916            0.0000000000
      2479       827  TIP3      OH2           -13.4210749752        8.6521006768      -22.1829571492  WZ1       1917            0.0000000000
      2480       827  TIP3      H1            -13.4591349752        9.0522606768      -21.3142471492  WZ1       1917            0.0000000000
      2481       827  TIP3      H2            -13.9119649752        7.8353406768      -22.0926671492  WZ1       1917            0.0000000000
      2482       828  TIP3      OH2           -10.0553349752        6.0263306768      -35.3843571492  WZ1       1918            0.0000000000
      2483       828  TIP3      H1            -10.4862649752        5.5813406768      -34.6546171492  WZ1       1918            0.0000000000
      2484       828  TIP3      H2            -10.7734649752        6.3979606768      -35.8966071492  WZ1       1918            0.0000000000
      2485       829  TIP3      OH2           -16.8129949752        5.7682806768      -28.3324871492  WZ1       1919            0.0000000000
      2486       829  TIP3      H1            -16.1822249752        5.7394906768      -27.6130971492  WZ1       1919            0.0000000000
      2487       829  TIP3      H2            -16.3635649752        5.3431506768      -29.0628971492  WZ1       1919            0.0000000000
      2488       830  TIP3      OH2           -15.5387849752        6.5144806768      -32.9084471492  WZ1       1920            0.0000000000
      2489       830  TIP3      H1            -15.0646149752        7.1054706768      -33.4933571492  WZ1       1920            0.0000000000
      2490       830  TIP3      H2            -16.2561449752        7.0447706768      -32.5614371492  WZ1       1920            0.0000000000
      2491       831  TIP3      OH2            -5.3699749752       10.0529606768      -22.8358671492  WZ1       1921            0.0000000000
      2492       831  TIP3      H1             -5.0464949752        9.4219306768      -23.4788171492  WZ1       1921            0.0000000000
      2493       831  TIP3      H2             -5.8100449752        9.5181806768      -22.1751271492  WZ1       1921            0.0000000000
      2494       832  TIP3      OH2            -8.5926849752        5.9805106768      -28.0517471492  WZ1       1922            0.0000000000
      2495       832  TIP3      H1             -9.5035749752        6.0371906768      -27.7631471492  WZ1       1922            0.0000000000
      2496       832  TIP3      H2             -8.0873949752        5.9200606768      -27.2410271492  WZ1       1922            0.0000000000
      2497       833  TIP3      OH2           -13.7643449752        7.6091406768      -29.2249871492  WZ1       1923            0.0000000000
      2498       833  TIP3      H1            -14.6535449752        7.7086906768      -29.5650271492  WZ1       1923            0.0000000000
      2499       833  TIP3      H2            -13.4678549752        6.7674406768      -29.5711971492  WZ1       1923            0.0000000000
      2500       834  TIP3      OH2           -10.1111649752        7.6094006768      -31.5685271492  WZ1       1924            0.0000000000
      2501       834  TIP3      H1             -9.1796149752        7.7384006768      -31.3902171492  WZ1       1924            0.0000000000
      2502       834  TIP3      H2            -10.3261349752        8.2788306768      -32.2180571492  WZ1       1924            0.0000000000
      2503       835  TIP3      OH2            -4.1874949752        5.2151406768      -24.7875671492  WZ1       1925            0.0000000000
      2504       835  TIP3      H1             -4.8643349752        5.3464506768      -24.1235971492  WZ1       1925            0.0000000000
      2505       835  TIP3      H2             -4.6730049752        5.0600906768      -25.5977971492  WZ1       1925            0.0000000000
      2506       836  TIP3      OH2           -11.4371449752        8.8036206768      -34.0019171492  WZ1       1926            0.0000000000
      2507       836  TIP3      H1            -11.9796349752        8.4240006768      -34.6931571492  WZ1       1926            0.0000000000
      2508       836  TIP3      H2            -10.6036549752        8.9980906768      -34.4305071492  WZ1       1926            0.0000000000
      2509       837  TIP3      OH2            -0.8999849752       20.8866806768      -18.5108071492  WZ1       1927            0.0000000000
      2510       837  TIP3      H1             -0.7001149752       21.3108706768      -19.3452771492  WZ1       1927            0.0000000000
      2511       837  TIP3      H2             -0.2446149752       21.2305006768      -17.9037671492  WZ1       1927            0.0000000000
      2512       838  TIP3      OH2           -13.3020049752       13.3608106768      -18.9027571492  WZ1       1928            0.0000000000
      2513       838  TIP3      H1            -12.5697649752       13.6154006768      -18.3413071492  WZ1       1928            0.0000000000
      2514       838  TIP3      H2            -14.0821349752       13.5653506768      -18.3872171492  WZ1       1928            0.0000000000
      2515       839  TIP3      OH2            -7.2727149752        8.7678106768      -26.1647871492  WZ1       1929            0.0000000000
      2516       839  TIP3      H1             -6.7083749752        8.2214706768      -26.7118271492  WZ1       1929            0.0000000000
      2517       839  TIP3      H2             -7.4203749752        8.2460006768      -25.3760271492  WZ1       1929            0.0000000000
      2518       840  TIP3      OH2           -12.2707449752        4.9044206768      -29.7463071492  WZ1       1930            0.0000000000
      2519       840  TIP3      H1            -12.5877949752        4.0019506768      -29.7817671492  WZ1       1930            0.0000000000
      2520       840  TIP3      H2            -11.4893349752        4.9061606768      -30.2991471492  WZ1       1930            0.0000000000
      2521       841  TIP3      OH2            -8.6461249752        7.1564206768      -23.7507471492  WZ1       1931            0.0000000000
      2522       841  TIP3      H1             -9.4815949752        7.6103706768      -23.6405071492  WZ1       1931            0.0000000000
      2523       841  TIP3      H2             -8.1220649752        7.4322706768      -22.9987571492  WZ1       1931            0.0000000000
      2524       842  TIP3      OH2            -8.1018649752       13.3691906768      -32.0661071492  WZ1       1932            0.0000000000
      2525       842  TIP3      H1             -8.8467649752       12.8617206768      -32.3883171492  WZ1       1932            0.0000000000
      2526       842  TIP3      H2             -8.2361449752       13.4179906768      -31.1196271492  WZ1       1932            0.0000000000
      2527       843  TIP3      OH2            -0.9519749752       12.5020106768      -23.2793471492  WZ1       1933            0.0000000000
      2528       843  TIP3      H1             -0.3100949752       12.9586406768      -23.8231271492  WZ1       1933            0.0000000000
      2529       843  TIP3      H2             -1.7822849752       12.6152506768      -23.7419371492  WZ1       1933            0.0000000000
      2530       844  TIP3      OH2            -4.2041849752        6.1831806768      -33.8668471492  WZ1       1934            0.0000000000
      2531       844  TIP3      H1             -5.1427649752        6.2947406768      -34.0179671492  WZ1       1934            0.0000000000
      2532       844  TIP3      H2             -3.9069749752        7.0398706768      -33.5602771492  WZ1       1934            0.0000000000
      2533       845  TIP3      OH2            -6.5826549752       13.5535206768      -20.8291971492  WZ1       1935            0.0000000000
      2534       845  TIP3      H1             -6.9280449752       13.1717606768      -20.0222371492  WZ1       1935            0.0000000000
      2535       845  TIP3      H2             -6.7826449752       14.4868806768      -20.7579071492  WZ1       1935            0.0000000000
      2536       846  TIP3      OH2            -3.4858349752        8.0504506768      -32.2061071492  WZ1       1936            0.0000000000
      2537       846  TIP3      H1             -2.5939349752        7.9129506768      -31.8869871492  WZ1       1936            0.0000000000
      2538       846  TIP3      H2             -3.4294749752        8.8410606768      -32.7427571492  WZ1       1936            0.0000000000
      2539       847  TIP3      OH2           -12.9770349752       12.6641906768      -26.2963171492  WZ1       1937            0.0000000000
      2540       847  TIP3      H1            -12.2323149752       12.6617606768      -26.8976671492  WZ1       1937            0.0000000000
      2541       847  TIP3      H2            -12.8993749752       11.8405706768      -25.8148071492  WZ1       1937            0.0000000000
      2542       848  TIP3      OH2            -5.9764549752       14.8276206768      -33.0406471492  WZ1       1938            0.0000000000
      2543       848  TIP3      H1             -6.2716149752       15.6544106768      -32.6591671492  WZ1       1938            0.0000000000
      2544       848  TIP3      H2             -6.6794549752       14.2083106768      -32.8445071492  WZ1       1938            0.0000000000
      2545       849  TIP3      OH2           -15.9690649752       11.1248806768      -20.9814671492  WZ1       1939            0.0000000000
      2546       849  TIP3      H1            -15.7462049752       10.7068406768      -20.1497171492  WZ1       1939            0.0000000000
      2547       849  TIP3      H2            -16.5710549752       10.5123806768      -21.4041871492  WZ1       1939            0.0000000000
      2548       850  TIP3      OH2            -8.9525749752       10.6418706768      -18.7684971492  WZ1       1940            0.0000000000
      2549       850  TIP3      H1             -9.2484949752       10.4761706768      -19.6635871492  WZ1       1940            0.0000000000
      2550       850  TIP3      H2             -8.0210549752       10.4219006768      -18.7791071492  WZ1       1940            0.0000000000
      2551       851  TIP3      OH2            -4.3322949752       16.0150706768      -20.8786971492  WZ1       1941            0.0000000000
      2552       851  TIP3      H1             -5.2328649752       16.1983306768      -21.1463071492  WZ1       1941            0.0000000000
      2553       851  TIP3      H2             -4.2981849752       16.2740006768      -19.9578171492  WZ1       1941            0.0000000000
      2554       852  TIP3      OH2             1.3990350248        8.2598606768      -32.5114371492  WZ1       1942            0.0000000000
      2555       852  TIP3      H1              0.8446650248        7.8636606768      -33.1836871492  WZ1       1942            0.0000000000
      2556       852  TIP3      H2              1.4993950248        9.1703806768      -32.7891071492  WZ1       1942            0.0000000000
      2557       853  TIP3      OH2             1.3622350248       14.0600306768      -19.6742871492  WZ1       1943            0.0000000000
      2558       853  TIP3      H1              0.5110850248       14.2984106768      -20.0416471492  WZ1       1943            0.0000000000
      2559       853  TIP3      H2              1.9525750248       14.0433506768      -20.4275771492  WZ1       1943            0.0000000000
      2560       854  TIP3      OH2            -0.3057949752       17.0459006768      -32.0462271492  WZ1       1944            0.0000000000
      2561       854  TIP3      H1             -0.6786849752       16.2202806768      -31.7371671492  WZ1       1944            0.0000000000
      2562       854  TIP3      H2             -0.0284449752       16.8628406768      -32.9438871492  WZ1       1944            0.0000000000
      2563       855  TIP3      OH2            -3.1454049752       11.8538506768      -25.0250371492  WZ1       1945            0.0000000000
      2564       855  TIP3      H1             -4.0737149752       11.6220406768      -25.0521071492  WZ1       1945            0.0000000000
      2565       855  TIP3      H2             -2.6942949752       11.0768306768      -25.3551571492  WZ1       1945            0.0000000000
      2566       856  TIP3      OH2           -10.6020949752       16.1820106768      -28.8921671492  WZ1       1946            0.0000000000
      2567       856  TIP3      H1            -10.0748749752       16.9554506768      -29.0922871492  WZ1       1946            0.0000000000
      2568       856  TIP3      H2            -11.4822449752       16.4069306768      -29.1937671492  WZ1       1946            0.0000000000
      2569       857  TIP3      OH2           -14.8473249752       11.0444206768      -34.3049271492  WZ1       1947            0.0000000000
      2570       857  TIP3      H1            -14.2313349752       11.6711406768      -33.9254471492  WZ1       1947            0.0000000000
      2571       857  TIP3      H2            -15.7090649752       11.3604006768      -34.0332771492  WZ1       1947            0.0000000000
      2572       858  TIP3      OH2            -9.1748649752       13.8450006768      -29.3157371492  WZ1       1948            0.0000000000
      2573       858  TIP3      H1             -9.4158649752       14.7704406768      -29.2742071492  WZ1       1948            0.0000000000
      2574       858  TIP3      H2             -9.9155049752       13.3861306768      -28.9193471492  WZ1       1948            0.0000000000
      2575       859  TIP3      OH2            -8.6602049752       17.9943606768      -23.0006271492  WZ1       1949            0.0000000000
      2576       859  TIP3      H1             -8.2977349752       18.8489206768      -23.2341871492  WZ1       1949            0.0000000000
      2577       859  TIP3      H2             -8.1286849752       17.7025206768      -22.2599971492  WZ1       1949            0.0000000000
      2578       860  TIP3      OH2           -10.4917849752       18.8667606768      -29.7705171492  WZ1       1950            0.0000000000
      2579       860  TIP3      H1            -11.4417349752       18.9725006768      -29.7191871492  WZ1       1950            0.0000000000
      2580       860  TIP3      H2            -10.1399749752       19.6875006768      -29.4257671492  WZ1       1950            0.0000000000
      2581       861  TIP3      OH2            -5.1161249752       14.0934306768      -23.3000671492  WZ1       1951            0.0000000000
      2582       861  TIP3      H1             -5.5419949752       13.8656006768      -22.4736671492  WZ1       1951            0.0000000000
      2583       861  TIP3      H2             -4.5355449752       13.3546106768      -23.4825371492  WZ1       1951            0.0000000000
      2584       862  TIP3      OH2            -2.9132349752       15.0224806768      -34.2261671492  WZ1       1952            0.0000000000
      2585       862  TIP3      H1             -2.5599249752       14.6424606768      -33.4218171492  WZ1       1952            0.0000000000
      2586       862  TIP3      H2             -3.8618849752       14.9289606768      -34.1392371492  WZ1       1952            0.0000000000
      2587       863  TIP3      OH2            -2.4577049752       18.6453806768      -20.8305871492  WZ1       1953            0.0000000000
      2588       863  TIP3      H1             -3.0593849752       18.0896706768      -21.3259571492  WZ1       1953            0.0000000000
      2589       863  TIP3      H2             -2.1763349752       19.3123606768      -21.4568471492  WZ1       1953            0.0000000000
      2590       864  TIP3      OH2           -14.3351149752        5.8781506768      -21.4233271492  WZ1       1955            0.0000000000
      2591       864  TIP3      H1            -15.2278849752        6.2166906768      -21.4909271492  WZ1       1955            0.0000000000
      2592       864  TIP3      H2            -14.4338349752        5.0227606768      -21.0052471492  WZ1       1955            0.0000000000
      2593       865  TIP3      OH2            -2.0473049752       13.6946806768      -31.9993771492  WZ1       1956            0.0000000000
      2594       865  TIP3      H1             -2.3245449752       12.9666106768      -31.4432671492  WZ1       1956            0.0000000000
      2595       865  TIP3      H2             -1.1200049752       13.8138806768      -31.7941171492  WZ1       1956            0.0000000000
      2596       866  TIP3      OH2           -14.6839149752       17.6825906768      -22.9883871492  WZ1       1957            0.0000000000
      2597       866  TIP3      H1            -14.4668849752       16.7508306768      -23.0194171492  WZ1       1957            0.0000000000
      2598       866  TIP3      H2            -14.4375649752       17.9570906768      -22.1051071492  WZ1       1957            0.0000000000
      2599       867  TIP3      OH2            -9.8853949752       15.7044706768      -33.3229071492  WZ1       1959            0.0000000000
      2600       867  TIP3      H1             -9.7385949752       15.1844506768      -32.5328171492  WZ1       1959            0.0000000000
      2601       867  TIP3      H2             -9.8882249752       16.6112306768      -33.0163171492  WZ1       1959            0.0000000000
      2602       868  TIP3      OH2           -13.4322849752       12.9568006768      -32.8123671492  WZ1       1960            0.0000000000
      2603       868  TIP3      H1            -14.1183549752       13.3090506768      -32.2453971492  WZ1       1960            0.0000000000
      2604       868  TIP3      H2            -12.9094949752       13.7197606768      -33.0589371492  WZ1       1960            0.0000000000
      2605       869  TIP3      OH2            -5.6007749752        5.6191806768      -22.5334671492  WZ1       1961            0.0000000000
      2606       869  TIP3      H1             -4.9019849752        5.6930506768      -21.8834971492  WZ1       1961            0.0000000000
      2607       869  TIP3      H2             -5.9816349752        4.7546806768      -22.3791771492  WZ1       1961            0.0000000000
      2608       870  TIP3      OH2            -4.8162849752        5.2713506768      -31.4362371492  WZ1       1962            0.0000000000
      2609       870  TIP3      H1             -4.5964549752        5.7428906768      -32.2396971492  WZ1       1962            0.0000000000
      2610       870  TIP3      H2             -4.2578849752        5.6656106768      -30.7661771492  WZ1       1962            0.0000000000
      2611       871  TIP3      OH2            -7.1476749752       17.4018306768      -32.5734871492  WZ1       1963            0.0000000000
      2612       871  TIP3      H1             -7.9640649752       17.8988006768      -32.5210571492  WZ1       1963            0.0000000000
      2613       871  TIP3      H2             -6.6180449752       17.8771806768      -33.2136071492  WZ1       1963            0.0000000000
      2614       872  TIP3      OH2            -7.6162949752        6.9992306768      -30.6013971492  WZ1       1964            0.0000000000
      2615       872  TIP3      H1             -6.8040349752        7.5035506768      -30.5552271492  WZ1       1964            0.0000000000
      2616       872  TIP3      H2             -7.8609949752        6.8542006768      -29.6874371492  WZ1       1964            0.0000000000
      2617       873  TIP3      OH2            -7.0806549752        7.9855006768      -21.4167371492  WZ1       1965            0.0000000000
      2618       873  TIP3      H1             -6.9616249752        8.5590406768      -20.6596971492  WZ1       1965            0.0000000000
      2619       873  TIP3      H2             -6.4251949752        7.2974406768      -21.3019571492  WZ1       1965            0.0000000000
      2620       874  TIP3      OH2            -6.7326249752        4.0805306768      -29.6632871492  WZ1       1966            0.0000000000
      2621       874  TIP3      H1             -7.0792749752        4.6975906768      -29.0188571492  WZ1       1966            0.0000000000
      2622       874  TIP3      H2             -6.0739349752        4.5811006768      -30.1447371492  WZ1       1966            0.0000000000
      2623       875  TIP3      OH2           -11.0749249752        5.1434706768      -32.9760371492  WZ1       1968            0.0000000000
      2624       875  TIP3      H1            -11.1584449752        6.0317806768      -32.6293971492  WZ1       1968            0.0000000000
      2625       875  TIP3      H2            -10.1848949752        4.8781406768      -32.7443571492  WZ1       1968            0.0000000000
      2626       876  TIP3      OH2            -0.8760749752        5.8925306768      -20.5817671492  WZ1       1969            0.0000000000
      2627       876  TIP3      H1             -1.7924949752        6.1547006768      -20.6693971492  WZ1       1969            0.0000000000
      2628       876  TIP3      H2             -0.5405749752        5.8894306768      -21.4782371492  WZ1       1969            0.0000000000
      2629       877  TIP3      OH2            -2.2739749752        9.6426306768      -26.4860371492  WZ1       1970            0.0000000000
      2630       877  TIP3      H1             -3.0715349752        9.2276506768      -26.8145371492  WZ1       1970            0.0000000000
      2631       877  TIP3      H2             -1.8288649752        8.9520006768      -25.9949871492  WZ1       1970            0.0000000000
      2632       878  TIP3      OH2            -1.1875149752       18.8988806768      -24.8636871492  WZ1       1973            0.0000000000
      2633       878  TIP3      H1             -1.3430849752       19.5773206768      -25.5207571492  WZ1       1973            0.0000000000
      2634       878  TIP3      H2             -0.2548749752       18.9708106768      -24.6606271492  WZ1       1973            0.0000000000
      2635       879  TIP3      OH2           -13.6922749752        3.0166506768      -26.1265471492  WZ1       1974            0.0000000000
      2636       879  TIP3      H1            -13.9212949752        3.0759006768      -27.0540471492  WZ1       1974            0.0000000000
      2637       879  TIP3      H2            -14.1349349752        2.2252006768      -25.8201371492  WZ1       1974            0.0000000000
      2638       880  TIP3      OH2           -14.7619449752       16.9573606768      -29.9659671492  WZ1       1975            0.0000000000
      2639       880  TIP3      H1            -15.5940849752       17.4296306768      -29.9388271492  WZ1       1975            0.0000000000
      2640       880  TIP3      H2            -14.2161149752       17.4671206768      -30.5646571492  WZ1       1975            0.0000000000
      2641       881  TIP3      OH2           -15.4735749752       19.5697306768      -18.6361671492  WZ1       1976            0.0000000000
      2642       881  TIP3      H1            -14.9333549752       19.3531306768      -17.8762471492  WZ1       1976            0.0000000000
      2643       881  TIP3      H2            -15.9547749752       18.7643306768      -18.8259171492  WZ1       1976            0.0000000000
      2644       882  TIP3      OH2           -10.8762349752       18.4891706768      -17.0157471492  WZ1       1977            0.0000000000
      2645       882  TIP3      H1            -10.1085149752       18.0302506768      -16.6748271492  WZ1       1977            0.0000000000
      2646       882  TIP3      H2            -10.8976149752       18.2631506768      -17.9456271492  WZ1       1977            0.0000000000
      2647       883  TIP3      OH2            -4.2993649752       16.8692806768      -18.2865971492  WZ1       1979            0.0000000000
      2648       883  TIP3      H1             -4.6504149752       16.0125806768      -18.0435571492  WZ1       1979            0.0000000000
      2649       883  TIP3      H2             -3.5730449752       17.0119506768      -17.6796971492  WZ1       1979            0.0000000000
      2650       884  TIP3      OH2           -15.5666249752       13.3801406768      -17.6817371492  WZ1       1981            0.0000000000
      2651       884  TIP3      H1            -15.4225749752       12.4782106768      -17.9680671492  WZ1       1981            0.0000000000
      2652       884  TIP3      H2            -16.3388849752       13.6663506768      -18.1695071492  WZ1       1981            0.0000000000
      2653       885  TIP3      OH2           -11.2252549752       13.7237106768      -35.5492771492  WZ1       1982            0.0000000000
      2654       885  TIP3      H1            -11.1608449752       12.9296706768      -35.0186371492  WZ1       1982            0.0000000000
      2655       885  TIP3      H2            -10.5723349752       13.6049906768      -36.2390771492  WZ1       1982            0.0000000000
      2656       886  TIP3      OH2            -8.9110149752       13.3499506768      -18.2490971492  WZ1       1983            0.0000000000
      2657       886  TIP3      H1             -9.2396349752       13.6207606768      -19.1063571492  WZ1       1983            0.0000000000
      2658       886  TIP3      H2             -8.7591949752       12.4089306768      -18.3365971492  WZ1       1983            0.0000000000
      2659       887  TIP3      OH2            -5.8729149752       14.7708806768      -35.8134771492  WZ1       1984            0.0000000000
      2660       887  TIP3      H1             -6.1415049752       14.9510906768      -34.9125871492  WZ1       1984            0.0000000000
      2661       887  TIP3      H2             -6.0793549752       13.8455006768      -35.9448971492  WZ1       1984            0.0000000000
      2662       888  TIP3      OH2            -3.1764949752       13.2656806768      -20.8658671492  WZ1       1985            0.0000000000
      2663       888  TIP3      H1             -2.4310149752       13.8540506768      -20.9854671492  WZ1       1985            0.0000000000
      2664       888  TIP3      H2             -3.9338149752       13.8476506768      -20.8025571492  WZ1       1985            0.0000000000
      2665       889  TIP3      OH2           -14.7339749752       10.5804706768      -18.2618071492  WZ1       1986            0.0000000000
      2666       889  TIP3      H1            -14.3258549752        9.7231306768      -18.3827471492  WZ1       1986            0.0000000000
      2667       889  TIP3      H2            -14.9942149752       10.5946006768      -17.3407771492  WZ1       1986            0.0000000000
      2668       890  TIP3      OH2           -10.0758749752       11.6963306768      -33.2434771492  WZ1       1987            0.0000000000
      2669       890  TIP3      H1            -10.5356749752       11.2121606768      -32.5576271492  WZ1       1987            0.0000000000
      2670       890  TIP3      H2             -9.8210049752       11.0278706768      -33.8794271492  WZ1       1987            0.0000000000
      2671       891  TIP3      OH2           -10.7869449752        9.5890406768      -20.8875171492  WZ1       1988            0.0000000000
      2672       891  TIP3      H1            -11.4053349752       10.2637006768      -20.6070471492  WZ1       1988            0.0000000000
      2673       891  TIP3      H2            -10.4428249752        9.9104306768      -21.7208971492  WZ1       1988            0.0000000000
      2674       892  TIP3      OH2            -9.0048349752        9.9395106768      -34.9811571492  WZ1       1989            0.0000000000
      2675       892  TIP3      H1             -9.1853349752        9.7846306768      -35.9083271492  WZ1       1989            0.0000000000
      2676       892  TIP3      H2             -8.0547849752       10.0473806768      -34.9363671492  WZ1       1989            0.0000000000
      2677       893  TIP3      OH2            -5.7671249752       12.0605706768      -17.6100371492  WZ1       1990            0.0000000000
      2678       893  TIP3      H1             -4.8140049752       12.1444806768      -17.6374371492  WZ1       1990            0.0000000000
      2679       893  TIP3      H2             -5.9276649752       11.3487506768      -16.9905471492  WZ1       1990            0.0000000000
      2680       894  TIP3      OH2           -10.4475749752        6.9441206768      -19.8052071492  WZ1       1992            0.0000000000
      2681       894  TIP3      H1            -10.2974849752        6.2152506768      -20.4072371492  WZ1       1992            0.0000000000
      2682       894  TIP3      H2            -10.4453349752        7.7212906768      -20.3639871492  WZ1       1992            0.0000000000
      2683       895  TIP3      OH2           -10.0350049752        5.3137006768      -22.3124671492  WZ1       1993            0.0000000000
      2684       895  TIP3      H1             -9.4992549752        5.7653706768      -22.9645371492  WZ1       1993            0.0000000000
      2685       895  TIP3      H2            -10.8870449752        5.2056806768      -22.7350571492  WZ1       1993            0.0000000000
      2686       896  TIP3      OH2            -8.4531649752       10.7533206768      -22.0729471492  WZ1       1994            0.0000000000
      2687       896  TIP3      H1             -7.7026849752       10.5970706768      -22.6461671492  WZ1       1994            0.0000000000
      2688       896  TIP3      H2             -8.7923349752       11.6049806768      -22.3483971492  WZ1       1994            0.0000000000
      2689       897  TIP3      OH2            -4.0375449752        8.5685006768      -17.0444171492  WZ1       1995            0.0000000000
      2690       897  TIP3      H1             -3.8454149752        7.6374406768      -17.1559671492  WZ1       1995            0.0000000000
      2691       897  TIP3      H2             -3.1799149752        8.9934506768      -17.0548771492  WZ1       1995            0.0000000000
      2692       898  TIP3      OH2            -2.7208249752       11.3570206768      -18.9671471492  WZ1       1996            0.0000000000
      2693       898  TIP3      H1             -3.0023249752       12.0664806768      -19.5447671492  WZ1       1996            0.0000000000
      2694       898  TIP3      H2             -1.7783949752       11.2843206768      -19.1180271492  WZ1       1996            0.0000000000
      2695       899  TIP3      OH2           -11.9689449752        8.1424706768      -17.8936471492  WZ1       1997            0.0000000000
      2696       899  TIP3      H1            -12.7360449752        7.6099506768      -18.1038871492  WZ1       1997            0.0000000000
      2697       899  TIP3      H2            -11.2900449752        7.8325106768      -18.4930171492  WZ1       1997            0.0000000000
      2698       900  TIP3      OH2            -9.2294549752        2.7702706768      -21.8811071492  WZ1       1998            0.0000000000
      2699       900  TIP3      H1             -9.3274949752        3.7165906768      -21.9864871492  WZ1       1998            0.0000000000
      2700       900  TIP3      H2             -9.9718349752        2.3976506768      -22.3567571492  WZ1       1998            0.0000000000
      2701       901  TIP3      OH2            -7.9654049752        7.0918106768      -18.3172671492  WZ1       1999            0.0000000000
      2702       901  TIP3      H1             -8.2008649752        6.8724806768      -17.4157771492  WZ1       1999            0.0000000000
      2703       901  TIP3      H2             -8.7487149752        6.8849306768      -18.8270171492  WZ1       1999            0.0000000000
      2704       902  TIP3      OH2            -5.2497449752        6.2191606768      -19.2419171492  WZ1       2000            0.0000000000
      2705       902  TIP3      H1             -6.1972049752        6.2511306768      -19.1095871492  WZ1       2000            0.0000000000
      2706       902  TIP3      H2             -4.9370749752        5.5938706768      -18.5880971492  WZ1       2000            0.0000000000
      2707       903  TIP3      OH2            -3.6155949752        4.8532706768      -17.2367271492  WZ1       2001            0.0000000000
      2708       903  TIP3      H1             -3.7124149752        3.9010006768      -17.2425371492  WZ1       2001            0.0000000000
      2709       903  TIP3      H2             -3.9372849752        5.1219506768      -16.3761771492  WZ1       2001            0.0000000000
      2710       904  TIP3      OH2           -13.7886649752        6.0628506768      -18.1891771492  WZ1       2002            0.0000000000
      2711       904  TIP3      H1            -13.5769249752        5.3564606768      -18.7994271492  WZ1       2002            0.0000000000
      2712       904  TIP3      H2            -13.8999149752        5.6254506768      -17.3450571492  WZ1       2002            0.0000000000
      2713       905  TIP3      OH2            -9.0076449752        2.0640106768      -19.2098271492  WZ1       2003            0.0000000000
      2714       905  TIP3      H1             -8.2958049752        1.4242306768      -19.2239171492  WZ1       2003            0.0000000000
      2715       905  TIP3      H2             -9.1086049752        2.3308406768      -20.1235171492  WZ1       2003            0.0000000000
      2716       906  TIP3      OH2            -8.6538949752        3.7468506768      -17.1561971492  WZ1       2004            0.0000000000
      2717       906  TIP3      H1             -8.7856749752        3.2712306768      -17.9763471492  WZ1       2004            0.0000000000
      2718       906  TIP3      H2             -9.2531549752        4.4912106768      -17.2114871492  WZ1       2004            0.0000000000
      2719       907  TIP3      OH2           -16.0201949752       18.7398106768      -27.6149771492  WZ1       2008            0.0000000000
      2720       907  TIP3      H1            -16.3545149752       17.8595406768      -27.4429571492  WZ1       2008            0.0000000000
      2721       907  TIP3      H2            -15.7979549752       19.0853106768      -26.7504171492  WZ1       2008            0.0000000000
      2722       908  TIP3      OH2             1.5282850248       19.5494506768      -24.6344971492  WZ1       2009            0.0000000000
      2723       908  TIP3      H1              1.5069550248       19.7342906768      -23.6955571492  WZ1       2009            0.0000000000
      2724       908  TIP3      H2              2.2189050248       20.1178506768      -24.9753571492  WZ1       2009            0.0000000000
      2725       909  TIP3      OH2             1.0915750248       19.1165606768      -21.7125871492  WZ1       2010            0.0000000000
      2726       909  TIP3      H1              0.6044450248       18.3809706768      -22.0838471492  WZ1       2010            0.0000000000
      2727       909  TIP3      H2              1.6408450248       18.7229506768      -21.0346471492  WZ1       2010            0.0000000000
      2728       910  TIP3      OH2            -0.4576949752       14.9063706768      -17.0745571492  WZ1       2011            0.0000000000
      2729       910  TIP3      H1             -1.3235849752       14.8013406768      -16.6803271492  WZ1       2011            0.0000000000
      2730       910  TIP3      H2             -0.0811049752       15.6647006768      -16.6280871492  WZ1       2011            0.0000000000
      2731       911  TIP3      OH2             0.8432750248       13.1627406768      -31.5603071492  WZ1       2012            0.0000000000
      2732       911  TIP3      H1              1.6934150248       13.5838306768      -31.4331471492  WZ1       2012            0.0000000000
      2733       911  TIP3      H2              0.8487850248       12.4227506768      -30.9531671492  WZ1       2012            0.0000000000
      2734       912  TIP3      OH2             1.2378350248       11.2164806768      -29.7367371492  WZ1       2013            0.0000000000
      2735       912  TIP3      H1              0.5112950248       10.7367406768      -29.3389771492  WZ1       2013            0.0000000000
      2736       912  TIP3      H2              1.8191650248       11.4219506768      -29.0045771492  WZ1       2013            0.0000000000
      2737       913  TIP3      OH2             0.9969550248       14.0012306768      -24.7889771492  WZ1       2014            0.0000000000
      2738       913  TIP3      H1              1.8303750248       13.6232306768      -25.0696171492  WZ1       2014            0.0000000000
      2739       913  TIP3      H2              1.1089850248       14.9443506768      -24.9080671492  WZ1       2014            0.0000000000
      2740       914  TIP3      OH2            -0.5168149752       16.8789806768      -22.4821371492  WZ1       2015            0.0000000000
      2741       914  TIP3      H1             -1.1642849752       17.2041306768      -21.8566171492  WZ1       2015            0.0000000000
      2742       914  TIP3      H2             -1.0344149752       16.4387506768      -23.1563071492  WZ1       2015            0.0000000000
      2743       915  TIP3      OH2             1.5061450248       11.1173306768      -33.3456071492  WZ1       2016            0.0000000000
      2744       915  TIP3      H1              0.9842550248       11.4737406768      -34.0645171492  WZ1       2016            0.0000000000
      2745       915  TIP3      H2              1.4730650248       11.7921106768      -32.6675171492  WZ1       2016            0.0000000000
      2746       916  TIP3      OH2            -0.1449549752        8.3568906768      -34.7948971492  WZ1       2017            0.0000000000
      2747       916  TIP3      H1             -0.0485149752        9.0235906768      -35.4749271492  WZ1       2017            0.0000000000
      2748       916  TIP3      H2             -0.2849949752        7.5415206768      -35.2763471492  WZ1       2017            0.0000000000
      2749       917  TIP3      OH2            -0.9754849752        9.7371306768      -29.1738671492  WZ1       2018            0.0000000000
      2750       917  TIP3      H1             -1.1256049752        8.7919906768      -29.1940871492  WZ1       2018            0.0000000000
      2751       917  TIP3      H2             -1.3290349752       10.0182706768      -28.3299571492  WZ1       2018            0.0000000000
      2752       918  TIP3      OH2           -15.9402449752       11.8153506768      -25.1634871492  WZ1       2019            0.0000000000
      2753       918  TIP3      H1            -15.7559549752       11.7335206768      -26.0991971492  WZ1       2019            0.0000000000
      2754       918  TIP3      H2            -15.0909549752       11.6910506768      -24.7398471492  WZ1       2019            0.0000000000
      2755       919  TIP3      OH2            -0.1191949752       11.7074606768      -19.5350371492  WZ1       2020            0.0000000000
      2756       919  TIP3      H1              0.4635350248       10.9726906768      -19.3433171492  WZ1       2020            0.0000000000
      2757       919  TIP3      H2              0.4447350248       12.4794906768      -19.4884571492  WZ1       2020            0.0000000000
      2758       920  TIP3      OH2             1.3775150248        9.6100406768      -18.8504971492  WZ1       2021            0.0000000000
      2759       920  TIP3      H1              0.5141850248        9.2312506768      -19.0160271492  WZ1       2021            0.0000000000
      2760       920  TIP3      H2              1.9818850248        8.8715206768      -18.9249171492  WZ1       2021            0.0000000000
      2761       921  TIP3      OH2            -0.8975749752        5.7648706768      -35.6773471492  WZ1       2022            0.0000000000
      2762       921  TIP3      H1             -0.2869949752        5.3935506768      -35.0405271492  WZ1       2022            0.0000000000
      2763       921  TIP3      H2             -1.7344249752        5.3435606768      -35.4813471492  WZ1       2022            0.0000000000
      2764       922  TIP3      OH2            -1.2650049752        7.3197106768      -30.7113571492  WZ1       2023            0.0000000000
      2765       922  TIP3      H1             -0.9852949752        6.4127506768      -30.5871871492  WZ1       2023            0.0000000000
      2766       922  TIP3      H2             -0.5058349752        7.7538606768      -31.1004371492  WZ1       2023            0.0000000000
      2767       923  TIP3      OH2            -0.6531749752        7.9014506768      -25.2754671492  WZ1       2024            0.0000000000
      2768       923  TIP3      H1              0.2796250248        8.1134406768      -25.3098671492  WZ1       2024            0.0000000000
      2769       923  TIP3      H2             -0.8884249752        8.0026606768      -24.3531671492  WZ1       2024            0.0000000000
      2770       924  TIP3      OH2            -0.6239849752        8.6379806768      -22.4995271492  WZ1       2025            0.0000000000
      2771       924  TIP3      H1             -1.4668549752        8.9060206768      -22.1335471492  WZ1       2025            0.0000000000
      2772       924  TIP3      H2             -0.1815549752        9.4601706768      -22.7104171492  WZ1       2025            0.0000000000
      2773       925  TIP3      OH2           -16.3427649752        7.0858506768      -19.0226071492  WZ1       2026            0.0000000000
      2774       925  TIP3      H1            -15.4232749752        6.9636806768      -18.7862971492  WZ1       2026            0.0000000000
      2775       925  TIP3      H2            -16.7923149752        6.3358206768      -18.6332571492  WZ1       2026            0.0000000000
      2776       926  TIP3      OH2             1.6591750248        2.6180006768      -17.1460271492  WZ1       2027            0.0000000000
      2777       926  TIP3      H1              2.0088750248        1.9643506768      -17.7515571492  WZ1       2027            0.0000000000
      2778       926  TIP3      H2              1.8061250248        3.4554106768      -17.5857671492  WZ1       2027            0.0000000000
      2779       927  TIP3      OH2            -0.6515249752        4.5826406768      -30.6631571492  WZ1       2028            0.0000000000
      2780       927  TIP3      H1             -0.4690249752        4.1337906768      -29.8376571492  WZ1       2028            0.0000000000
      2781       927  TIP3      H2             -1.2512349752        3.9980806768      -31.1266971492  WZ1       2028            0.0000000000
      2782       928  TIP3      OH2           -15.1215149752        5.3980106768      -26.1313171492  WZ1       2029            0.0000000000
      2783       928  TIP3      H1            -14.6763549752        4.6062606768      -25.8293471492  WZ1       2029            0.0000000000
      2784       928  TIP3      H2            -14.6552149752        6.1145306768      -25.7007571492  WZ1       2029            0.0000000000
      2785       929  TIP3      OH2           -16.8174849752        8.3973106768      -25.0622971492  WZ1       2030            0.0000000000
      2786       929  TIP3      H1            -16.3255049752        8.1763606768      -25.8530971492  WZ1       2030            0.0000000000
      2787       929  TIP3      H2            -16.4553949752        9.2376506768      -24.7813471492  WZ1       2030            0.0000000000
      2788       930  TIP3      OH2             1.1788950248        4.7274606768      -18.7968971492  WZ1       2031            0.0000000000
      2789       930  TIP3      H1              0.2614650248        4.9981706768      -18.8325471492  WZ1       2031            0.0000000000
      2790       930  TIP3      H2              1.3018350248        4.1923006768      -19.5809271492  WZ1       2031            0.0000000000
      2791       931  TIP3      OH2             1.2150950248        4.6504506768      -34.1351271492  WZ1       2032            0.0000000000
      2792       931  TIP3      H1              1.6273550248        3.9290206768      -34.6103271492  WZ1       2032            0.0000000000
      2793       931  TIP3      H2              1.8967450248        5.3199106768      -34.0766971492  WZ1       2032            0.0000000000
      2794       932  TIP3      OH2           -16.5038349752        4.6552206768      -31.0080571492  WZ1       2033            0.0000000000
      2795       932  TIP3      H1            -17.4289949752        4.8638806768      -31.1375071492  WZ1       2033            0.0000000000
      2796       932  TIP3      H2            -16.0498449752        5.1393006768      -31.6978271492  WZ1       2033            0.0000000000
      2797       933  TIP3      OH2            -1.7331149752       19.6393906768      -29.0623171492  WZ1       2034            0.0000000000
      2798       933  TIP3      H1             -1.0808249752       19.2916006768      -29.6704071492  WZ1       2034            0.0000000000
      2799       933  TIP3      H2             -1.2227349752       20.1277106768      -28.4163471492  WZ1       2034            0.0000000000
      2800       934  TIP3      OH2           -16.5402949752        3.3931206768      -22.6638071492  WZ1       2035            0.0000000000
      2801       934  TIP3      H1            -17.2052449752        3.1471506768      -22.0207171492  WZ1       2035            0.0000000000
      2802       934  TIP3      H2            -16.9831649752        4.0151606768      -23.2410071492  WZ1       2035            0.0000000000
      2803       935  TIP3      OH2           -14.3483649752       16.5685306768      -18.5192271492  WZ1       2036            0.0000000000
      2804       935  TIP3      H1            -15.1691149752       16.7431806768      -18.9797571492  WZ1       2036            0.0000000000
      2805       935  TIP3      H2            -14.6005849752       16.4950006768      -17.5987871492  WZ1       2036            0.0000000000
      2806       936  TIP3      OH2           -11.3940749752       17.5426506768      -22.2608271492  WZ1       2037            0.0000000000
      2807       936  TIP3      H1            -11.8189649752       18.3525006768      -22.5433671492  WZ1       2037            0.0000000000
      2808       936  TIP3      H2            -10.4897949752       17.6280606768      -22.5628471492  WZ1       2037            0.0000000000
      2809       937  TIP3      OH2            -7.0829349752       18.9416506768      -19.3014571492  WZ1       2038            0.0000000000
      2810       937  TIP3      H1             -6.8981849752       18.6082606768      -18.4234271492  WZ1       2038            0.0000000000
      2811       937  TIP3      H2             -6.2364849752       19.2515106768      -19.6235371492  WZ1       2038            0.0000000000
      2812       938  TIP3      OH2            -4.7378949752       20.2275406768      -20.0573171492  WZ1       2039            0.0000000000
      2813       938  TIP3      H1             -4.0610049752       19.5947706768      -20.2973971492  WZ1       2039            0.0000000000
      2814       938  TIP3      H2             -4.4160149752       20.6285906768      -19.2499871492  WZ1       2039            0.0000000000
      2815       939  TIP3      OH2             0.1794850248        2.8170906768      -20.9778171492  WZ1       2040            0.0000000000
      2816       939  TIP3      H1             -0.6331649752        3.1421206768      -21.3653471492  WZ1       2040            0.0000000000
      2817       939  TIP3      H2              0.4123350248        2.0569406768      -21.5109071492  WZ1       2040            0.0000000000
      2818       940  TIP3      OH2           -13.9924049752       20.7990406768      -22.2132971492  WZ1       2041            0.0000000000
      2819       940  TIP3      H1            -14.7127649752       21.2391406768      -22.6645271492  WZ1       2041            0.0000000000
      2820       940  TIP3      H2            -14.3580049752       20.5485106768      -21.3648971492  WZ1       2041            0.0000000000
      2821       941  TIP3      OH2           -11.5251449752       20.3994306768      -23.1835771492  WZ1       2042            0.0000000000
      2822       941  TIP3      H1            -12.3899249752       20.4712806768      -22.7795671492  WZ1       2042            0.0000000000
      2823       941  TIP3      H2            -11.5802449752       20.9461606768      -23.9673271492  WZ1       2042            0.0000000000
      2824       942  TIP3      OH2            -6.8145849752       20.2873206768      -24.0079771492  WZ1       2043            0.0000000000
      2825       942  TIP3      H1             -7.2711849752       20.8162906768      -24.6621371492  WZ1       2043            0.0000000000
      2826       942  TIP3      H2             -6.6517849752       20.8904606768      -23.2827471492  WZ1       2043            0.0000000000
      2827       943  TIP3      OH2            -4.4869549752       19.1652806768      -23.0629471492  WZ1       2044            0.0000000000
      2828       943  TIP3      H1             -5.3915849752       19.3303006768      -23.3287371492  WZ1       2044            0.0000000000
      2829       943  TIP3      H2             -4.0580949752       20.0185006768      -23.1286071492  WZ1       2044            0.0000000000
      2830       944  TIP3      OH2            -1.8827649752       20.7351906768      -22.7681671492  WZ1       2045            0.0000000000
      2831       944  TIP3      H1             -2.0645649752       21.6510806768      -22.9786771492  WZ1       2045            0.0000000000
      2832       944  TIP3      H2             -1.7059849752       20.3249006768      -23.6147071492  WZ1       2045            0.0000000000
      2833       945  TIP3      OH2           -14.5775949752       19.4222906768      -25.3031171492  WZ1       2046            0.0000000000
      2834       945  TIP3      H1            -14.5959949752       18.9968006768      -24.4458871492  WZ1       2046            0.0000000000
      2835       945  TIP3      H2            -13.7728049752       19.1037906768      -25.7118971492  WZ1       2046            0.0000000000
      2836       946  TIP3      OH2           -12.4362849752       18.1321606768      -26.6481271492  WZ1       2047            0.0000000000
      2837       946  TIP3      H1            -12.6552149752       17.2159006768      -26.4785271492  WZ1       2047            0.0000000000
      2838       946  TIP3      H2            -11.6120649752       18.2722006768      -26.1819871492  WZ1       2047            0.0000000000
      2839       947  TIP3      OH2            -9.8990349752       18.6020906768      -25.7993271492  WZ1       2048            0.0000000000
      2840       947  TIP3      H1             -9.6864649752       17.7139906768      -26.0862371492  WZ1       2048            0.0000000000
      2841       947  TIP3      H2             -9.8345249752       18.5678606768      -24.8449271492  WZ1       2048            0.0000000000
      2842       948  TIP3      OH2            -6.3906649752        4.2661506768      -26.6549971492  WZ1       2049            0.0000000000
      2843       948  TIP3      H1             -7.0649849752        3.6367106768      -26.3994171492  WZ1       2049            0.0000000000
      2844       948  TIP3      H2             -5.8267449752        3.7820406768      -27.2582071492  WZ1       2049            0.0000000000
      2845       949  TIP3      OH2            -1.2479449752        2.3735506768      -26.5422871492  WZ1       2050            0.0000000000
      2846       949  TIP3      H1             -0.6441849752        2.9210906768      -27.0441871492  WZ1       2050            0.0000000000
      2847       949  TIP3      H2             -2.1177449752        2.6925906768      -26.7828771492  WZ1       2050            0.0000000000
      2848       950  TIP3      OH2             0.4790950248        3.5124206768      -28.2091971492  WZ1       2051            0.0000000000
      2849       950  TIP3      H1              1.0908450248        2.9979906768      -28.7358371492  WZ1       2051            0.0000000000
      2850       950  TIP3      H2              0.8614350248        4.3896306768      -28.1857571492  WZ1       2051            0.0000000000
      2851       951  TIP3      OH2           -14.0639149752        2.9001806768      -28.8330071492  WZ1       2052            0.0000000000
      2852       951  TIP3      H1            -14.8409349752        2.6656706768      -29.3404171492  WZ1       2052            0.0000000000
      2853       951  TIP3      H2            -13.5335549752        2.1033906768      -28.8242071492  WZ1       2052            0.0000000000
      2854       952  TIP3      OH2            -9.4846549752        2.8268906768      -29.0196971492  WZ1       2054            0.0000000000
      2855       952  TIP3      H1             -8.6103149752        3.2153206768      -29.0492671492  WZ1       2054            0.0000000000
      2856       952  TIP3      H2             -9.6205749752        2.6116706768      -28.0969771492  WZ1       2054            0.0000000000
      2857       953  TIP3      OH2            -3.9278149752        2.8568706768      -27.3705271492  WZ1       2055            0.0000000000
      2858       953  TIP3      H1             -3.8516549752        2.9520306768      -28.3199271492  WZ1       2055            0.0000000000
      2859       953  TIP3      H2             -4.2028949752        1.9491606768      -27.2416171492  WZ1       2055            0.0000000000
      2860       954  TIP3      OH2            -2.5745549752        2.8826506768      -31.6780271492  WZ1       2056            0.0000000000
      2861       954  TIP3      H1             -3.2774449752        3.4975706768      -31.8878871492  WZ1       2056            0.0000000000
      2862       954  TIP3      H2             -3.0194149752        2.0453206768      -31.5469371492  WZ1       2056            0.0000000000
      2863       955  TIP3      OH2            -8.3406549752        4.9072906768      -32.1299371492  WZ1       2059            0.0000000000
      2864       955  TIP3      H1             -8.1625249752        4.2606106768      -31.4470771492  WZ1       2059            0.0000000000
      2865       955  TIP3      H2             -8.3940349752        5.7410606768      -31.6628271492  WZ1       2059            0.0000000000
      2866       956  TIP3      OH2             0.2466850248       19.4187306768      -31.0551571492  WZ1       2061            0.0000000000
      2867       956  TIP3      H1              0.0523950248       18.6709406768      -31.6201971492  WZ1       2061            0.0000000000
      2868       956  TIP3      H2              0.2076950248       20.1767406768      -31.6383671492  WZ1       2061            0.0000000000
      2869       957  TIP3      OH2           -14.1061149752        3.4143706768      -19.3153871492  WZ1       2062            0.0000000000
      2870       957  TIP3      H1            -14.4722949752        2.6486306768      -18.8729171492  WZ1       2062            0.0000000000
      2871       957  TIP3      H2            -13.1932649752        3.4433906768      -19.0288771492  WZ1       2062            0.0000000000
      2872       958  TIP3      OH2           -12.1330349752        2.7648106768      -17.7796771492  WZ1       2063            0.0000000000
      2873       958  TIP3      H1            -11.2346749752        2.4908306768      -17.9643371492  WZ1       2063            0.0000000000
      2874       958  TIP3      H2            -12.5197249752        2.0224106768      -17.3154171492  WZ1       2063            0.0000000000
      2875       959  TIP3      OH2            -3.7118049752        2.0973406768      -17.5973971492  WZ1       2065            0.0000000000
      2876       959  TIP3      H1             -3.6350849752        1.6714106768      -16.7436271492  WZ1       2065            0.0000000000
      2877       959  TIP3      H2             -2.8181449752        2.1108106768      -17.9400471492  WZ1       2065            0.0000000000
      2878       960  TIP3      OH2            -0.5356949752       18.1699706768      -18.9049771492  WZ1       2066            0.0000000000
      2879       960  TIP3      H1             -1.3175049752       17.9837706768      -19.4249171492  WZ1       2066            0.0000000000
      2880       960  TIP3      H2             -0.6077049752       19.0994006768      -18.6877271492  WZ1       2066            0.0000000000
      2881       961  TIP3      OH2            12.8034750248       11.3114806768      -25.4554371492  WZ1       2068            0.0000000000
      2882       961  TIP3      H1             12.7652250248       10.6651106768      -24.7504771492  WZ1       2068            0.0000000000
      2883       961  TIP3      H2             12.4811250248       10.8449206768      -26.2265671492  WZ1       2068            0.0000000000
      2884       962  TIP3      OH2             5.1719750248       10.9256906768      -23.8624471492  WZ1       2069            0.0000000000
      2885       962  TIP3      H1              5.2131850248       10.3000206768      -23.1392071492  WZ1       2069            0.0000000000
      2886       962  TIP3      H2              5.8747450248       11.5495506768      -23.6804071492  WZ1       2069            0.0000000000
      2887       963  TIP3      OH2             6.0952850248       15.3755806768      -25.3275371492  WZ1       2071            0.0000000000
      2888       963  TIP3      H1              5.7258050248       14.5736306768      -25.6971071492  WZ1       2071            0.0000000000
      2889       963  TIP3      H2              7.0363950248       15.2070706768      -25.2811971492  WZ1       2071            0.0000000000
      2890       964  TIP3      OH2             2.7053350248        9.0358406768      -29.9346571492  WZ1       2072            0.0000000000
      2891       964  TIP3      H1              2.2576750248        9.8817106768      -29.9530071492  WZ1       2072            0.0000000000
      2892       964  TIP3      H2              2.1444550248        8.4562606768      -30.4501471492  WZ1       2072            0.0000000000
      2893       965  TIP3      OH2             3.4159450248       11.1978006768      -27.8088571492  WZ1       2073            0.0000000000
      2894       965  TIP3      H1              3.6292950248       10.4279606768      -27.2815571492  WZ1       2073            0.0000000000
      2895       965  TIP3      H2              4.1537050248       11.2874706768      -28.4120971492  WZ1       2073            0.0000000000
      2896       966  TIP3      OH2            11.1929150248       13.7436206768      -25.0493371492  WZ1       2075            0.0000000000
      2897       966  TIP3      H1             11.4967050248       13.0577606768      -25.6439271492  WZ1       2075            0.0000000000
      2898       966  TIP3      H2             11.9143150248       13.8624906768      -24.4315371492  WZ1       2075            0.0000000000
      2899       967  TIP3      OH2            19.8558950248        5.3451506768      -24.1887171492  WZ1       2076            0.0000000000
      2900       967  TIP3      H1             19.9051150248        5.9552706768      -23.4528071492  WZ1       2076            0.0000000000
      2901       967  TIP3      H2             20.2814050248        5.8062406768      -24.9116071492  WZ1       2076            0.0000000000
      2902       968  TIP3      OH2            14.3336150248        8.1378606768      -24.7218571492  WZ1       2077            0.0000000000
      2903       968  TIP3      H1             14.4762050248        7.1915606768      -24.7016971492  WZ1       2077            0.0000000000
      2904       968  TIP3      H2             14.2275150248        8.3448406768      -25.6503671492  WZ1       2077            0.0000000000
      2905       969  TIP3      OH2             7.4884450248        6.2395006768      -27.4493771492  WZ1       2078            0.0000000000
      2906       969  TIP3      H1              7.5315550248        7.0993506768      -27.8677471492  WZ1       2078            0.0000000000
      2907       969  TIP3      H2              7.0308550248        5.6869706768      -28.0830571492  WZ1       2078            0.0000000000
      2908       970  TIP3      OH2             4.1085950248        8.6360806768      -26.6872371492  WZ1       2080            0.0000000000
      2909       970  TIP3      H1              4.7622550248        8.0862506768      -26.2552271492  WZ1       2080            0.0000000000
      2910       970  TIP3      H2              4.1325250248        8.3619806768      -27.6040371492  WZ1       2080            0.0000000000
      2911       971  TIP3      OH2             9.2650450248       10.1862106768      -27.4720871492  WZ1       2081            0.0000000000
      2912       971  TIP3      H1              9.8811450248        9.6597506768      -26.9626871492  WZ1       2081            0.0000000000
      2913       971  TIP3      H2              8.6789250248        9.5460806768      -27.8757271492  WZ1       2081            0.0000000000
      2914       972  TIP3      OH2            20.2473550248        6.8230706768      -21.9527371492  WZ1       2082            0.0000000000
      2915       972  TIP3      H1             19.5588150248        7.4811406768      -22.0480771492  WZ1       2082            0.0000000000
      2916       972  TIP3      H2             20.2628150248        6.6258606768      -21.0161971492  WZ1       2082            0.0000000000
      2917       973  TIP3      OH2             6.2986350248        5.1573406768      -23.3752971492  WZ1       2083            0.0000000000
      2918       973  TIP3      H1              6.0798050248        5.6874006768      -24.1416971492  WZ1       2083            0.0000000000
      2919       973  TIP3      H2              5.6307250248        5.3838906768      -22.7281571492  WZ1       2083            0.0000000000
      2920       974  TIP3      OH2             8.8677750248       12.8329106768      -23.0879271492  WZ1       2085            0.0000000000
      2921       974  TIP3      H1              8.1276850248       13.4310606768      -22.9844071492  WZ1       2085            0.0000000000
      2922       974  TIP3      H2              9.5817250248       13.3868706768      -23.4035671492  WZ1       2085            0.0000000000
      2923       975  TIP3      OH2            16.9745550248        5.6609906768      -27.0679571492  WZ1       2086            0.0000000000
      2924       975  TIP3      H1             16.7593550248        4.8953306768      -26.5353571492  WZ1       2086            0.0000000000
      2925       975  TIP3      H2             17.6302950248        6.1334506768      -26.5551071492  WZ1       2086            0.0000000000
      2926       976  TIP3      OH2             5.8923650248        7.0495206768      -25.4230771492  WZ1       2087            0.0000000000
      2927       976  TIP3      H1              6.5059950248        7.6822806768      -25.0498371492  WZ1       2087            0.0000000000
      2928       976  TIP3      H2              6.4044350248        6.5770206768      -26.0793871492  WZ1       2087            0.0000000000
      2929       977  TIP3      OH2             7.2752050248       14.7972106768      -22.3007771492  WZ1       2088            0.0000000000
      2930       977  TIP3      H1              7.2699650248       15.6765606768      -22.6788471492  WZ1       2088            0.0000000000
      2931       977  TIP3      H2              6.4216150248       14.7136206768      -21.8757871492  WZ1       2088            0.0000000000
      2932       978  TIP3      OH2             3.3962950248       14.4680006768      -31.5188471492  WZ1       2089            0.0000000000
      2933       978  TIP3      H1              3.1243850248       14.6971006768      -32.4075571492  WZ1       2089            0.0000000000
      2934       978  TIP3      H2              3.4418650248       15.3058806768      -31.0583171492  WZ1       2089            0.0000000000
      2935       979  TIP3      OH2            17.3219650248        4.3761206768      -23.3886071492  WZ1       2091            0.0000000000
      2936       979  TIP3      H1             16.5858850248        4.9868306768      -23.4264771492  WZ1       2091            0.0000000000
      2937       979  TIP3      H2             18.0053650248        4.7910206768      -23.9149671492  WZ1       2091            0.0000000000
      2938       980  TIP3      OH2            10.3251050248        2.4628506768      -25.9228071492  WZ1       2092            0.0000000000
      2939       980  TIP3      H1             10.2075250248        1.5144506768      -25.9769771492  WZ1       2092            0.0000000000
      2940       980  TIP3      H2              9.4701150248        2.7954606768      -25.6496971492  WZ1       2092            0.0000000000
      2941       981  TIP3      OH2            18.1190550248       14.3384606768      -21.1948271492  WZ1       2095            0.0000000000
      2942       981  TIP3      H1             18.2586850248       13.7467106768      -21.9341271492  WZ1       2095            0.0000000000
      2943       981  TIP3      H2             18.2863350248       15.2110506768      -21.5509471492  WZ1       2095            0.0000000000
      2944       982  TIP3      OH2            19.9609850248       10.6782606768      -23.1287871492  WZ1       2098            0.0000000000
      2945       982  TIP3      H1             19.3083950248       11.3728206768      -23.0396971492  WZ1       2098            0.0000000000
      2946       982  TIP3      H2             20.4260150248       10.8883506768      -23.9386271492  WZ1       2098            0.0000000000
      2947       983  TIP3      OH2            15.8947150248        9.6840006768      -21.4029371492  WZ1       2100            0.0000000000
      2948       983  TIP3      H1             15.9746250248       10.4474406768      -20.8310871492  WZ1       2100            0.0000000000
      2949       983  TIP3      H2             15.2934850248        9.9632406768      -22.0934271492  WZ1       2100            0.0000000000
      2950       984  TIP3      OH2             7.6427350248       12.1403606768      -28.5881371492  WZ1       2101            0.0000000000
      2951       984  TIP3      H1              7.3122550248       11.7697006768      -29.4064371492  WZ1       2101            0.0000000000
      2952       984  TIP3      H2              8.2311450248       11.4697606768      -28.2413071492  WZ1       2101            0.0000000000
      2953       985  TIP3      OH2             9.0094850248       15.5684206768      -25.9069171492  WZ1       2102            0.0000000000
      2954       985  TIP3      H1              8.9146150248       14.9897306768      -26.6634571492  WZ1       2102            0.0000000000
      2955       985  TIP3      H2              9.7388450248       15.1969906768      -25.4106371492  WZ1       2102            0.0000000000
      2956       986  TIP3      OH2             8.0092850248       10.9089206768      -24.9546371492  WZ1       2103            0.0000000000
      2957       986  TIP3      H1              8.5745350248       11.0303406768      -25.7175171492  WZ1       2103            0.0000000000
      2958       986  TIP3      H2              8.3281750248       11.5464206768      -24.3157871492  WZ1       2103            0.0000000000
      2959       987  TIP3      OH2            14.3185050248       16.4121106768      -24.2205871492  WZ1       2104            0.0000000000
      2960       987  TIP3      H1             14.0781650248       17.0744206768      -23.5726671492  WZ1       2104            0.0000000000
      2961       987  TIP3      H2             14.1203250248       15.5776306768      -23.7956271492  WZ1       2104            0.0000000000
      2962       988  TIP3      OH2             8.8893550248       15.3081906768      -20.2374471492  WZ1       2105            0.0000000000
      2963       988  TIP3      H1              8.5781050248       16.0905106768      -19.7821271492  WZ1       2105            0.0000000000
      2964       988  TIP3      H2              8.2393750248       15.1551006768      -20.9232471492  WZ1       2105            0.0000000000
      2965       989  TIP3      OH2             5.8093450248       11.5063006768      -21.0088771492  WZ1       2107            0.0000000000
      2966       989  TIP3      H1              5.8796650248       12.1569806768      -20.3103771492  WZ1       2107            0.0000000000
      2967       989  TIP3      H2              4.9185650248       11.6090506768      -21.3437871492  WZ1       2107            0.0000000000
      2968       990  TIP3      OH2             7.1289450248       17.3796906768      -19.4740671492  WZ1       2109            0.0000000000
      2969       990  TIP3      H1              7.1364750248       17.2436606768      -20.4215171492  WZ1       2109            0.0000000000
      2970       990  TIP3      H2              6.2129850248       17.2625006768      -19.2220671492  WZ1       2109            0.0000000000
      2971       991  TIP3      OH2             6.6330050248       11.2097906768      -30.9988571492  WZ1       2111            0.0000000000
      2972       991  TIP3      H1              6.3411350248       11.9779606768      -31.4897271492  WZ1       2111            0.0000000000
      2973       991  TIP3      H2              5.9585250248       10.5504106768      -31.1617171492  WZ1       2111            0.0000000000
      2974       992  TIP3      OH2             2.7260150248       13.5727106768      -22.1838771492  WZ1       2113            0.0000000000
      2975       992  TIP3      H1              2.2248550248       13.5446506768      -22.9989071492  WZ1       2113            0.0000000000
      2976       992  TIP3      H2              2.7313850248       12.6670306768      -21.8741471492  WZ1       2113            0.0000000000
      2977       993  TIP3      OH2             2.4762850248       16.3530906768      -25.2998571492  WZ1       2114            0.0000000000
      2978       993  TIP3      H1              3.4223450248       16.2087906768      -25.3189071492  WZ1       2114            0.0000000000
      2979       993  TIP3      H2              2.3639150248       17.1373706768      -24.7627371492  WZ1       2114            0.0000000000
      2980       994  TIP3      OH2            20.6741350248       17.0190606768      -19.6174871492  WZ1       2115            0.0000000000
      2981       994  TIP3      H1             20.6248150248       16.0638706768      -19.6547271492  WZ1       2115            0.0000000000
      2982       994  TIP3      H2             19.8473650248       17.2865906768      -19.2161071492  WZ1       2115            0.0000000000
      2983       995  TIP3      OH2            11.6525350248       16.5929806768      -20.7413471492  WZ1       2116            0.0000000000
      2984       995  TIP3      H1             11.7399950248       17.4194406768      -20.2664371492  WZ1       2116            0.0000000000
      2985       995  TIP3      H2             10.7890450248       16.2633606768      -20.4924171492  WZ1       2116            0.0000000000
      2986       996  TIP3      OH2             5.7204950248       19.1540506768      -29.1543871492  WZ1       2118            0.0000000000
      2987       996  TIP3      H1              5.8725350248       18.8060906768      -28.2757371492  WZ1       2118            0.0000000000
      2988       996  TIP3      H2              4.8695350248       18.7977806768      -29.4096671492  WZ1       2118            0.0000000000
      2989       997  TIP3      OH2            17.8261150248        8.5123106768      -19.1372671492  WZ1       2121            0.0000000000
      2990       997  TIP3      H1             17.4187950248        8.9928706768      -19.8579371492  WZ1       2121            0.0000000000
      2991       997  TIP3      H2             17.8666850248        7.6069106768      -19.4451871492  WZ1       2121            0.0000000000
      2992       998  TIP3      OH2             4.9750650248       14.8962506768      -21.1405971492  WZ1       2122            0.0000000000
      2993       998  TIP3      H1              5.1911950248       14.5348106768      -20.2810171492  WZ1       2122            0.0000000000
      2994       998  TIP3      H2              4.1195350248       14.5216306768      -21.3502471492  WZ1       2122            0.0000000000
      2995       999  TIP3      OH2             7.5938650248        3.3663006768      -25.1451771492  WZ1       2123            0.0000000000
      2996       999  TIP3      H1              6.7322350248        3.2791206768      -25.5528871492  WZ1       2123            0.0000000000
      2997       999  TIP3      H2              7.5714350248        4.2223106768      -24.7174171492  WZ1       2123            0.0000000000
      2998      1000  TIP3      OH2            12.2566450248        3.0883406768      -21.7704771492  WZ1       2124            0.0000000000
      2999      1000  TIP3      H1             12.6769550248        2.6730506768      -21.0174171492  WZ1       2124            0.0000000000
      3000      1000  TIP3      H2             11.3236050248        2.9096706768      -21.6532771492  WZ1       2124            0.0000000000
      3001      1001  TIP3      OH2            15.5831350248        6.8438606768      -20.9170271492  WZ1       2125            0.0000000000
      3002      1001  TIP3      H1             15.0690850248        6.7180806768      -20.1194271492  WZ1       2125            0.0000000000
      3003      1001  TIP3      H2             15.4276050248        7.7561706768      -21.1614071492  WZ1       2125            0.0000000000
      3004      1002  TIP3      OH2             7.6848750248        8.3317506768      -24.0501571492  WZ1       2128            0.0000000000
      3005      1002  TIP3      H1              7.0430850248        8.2914806768      -23.3411471492  WZ1       2128            0.0000000000
      3006      1002  TIP3      H2              7.7220750248        9.2582206768      -24.2878571492  WZ1       2128            0.0000000000
      3007      1003  TIP3      OH2             7.6817850248        8.5527606768      -29.1381571492  WZ1       2129            0.0000000000
      3008      1003  TIP3      H1              6.7890750248        8.2123706768      -29.1967771492  WZ1       2129            0.0000000000
      3009      1003  TIP3      H2              8.1324450248        8.1758506768      -29.8938371492  WZ1       2129            0.0000000000
      3010      1004  TIP3      OH2            12.3194950248        9.1444306768      -18.8330071492  WZ1       2131            0.0000000000
      3011      1004  TIP3      H1             11.7568750248        8.4395906768      -18.5122271492  WZ1       2131            0.0000000000
      3012      1004  TIP3      H2             13.1458350248        9.0236206768      -18.3652471492  WZ1       2131            0.0000000000
      3013      1005  TIP3      OH2            14.2221050248        8.4148306768      -27.5071071492  WZ1       2132            0.0000000000
      3014      1005  TIP3      H1             14.0265550248        9.0205106768      -28.2220471492  WZ1       2132            0.0000000000
      3015      1005  TIP3      H2             14.4033650248        7.5813506768      -27.9414771492  WZ1       2132            0.0000000000
      3016      1006  TIP3      OH2             5.4349250248        8.6521006768      -22.1829571492  WZ1       2133            0.0000000000
      3017      1006  TIP3      H1              5.3968650248        9.0522606768      -21.3142471492  WZ1       2133            0.0000000000
      3018      1006  TIP3      H2              4.9440350248        7.8353406768      -22.0926671492  WZ1       2133            0.0000000000
      3019      1007  TIP3      OH2             2.0430050248        5.7682806768      -28.3324871492  WZ1       2135            0.0000000000
      3020      1007  TIP3      H1              2.6737750248        5.7394906768      -27.6130971492  WZ1       2135            0.0000000000
      3021      1007  TIP3      H2              2.4924350248        5.3431506768      -29.0628971492  WZ1       2135            0.0000000000
      3022      1008  TIP3      OH2             3.3172150248        6.5144806768      -32.9084471492  WZ1       2136            0.0000000000
      3023      1008  TIP3      H1              3.7913850248        7.1054706768      -33.4933571492  WZ1       2136            0.0000000000
      3024      1008  TIP3      H2              2.5998550248        7.0447706768      -32.5614371492  WZ1       2136            0.0000000000
      3025      1009  TIP3      OH2            13.4860250248       10.0529606768      -22.8358671492  WZ1       2137            0.0000000000
      3026      1009  TIP3      H1             13.8095050248        9.4219306768      -23.4788171492  WZ1       2137            0.0000000000
      3027      1009  TIP3      H2             13.0459550248        9.5181806768      -22.1751271492  WZ1       2137            0.0000000000
      3028      1010  TIP3      OH2            10.2633150248        5.9805106768      -28.0517471492  WZ1       2138            0.0000000000
      3029      1010  TIP3      H1              9.3524250248        6.0371906768      -27.7631471492  WZ1       2138            0.0000000000
      3030      1010  TIP3      H2             10.7686050248        5.9200606768      -27.2410271492  WZ1       2138            0.0000000000
      3031      1011  TIP3      OH2             5.0916550248        7.6091406768      -29.2249871492  WZ1       2139            0.0000000000
      3032      1011  TIP3      H1              4.2024550248        7.7086906768      -29.5650271492  WZ1       2139            0.0000000000
      3033      1011  TIP3      H2              5.3881450248        6.7674406768      -29.5711971492  WZ1       2139            0.0000000000
      3034      1012  TIP3      OH2            14.6685050248        5.2151406768      -24.7875671492  WZ1       2141            0.0000000000
      3035      1012  TIP3      H1             13.9916650248        5.3464506768      -24.1235971492  WZ1       2141            0.0000000000
      3036      1012  TIP3      H2             14.1829950248        5.0600906768      -25.5977971492  WZ1       2141            0.0000000000
      3037      1013  TIP3      OH2            17.9560150248       20.8866806768      -18.5108071492  WZ1       2143            0.0000000000
      3038      1013  TIP3      H1             18.1558850248       21.3108706768      -19.3452771492  WZ1       2143            0.0000000000
      3039      1013  TIP3      H2             18.6113850248       21.2305006768      -17.9037671492  WZ1       2143            0.0000000000
      3040      1014  TIP3      OH2             5.5539950248       13.3608106768      -18.9027571492  WZ1       2144            0.0000000000
      3041      1014  TIP3      H1              6.2862350248       13.6154006768      -18.3413071492  WZ1       2144            0.0000000000
      3042      1014  TIP3      H2              4.7738650248       13.5653506768      -18.3872171492  WZ1       2144            0.0000000000
      3043      1015  TIP3      OH2            11.5832850248        8.7678106768      -26.1647871492  WZ1       2145            0.0000000000
      3044      1015  TIP3      H1             12.1476250248        8.2214706768      -26.7118271492  WZ1       2145            0.0000000000
      3045      1015  TIP3      H2             11.4356250248        8.2460006768      -25.3760271492  WZ1       2145            0.0000000000
      3046      1016  TIP3      OH2             6.5852550248        4.9044206768      -29.7463071492  WZ1       2146            0.0000000000
      3047      1016  TIP3      H1              6.2682050248        4.0019506768      -29.7817671492  WZ1       2146            0.0000000000
      3048      1016  TIP3      H2              7.3666650248        4.9061606768      -30.2991471492  WZ1       2146            0.0000000000
      3049      1017  TIP3      OH2            10.2098750248        7.1564206768      -23.7507471492  WZ1       2147            0.0000000000
      3050      1017  TIP3      H1              9.3744050248        7.6103706768      -23.6405071492  WZ1       2147            0.0000000000
      3051      1017  TIP3      H2             10.7339350248        7.4322706768      -22.9987571492  WZ1       2147            0.0000000000
      3052      1018  TIP3      OH2            17.9040250248       12.5020106768      -23.2793471492  WZ1       2149            0.0000000000
      3053      1018  TIP3      H1             18.5459050248       12.9586406768      -23.8231271492  WZ1       2149            0.0000000000
      3054      1018  TIP3      H2             17.0737150248       12.6152506768      -23.7419371492  WZ1       2149            0.0000000000
      3055      1019  TIP3      OH2            12.2733450248       13.5535206768      -20.8291971492  WZ1       2151            0.0000000000
      3056      1019  TIP3      H1             11.9279550248       13.1717606768      -20.0222371492  WZ1       2151            0.0000000000
      3057      1019  TIP3      H2             12.0733550248       14.4868806768      -20.7579071492  WZ1       2151            0.0000000000
      3058      1020  TIP3      OH2             5.8789650248       12.6641906768      -26.2963171492  WZ1       2153            0.0000000000
      3059      1020  TIP3      H1              6.6236850248       12.6617606768      -26.8976671492  WZ1       2153            0.0000000000
      3060      1020  TIP3      H2              5.9566250248       11.8405706768      -25.8148071492  WZ1       2153            0.0000000000
      3061      1021  TIP3      OH2             2.8869350248       11.1248806768      -20.9814671492  WZ1       2155            0.0000000000
      3062      1021  TIP3      H1              3.1097950248       10.7068406768      -20.1497171492  WZ1       2155            0.0000000000
      3063      1021  TIP3      H2              2.2849450248       10.5123806768      -21.4041871492  WZ1       2155            0.0000000000
      3064      1022  TIP3      OH2             9.9034250248       10.6418706768      -18.7684971492  WZ1       2156            0.0000000000
      3065      1022  TIP3      H1              9.6075050248       10.4761706768      -19.6635871492  WZ1       2156            0.0000000000
      3066      1022  TIP3      H2             10.8349450248       10.4219006768      -18.7791071492  WZ1       2156            0.0000000000
      3067      1023  TIP3      OH2            14.5237050248       16.0150706768      -20.8786971492  WZ1       2157            0.0000000000
      3068      1023  TIP3      H1             13.6231350248       16.1983306768      -21.1463071492  WZ1       2157            0.0000000000
      3069      1023  TIP3      H2             14.5578150248       16.2740006768      -19.9578171492  WZ1       2157            0.0000000000
      3070      1024  TIP3      OH2            20.2182350248       14.0600306768      -19.6742871492  WZ1       2159            0.0000000000
      3071      1024  TIP3      H1             19.3670850248       14.2984106768      -20.0416471492  WZ1       2159            0.0000000000
      3072      1024  TIP3      H2             20.8085750248       14.0433506768      -20.4275771492  WZ1       2159            0.0000000000
      3073      1025  TIP3      OH2            15.7105950248       11.8538506768      -25.0250371492  WZ1       2161            0.0000000000
      3074      1025  TIP3      H1             14.7822850248       11.6220406768      -25.0521071492  WZ1       2161            0.0000000000
      3075      1025  TIP3      H2             16.1617050248       11.0768306768      -25.3551571492  WZ1       2161            0.0000000000
      3076      1026  TIP3      OH2            10.1957950248       17.9943606768      -23.0006271492  WZ1       2165            0.0000000000
      3077      1026  TIP3      H1             10.5582650248       18.8489206768      -23.2341871492  WZ1       2165            0.0000000000
      3078      1026  TIP3      H2             10.7273150248       17.7025206768      -22.2599971492  WZ1       2165            0.0000000000
      3079      1027  TIP3      OH2            13.7398750248       14.0934306768      -23.3000671492  WZ1       2167            0.0000000000
      3080      1027  TIP3      H1             13.3140050248       13.8656006768      -22.4736671492  WZ1       2167            0.0000000000
      3081      1027  TIP3      H2             14.3204550248       13.3546106768      -23.4825371492  WZ1       2167            0.0000000000
      3082      1028  TIP3      OH2            16.3982950248       18.6453806768      -20.8305871492  WZ1       2169            0.0000000000
      3083      1028  TIP3      H1             15.7966150248       18.0896706768      -21.3259571492  WZ1       2169            0.0000000000
      3084      1028  TIP3      H2             16.6796650248       19.3123606768      -21.4568471492  WZ1       2169            0.0000000000
      3085      1029  TIP3      OH2             4.5208850248        5.8781506768      -21.4233271492  WZ1       2171            0.0000000000
      3086      1029  TIP3      H1              3.6281150248        6.2166906768      -21.4909271492  WZ1       2171            0.0000000000
      3087      1029  TIP3      H2              4.4221650248        5.0227606768      -21.0052471492  WZ1       2171            0.0000000000
      3088      1030  TIP3      OH2             4.1720850248       17.6825906768      -22.9883871492  WZ1       2173            0.0000000000
      3089      1030  TIP3      H1              4.3891150248       16.7508306768      -23.0194171492  WZ1       2173            0.0000000000
      3090      1030  TIP3      H2              4.4184350248       17.9570906768      -22.1051071492  WZ1       2173            0.0000000000
      3091      1031  TIP3      OH2            13.2552250248        5.6191806768      -22.5334671492  WZ1       2177            0.0000000000
      3092      1031  TIP3      H1             13.9540150248        5.6930506768      -21.8834971492  WZ1       2177            0.0000000000
      3093      1031  TIP3      H2             12.8743650248        4.7546806768      -22.3791771492  WZ1       2177            0.0000000000
      3094      1032  TIP3      OH2            11.2397050248        6.9992306768      -30.6013971492  WZ1       2180            0.0000000000
      3095      1032  TIP3      H1             12.0519650248        7.5035506768      -30.5552271492  WZ1       2180            0.0000000000
      3096      1032  TIP3      H2             10.9950050248        6.8542006768      -29.6874371492  WZ1       2180            0.0000000000
      3097      1033  TIP3      OH2            11.7753450248        7.9855006768      -21.4167371492  WZ1       2181            0.0000000000
      3098      1033  TIP3      H1             11.8943750248        8.5590406768      -20.6596971492  WZ1       2181            0.0000000000
      3099      1033  TIP3      H2             12.4308050248        7.2974406768      -21.3019571492  WZ1       2181            0.0000000000
      3100      1034  TIP3      OH2            12.1233750248        4.0805306768      -29.6632871492  WZ1       2182            0.0000000000
      3101      1034  TIP3      H1             11.7767250248        4.6975906768      -29.0188571492  WZ1       2182            0.0000000000
      3102      1034  TIP3      H2             12.7820650248        4.5811006768      -30.1447371492  WZ1       2182            0.0000000000
      3103      1035  TIP3      OH2             7.7810750248        5.1434706768      -32.9760371492  WZ1       2184            0.0000000000
      3104      1035  TIP3      H1              7.6975550248        6.0317806768      -32.6293971492  WZ1       2184            0.0000000000
      3105      1035  TIP3      H2              8.6711050248        4.8781406768      -32.7443571492  WZ1       2184            0.0000000000
      3106      1036  TIP3      OH2            17.9799250248        5.8925306768      -20.5817671492  WZ1       2185            0.0000000000
      3107      1036  TIP3      H1             17.0635050248        6.1547006768      -20.6693971492  WZ1       2185            0.0000000000
      3108      1036  TIP3      H2             18.3154250248        5.8894306768      -21.4782371492  WZ1       2185            0.0000000000
      3109      1037  TIP3      OH2            16.5820250248        9.6426306768      -26.4860371492  WZ1       2186            0.0000000000
      3110      1037  TIP3      H1             15.7844650248        9.2276506768      -26.8145371492  WZ1       2186            0.0000000000
      3111      1037  TIP3      H2             17.0271350248        8.9520006768      -25.9949871492  WZ1       2186            0.0000000000
      3112      1038  TIP3      OH2             5.1637250248        3.0166506768      -26.1265471492  WZ1       2190            0.0000000000
      3113      1038  TIP3      H1              4.9347050248        3.0759006768      -27.0540471492  WZ1       2190            0.0000000000
      3114      1038  TIP3      H2              4.7210650248        2.2252006768      -25.8201371492  WZ1       2190            0.0000000000
      3115      1039  TIP3      OH2             4.0940550248       16.9573606768      -29.9659671492  WZ1       2191            0.0000000000
      3116      1039  TIP3      H1              3.2619150248       17.4296306768      -29.9388271492  WZ1       2191            0.0000000000
      3117      1039  TIP3      H2              4.6398850248       17.4671206768      -30.5646571492  WZ1       2191            0.0000000000
      3118      1040  TIP3      OH2             3.3824250248       19.5697306768      -18.6361671492  WZ1       2192            0.0000000000
      3119      1040  TIP3      H1              3.9226450248       19.3531306768      -17.8762471492  WZ1       2192            0.0000000000
      3120      1040  TIP3      H2              2.9012250248       18.7643306768      -18.8259171492  WZ1       2192            0.0000000000
      3121      1041  TIP3      OH2             7.9797650248       18.4891706768      -17.0157471492  WZ1       2193            0.0000000000
      3122      1041  TIP3      H1              8.7474850248       18.0302506768      -16.6748271492  WZ1       2193            0.0000000000
      3123      1041  TIP3      H2              7.9583850248       18.2631506768      -17.9456271492  WZ1       2193            0.0000000000
      3124      1042  TIP3      OH2            14.5566350248       16.8692806768      -18.2865971492  WZ1       2195            0.0000000000
      3125      1042  TIP3      H1             14.2055850248       16.0125806768      -18.0435571492  WZ1       2195            0.0000000000
      3126      1042  TIP3      H2             15.2829550248       17.0119506768      -17.6796971492  WZ1       2195            0.0000000000
      3127      1043  TIP3      OH2             3.2893750248       13.3801406768      -17.6817371492  WZ1       2197            0.0000000000
      3128      1043  TIP3      H1              3.4334250248       12.4782106768      -17.9680671492  WZ1       2197            0.0000000000
      3129      1043  TIP3      H2              2.5171150248       13.6663506768      -18.1695071492  WZ1       2197            0.0000000000
      3130      1044  TIP3      OH2             9.9449850248       13.3499506768      -18.2490971492  WZ1       2199            0.0000000000
      3131      1044  TIP3      H1              9.6163650248       13.6207606768      -19.1063571492  WZ1       2199            0.0000000000
      3132      1044  TIP3      H2             10.0968050248       12.4089306768      -18.3365971492  WZ1       2199            0.0000000000
      3133      1045  TIP3      OH2            15.6795050248       13.2656806768      -20.8658671492  WZ1       2201            0.0000000000
      3134      1045  TIP3      H1             16.4249850248       13.8540506768      -20.9854671492  WZ1       2201            0.0000000000
      3135      1045  TIP3      H2             14.9221850248       13.8476506768      -20.8025571492  WZ1       2201            0.0000000000
      3136      1046  TIP3      OH2             4.1220250248       10.5804706768      -18.2618071492  WZ1       2202            0.0000000000
      3137      1046  TIP3      H1              4.5301450248        9.7231306768      -18.3827471492  WZ1       2202            0.0000000000
      3138      1046  TIP3      H2              3.8617850248       10.5946006768      -17.3407771492  WZ1       2202            0.0000000000
      3139      1047  TIP3      OH2             8.0690550248        9.5890406768      -20.8875171492  WZ1       2204            0.0000000000
      3140      1047  TIP3      H1              7.4506650248       10.2637006768      -20.6070471492  WZ1       2204            0.0000000000
      3141      1047  TIP3      H2              8.4131750248        9.9104306768      -21.7208971492  WZ1       2204            0.0000000000
      3142      1048  TIP3      OH2            13.0888750248       12.0605706768      -17.6100371492  WZ1       2206            0.0000000000
      3143      1048  TIP3      H1             14.0419950248       12.1444806768      -17.6374371492  WZ1       2206            0.0000000000
      3144      1048  TIP3      H2             12.9283350248       11.3487506768      -16.9905471492  WZ1       2206            0.0000000000
      3145      1049  TIP3      OH2             8.4084250248        6.9441206768      -19.8052071492  WZ1       2208            0.0000000000
      3146      1049  TIP3      H1              8.5585150248        6.2152506768      -20.4072371492  WZ1       2208            0.0000000000
      3147      1049  TIP3      H2              8.4106650248        7.7212906768      -20.3639871492  WZ1       2208            0.0000000000
      3148      1050  TIP3      OH2             8.8209950248        5.3137006768      -22.3124671492  WZ1       2209            0.0000000000
      3149      1050  TIP3      H1              9.3567450248        5.7653706768      -22.9645371492  WZ1       2209            0.0000000000
      3150      1050  TIP3      H2              7.9689550248        5.2056806768      -22.7350571492  WZ1       2209            0.0000000000
      3151      1051  TIP3      OH2            10.4028350248       10.7533206768      -22.0729471492  WZ1       2210            0.0000000000
      3152      1051  TIP3      H1             11.1533150248       10.5970706768      -22.6461671492  WZ1       2210            0.0000000000
      3153      1051  TIP3      H2             10.0636650248       11.6049806768      -22.3483971492  WZ1       2210            0.0000000000
      3154      1052  TIP3      OH2            14.8184550248        8.5685006768      -17.0444171492  WZ1       2211            0.0000000000
      3155      1052  TIP3      H1             15.0105850248        7.6374406768      -17.1559671492  WZ1       2211            0.0000000000
      3156      1052  TIP3      H2             15.6760850248        8.9934506768      -17.0548771492  WZ1       2211            0.0000000000
      3157      1053  TIP3      OH2            16.1351750248       11.3570206768      -18.9671471492  WZ1       2212            0.0000000000
      3158      1053  TIP3      H1             15.8536750248       12.0664806768      -19.5447671492  WZ1       2212            0.0000000000
      3159      1053  TIP3      H2             17.0776050248       11.2843206768      -19.1180271492  WZ1       2212            0.0000000000
      3160      1054  TIP3      OH2             6.8870550248        8.1424706768      -17.8936471492  WZ1       2213            0.0000000000
      3161      1054  TIP3      H1              6.1199550248        7.6099506768      -18.1038871492  WZ1       2213            0.0000000000
      3162      1054  TIP3      H2              7.5659550248        7.8325106768      -18.4930171492  WZ1       2213            0.0000000000
      3163      1055  TIP3      OH2             9.6265450248        2.7702706768      -21.8811071492  WZ1       2214            0.0000000000
      3164      1055  TIP3      H1              9.5285050248        3.7165906768      -21.9864871492  WZ1       2214            0.0000000000
      3165      1055  TIP3      H2              8.8841650248        2.3976506768      -22.3567571492  WZ1       2214            0.0000000000
      3166      1056  TIP3      OH2            10.8905950248        7.0918106768      -18.3172671492  WZ1       2215            0.0000000000
      3167      1056  TIP3      H1             10.6551350248        6.8724806768      -17.4157771492  WZ1       2215            0.0000000000
      3168      1056  TIP3      H2             10.1072850248        6.8849306768      -18.8270171492  WZ1       2215            0.0000000000
      3169      1057  TIP3      OH2            13.6062550248        6.2191606768      -19.2419171492  WZ1       2216            0.0000000000
      3170      1057  TIP3      H1             12.6587950248        6.2511306768      -19.1095871492  WZ1       2216            0.0000000000
      3171      1057  TIP3      H2             13.9189250248        5.5938706768      -18.5880971492  WZ1       2216            0.0000000000
      3172      1058  TIP3      OH2            15.2404050248        4.8532706768      -17.2367271492  WZ1       2217            0.0000000000
      3173      1058  TIP3      H1             15.1435850248        3.9010006768      -17.2425371492  WZ1       2217            0.0000000000
      3174      1058  TIP3      H2             14.9187150248        5.1219506768      -16.3761771492  WZ1       2217            0.0000000000
      3175      1059  TIP3      OH2             5.0673350248        6.0628506768      -18.1891771492  WZ1       2218            0.0000000000
      3176      1059  TIP3      H1              5.2790750248        5.3564606768      -18.7994271492  WZ1       2218            0.0000000000
      3177      1059  TIP3      H2              4.9560850248        5.6254506768      -17.3450571492  WZ1       2218            0.0000000000
      3178      1060  TIP3      OH2             9.8483550248        2.0640106768      -19.2098271492  WZ1       2219            0.0000000000
      3179      1060  TIP3      H1             10.5601950248        1.4242306768      -19.2239171492  WZ1       2219            0.0000000000
      3180      1060  TIP3      H2              9.7473950248        2.3308406768      -20.1235171492  WZ1       2219            0.0000000000
      3181      1061  TIP3      OH2            10.2021050248        3.7468506768      -17.1561971492  WZ1       2220            0.0000000000
      3182      1061  TIP3      H1             10.0703250248        3.2712306768      -17.9763471492  WZ1       2220            0.0000000000
      3183      1061  TIP3      H2              9.6028450248        4.4912106768      -17.2114871492  WZ1       2220            0.0000000000
      3184      1062  TIP3      OH2             1.9658850248       20.6591106768      -29.4195971492  WZ1       2223            0.0000000000
      3185      1062  TIP3      H1              1.3185950248       20.1972806768      -29.9524771492  WZ1       2223            0.0000000000
      3186      1062  TIP3      H2              2.3203450248       19.9874406768      -28.8369771492  WZ1       2223            0.0000000000
      3187      1063  TIP3      OH2             2.8358050248       18.7398106768      -27.6149771492  WZ1       2224            0.0000000000
      3188      1063  TIP3      H1              2.5014850248       17.8595406768      -27.4429571492  WZ1       2224            0.0000000000
      3189      1063  TIP3      H2              3.0580450248       19.0853106768      -26.7504171492  WZ1       2224            0.0000000000
      3190      1064  TIP3      OH2            18.3983050248       14.9063706768      -17.0745571492  WZ1       2227            0.0000000000
      3191      1064  TIP3      H1             17.5324150248       14.8013406768      -16.6803271492  WZ1       2227            0.0000000000
      3192      1064  TIP3      H2             18.7748950248       15.6647006768      -16.6280871492  WZ1       2227            0.0000000000
      3193      1065  TIP3      OH2            18.3391850248       16.8789806768      -22.4821371492  WZ1       2231            0.0000000000
      3194      1065  TIP3      H1             17.6917150248       17.2041306768      -21.8566171492  WZ1       2231            0.0000000000
      3195      1065  TIP3      H2             17.8215850248       16.4387506768      -23.1563071492  WZ1       2231            0.0000000000
      3196      1066  TIP3      OH2             2.9157550248       11.8153506768      -25.1634871492  WZ1       2235            0.0000000000
      3197      1066  TIP3      H1              3.1000450248       11.7335206768      -26.0991971492  WZ1       2235            0.0000000000
      3198      1066  TIP3      H2              3.7650450248       11.6910506768      -24.7398471492  WZ1       2235            0.0000000000
      3199      1067  TIP3      OH2            18.7368050248       11.7074606768      -19.5350371492  WZ1       2236            0.0000000000
      3200      1067  TIP3      H1             19.3195350248       10.9726906768      -19.3433171492  WZ1       2236            0.0000000000
      3201      1067  TIP3      H2             19.3007350248       12.4794906768      -19.4884571492  WZ1       2236            0.0000000000
      3202      1068  TIP3      OH2            20.2335150248        9.6100406768      -18.8504971492  WZ1       2237            0.0000000000
      3203      1068  TIP3      H1             19.3701850248        9.2312506768      -19.0160271492  WZ1       2237            0.0000000000
      3204      1068  TIP3      H2             20.8378850248        8.8715206768      -18.9249171492  WZ1       2237            0.0000000000
      3205      1069  TIP3      OH2            18.2028250248        7.9014506768      -25.2754671492  WZ1       2240            0.0000000000
      3206      1069  TIP3      H1             19.1356250248        8.1134406768      -25.3098671492  WZ1       2240            0.0000000000
      3207      1069  TIP3      H2             17.9675750248        8.0026606768      -24.3531671492  WZ1       2240            0.0000000000
      3208      1070  TIP3      OH2            18.2320150248        8.6379806768      -22.4995271492  WZ1       2241            0.0000000000
      3209      1070  TIP3      H1             17.3891450248        8.9060206768      -22.1335471492  WZ1       2241            0.0000000000
      3210      1070  TIP3      H2             18.6744450248        9.4601706768      -22.7104171492  WZ1       2241            0.0000000000
      3211      1071  TIP3      OH2             2.5132350248        7.0858506768      -19.0226071492  WZ1       2242            0.0000000000
      3212      1071  TIP3      H1              3.4327250248        6.9636806768      -18.7862971492  WZ1       2242            0.0000000000
      3213      1071  TIP3      H2              2.0636850248        6.3358206768      -18.6332571492  WZ1       2242            0.0000000000
      3214      1072  TIP3      OH2            20.5151750248        2.6180006768      -17.1460271492  WZ1       2243            0.0000000000
      3215      1072  TIP3      H1             20.8648750248        1.9643506768      -17.7515571492  WZ1       2243            0.0000000000
      3216      1072  TIP3      H2             20.6621250248        3.4554106768      -17.5857671492  WZ1       2243            0.0000000000
      3217      1073  TIP3      OH2             3.7344850248        5.3980106768      -26.1313171492  WZ1       2245            0.0000000000
      3218      1073  TIP3      H1              4.1796450248        4.6062606768      -25.8293471492  WZ1       2245            0.0000000000
      3219      1073  TIP3      H2              4.2007850248        6.1145306768      -25.7007571492  WZ1       2245            0.0000000000
      3220      1074  TIP3      OH2             2.0385150248        8.3973106768      -25.0622971492  WZ1       2246            0.0000000000
      3221      1074  TIP3      H1              2.5304950248        8.1763606768      -25.8530971492  WZ1       2246            0.0000000000
      3222      1074  TIP3      H2              2.4006050248        9.2376506768      -24.7813471492  WZ1       2246            0.0000000000
      3223      1075  TIP3      OH2            20.0348950248        4.7274606768      -18.7968971492  WZ1       2247            0.0000000000
      3224      1075  TIP3      H1             19.1174650248        4.9981706768      -18.8325471492  WZ1       2247            0.0000000000
      3225      1075  TIP3      H2             20.1578350248        4.1923006768      -19.5809271492  WZ1       2247            0.0000000000
      3226      1076  TIP3      OH2             2.3521650248        4.6552206768      -31.0080571492  WZ1       2249            0.0000000000
      3227      1076  TIP3      H1              1.4270050248        4.8638806768      -31.1375071492  WZ1       2249            0.0000000000
      3228      1076  TIP3      H2              2.8061550248        5.1393006768      -31.6978271492  WZ1       2249            0.0000000000
      3229      1077  TIP3      OH2             2.3157050248        3.3931206768      -22.6638071492  WZ1       2251            0.0000000000
      3230      1077  TIP3      H1              1.6507550248        3.1471506768      -22.0207171492  WZ1       2251            0.0000000000
      3231      1077  TIP3      H2              1.8728350248        4.0151606768      -23.2410071492  WZ1       2251            0.0000000000
      3232      1078  TIP3      OH2             4.5076350248       16.5685306768      -18.5192271492  WZ1       2252            0.0000000000
      3233      1078  TIP3      H1              3.6868850248       16.7431806768      -18.9797571492  WZ1       2252            0.0000000000
      3234      1078  TIP3      H2              4.2554150248       16.4950006768      -17.5987871492  WZ1       2252            0.0000000000
      3235      1079  TIP3      OH2             7.4619250248       17.5426506768      -22.2608271492  WZ1       2253            0.0000000000
      3236      1079  TIP3      H1              7.0370350248       18.3525006768      -22.5433671492  WZ1       2253            0.0000000000
      3237      1079  TIP3      H2              8.3662050248       17.6280606768      -22.5628471492  WZ1       2253            0.0000000000
      3238      1080  TIP3      OH2            11.7730650248       18.9416506768      -19.3014571492  WZ1       2254            0.0000000000
      3239      1080  TIP3      H1             11.9578150248       18.6082606768      -18.4234271492  WZ1       2254            0.0000000000
      3240      1080  TIP3      H2             12.6195150248       19.2515106768      -19.6235371492  WZ1       2254            0.0000000000
      3241      1081  TIP3      OH2            14.1181050248       20.2275406768      -20.0573171492  WZ1       2255            0.0000000000
      3242      1081  TIP3      H1             14.7949950248       19.5947706768      -20.2973971492  WZ1       2255            0.0000000000
      3243      1081  TIP3      H2             14.4399850248       20.6285906768      -19.2499871492  WZ1       2255            0.0000000000
      3244      1082  TIP3      OH2            19.0354850248        2.8170906768      -20.9778171492  WZ1       2256            0.0000000000
      3245      1082  TIP3      H1             18.2228350248        3.1421206768      -21.3653471492  WZ1       2256            0.0000000000
      3246      1082  TIP3      H2             19.2683350248        2.0569406768      -21.5109071492  WZ1       2256            0.0000000000
      3247      1083  TIP3      OH2             4.8635950248       20.7990406768      -22.2132971492  WZ1       2257            0.0000000000
      3248      1083  TIP3      H1              4.1432350248       21.2391406768      -22.6645271492  WZ1       2257            0.0000000000
      3249      1083  TIP3      H2              4.4979950248       20.5485106768      -21.3648971492  WZ1       2257            0.0000000000
      3250      1084  TIP3      OH2             7.3308550248       20.3994306768      -23.1835771492  WZ1       2258            0.0000000000
      3251      1084  TIP3      H1              6.4660750248       20.4712806768      -22.7795671492  WZ1       2258            0.0000000000
      3252      1084  TIP3      H2              7.2757550248       20.9461606768      -23.9673271492  WZ1       2258            0.0000000000
      3253      1085  TIP3      OH2            12.0414150248       20.2873206768      -24.0079771492  WZ1       2259            0.0000000000
      3254      1085  TIP3      H1             11.5848150248       20.8162906768      -24.6621371492  WZ1       2259            0.0000000000
      3255      1085  TIP3      H2             12.2042150248       20.8904606768      -23.2827471492  WZ1       2259            0.0000000000
      3256      1086  TIP3      OH2            14.3690450248       19.1652806768      -23.0629471492  WZ1       2260            0.0000000000
      3257      1086  TIP3      H1             13.4644150248       19.3303006768      -23.3287371492  WZ1       2260            0.0000000000
      3258      1086  TIP3      H2             14.7979050248       20.0185006768      -23.1286071492  WZ1       2260            0.0000000000
      3259      1087  TIP3      OH2             4.2784050248       19.4222906768      -25.3031171492  WZ1       2262            0.0000000000
      3260      1087  TIP3      H1              4.2600050248       18.9968006768      -24.4458871492  WZ1       2262            0.0000000000
      3261      1087  TIP3      H2              5.0831950248       19.1037906768      -25.7118971492  WZ1       2262            0.0000000000
      3262      1088  TIP3      OH2             6.4197150248       18.1321606768      -26.6481271492  WZ1       2263            0.0000000000
      3263      1088  TIP3      H1              6.2007850248       17.2159006768      -26.4785271492  WZ1       2263            0.0000000000
      3264      1088  TIP3      H2              7.2439350248       18.2722006768      -26.1819871492  WZ1       2263            0.0000000000
      3265      1089  TIP3      OH2             8.9569650248       18.6020906768      -25.7993271492  WZ1       2264            0.0000000000
      3266      1089  TIP3      H1              9.1695350248       17.7139906768      -26.0862371492  WZ1       2264            0.0000000000
      3267      1089  TIP3      H2              9.0214750248       18.5678606768      -24.8449271492  WZ1       2264            0.0000000000
      3268      1090  TIP3      OH2            12.4653350248        4.2661506768      -26.6549971492  WZ1       2265            0.0000000000
      3269      1090  TIP3      H1             11.7910150248        3.6367106768      -26.3994171492  WZ1       2265            0.0000000000
      3270      1090  TIP3      H2             13.0292550248        3.7820406768      -27.2582071492  WZ1       2265            0.0000000000
      3271      1091  TIP3      OH2            17.6080550248        2.3735506768      -26.5422871492  WZ1       2266            0.0000000000
      3272      1091  TIP3      H1             18.2118150248        2.9210906768      -27.0441871492  WZ1       2266            0.0000000000
      3273      1091  TIP3      H2             16.7382550248        2.6925906768      -26.7828771492  WZ1       2266            0.0000000000
      3274      1092  TIP3      OH2             4.7920850248        2.9001806768      -28.8330071492  WZ1       2268            0.0000000000
      3275      1092  TIP3      H1              4.0150650248        2.6656706768      -29.3404171492  WZ1       2268            0.0000000000
      3276      1092  TIP3      H2              5.3224450248        2.1033906768      -28.8242071492  WZ1       2268            0.0000000000
      3277      1093  TIP3      OH2             3.6284250248        2.6979906768      -33.0293971492  WZ1       2269            0.0000000000
      3278      1093  TIP3      H1              4.0674950248        3.3090406768      -33.6210471492  WZ1       2269            0.0000000000
      3279      1093  TIP3      H2              2.9946650248        3.2364006768      -32.5553971492  WZ1       2269            0.0000000000
      3280      1094  TIP3      OH2             9.3713450248        2.8268906768      -29.0196971492  WZ1       2270            0.0000000000
      3281      1094  TIP3      H1             10.2456850248        3.2153206768      -29.0492671492  WZ1       2270            0.0000000000
      3282      1094  TIP3      H2              9.2354250248        2.6116706768      -28.0969771492  WZ1       2270            0.0000000000
      3283      1095  TIP3      OH2            14.9281850248        2.8568706768      -27.3705271492  WZ1       2271            0.0000000000
      3284      1095  TIP3      H1             15.0043450248        2.9520306768      -28.3199271492  WZ1       2271            0.0000000000
      3285      1095  TIP3      H2             14.6531050248        1.9491606768      -27.2416171492  WZ1       2271            0.0000000000
      3286      1096  TIP3      OH2             5.4893350248        4.6141406768      -34.5869871492  WZ1       2274            0.0000000000
      3287      1096  TIP3      H1              5.9806750248        3.9843806768      -35.1144371492  WZ1       2274            0.0000000000
      3288      1096  TIP3      H2              6.1129650248        4.9100806768      -33.9238671492  WZ1       2274            0.0000000000
      3289      1097  TIP3      OH2             4.7498850248        3.4143706768      -19.3153871492  WZ1       2278            0.0000000000
      3290      1097  TIP3      H1              4.3837050248        2.6486306768      -18.8729171492  WZ1       2278            0.0000000000
      3291      1097  TIP3      H2              5.6627350248        3.4433906768      -19.0288771492  WZ1       2278            0.0000000000
      3292      1098  TIP3      OH2             6.7229650248        2.7648106768      -17.7796771492  WZ1       2279            0.0000000000
      3293      1098  TIP3      H1              7.6213250248        2.4908306768      -17.9643371492  WZ1       2279            0.0000000000
      3294      1098  TIP3      H2              6.3362750248        2.0224106768      -17.3154171492  WZ1       2279            0.0000000000
      3295      1099  TIP3      OH2            15.1441950248        2.0973406768      -17.5973971492  WZ1       2281            0.0000000000
      3296      1099  TIP3      H1             15.2209150248        1.6714106768      -16.7436271492  WZ1       2281            0.0000000000
      3297      1099  TIP3      H2             16.0378550248        2.1108106768      -17.9400471492  WZ1       2281            0.0000000000
      3298      1100  TIP3      OH2            18.3203050248       18.1699706768      -18.9049771492  WZ1       2282            0.0000000000
      3299      1100  TIP3      H1             17.5384950248       17.9837706768      -19.4249171492  WZ1       2282            0.0000000000
      3300      1100  TIP3      H2             18.2482950248       19.0994006768      -18.6877271492  WZ1       2282            0.0000000000
      3301      1101  TIP3      OH2            24.6653450248       11.5063006768      -21.0088771492  WZ1       2316            0.0000000000
      3302      1101  TIP3      H1             24.7356650248       12.1569806768      -20.3103771492  WZ1       2316            0.0000000000
      3303      1101  TIP3      H2             23.7745650248       11.6090506768      -21.3437871492  WZ1       2316            0.0000000000
      3304      1102  TIP3      OH2            24.2909250248        8.6521006768      -22.1829571492  WZ1       2338            0.0000000000
      3305      1102  TIP3      H1             24.2528650248        9.0522606768      -21.3142471492  WZ1       2338            0.0000000000
      3306      1102  TIP3      H2             23.8000350248        7.8353406768      -22.0926671492  WZ1       2338            0.0000000000
      3307      1103  TIP3      OH2            24.4099950248       13.3608106768      -18.9027571492  WZ1       2348            0.0000000000
      3308      1103  TIP3      H1             25.1422350248       13.6154006768      -18.3413071492  WZ1       2348            0.0000000000
      3309      1103  TIP3      H2             23.6298650248       13.5653506768      -18.3872171492  WZ1       2348            0.0000000000
      3310      1104  TIP3      OH2            21.7429350248       11.1248806768      -20.9814671492  WZ1       2358            0.0000000000
      3311      1104  TIP3      H1             21.9657950248       10.7068406768      -20.1497171492  WZ1       2358            0.0000000000
      3312      1104  TIP3      H2             21.1409450248       10.5123806768      -21.4041871492  WZ1       2358            0.0000000000
      3313      1105  TIP3      OH2            23.3768850248        5.8781506768      -21.4233271492  WZ1       2370            0.0000000000
      3314      1105  TIP3      H1             22.4841150248        6.2166906768      -21.4909271492  WZ1       2370            0.0000000000
      3315      1105  TIP3      H2             23.2781650248        5.0227606768      -21.0052471492  WZ1       2370            0.0000000000
      3316      1106  TIP3      OH2            22.2384250248       19.5697306768      -18.6361671492  WZ1       2389            0.0000000000
      3317      1106  TIP3      H1             22.7786450248       19.3531306768      -17.8762471492  WZ1       2389            0.0000000000
      3318      1106  TIP3      H2             21.7572250248       18.7643306768      -18.8259171492  WZ1       2389            0.0000000000
      3319      1107  TIP3      OH2            22.1453750248       13.3801406768      -17.6817371492  WZ1       2394            0.0000000000
      3320      1107  TIP3      H1             22.2894250248       12.4782106768      -17.9680671492  WZ1       2394            0.0000000000
      3321      1107  TIP3      H2             21.3731150248       13.6663506768      -18.1695071492  WZ1       2394            0.0000000000
      3322      1108  TIP3      OH2            22.9780250248       10.5804706768      -18.2618071492  WZ1       2399            0.0000000000
      3323      1108  TIP3      H1             23.3861450248        9.7231306768      -18.3827471492  WZ1       2399            0.0000000000
      3324      1108  TIP3      H2             22.7177850248       10.5946006768      -17.3407771492  WZ1       2399            0.0000000000
      3325      1109  TIP3      OH2            27.2644250248        6.9441206768      -19.8052071492  WZ1       2404            0.0000000000
      3326      1109  TIP3      H1             27.4145150248        6.2152506768      -20.4072371492  WZ1       2404            0.0000000000
      3327      1109  TIP3      H2             27.2666650248        7.7212906768      -20.3639871492  WZ1       2404            0.0000000000
      3328      1110  TIP3      OH2            25.7430550248        8.1424706768      -17.8936471492  WZ1       2409            0.0000000000
      3329      1110  TIP3      H1             24.9759550248        7.6099506768      -18.1038871492  WZ1       2409            0.0000000000
      3330      1110  TIP3      H2             26.4219550248        7.8325106768      -18.4930171492  WZ1       2409            0.0000000000
      3331      1111  TIP3      OH2            28.4825450248        2.7702706768      -21.8811071492  WZ1       2410            0.0000000000
      3332      1111  TIP3      H1             28.3845050248        3.7165906768      -21.9864871492  WZ1       2410            0.0000000000
      3333      1111  TIP3      H2             27.7401650248        2.3976506768      -22.3567571492  WZ1       2410            0.0000000000
      3334      1112  TIP3      OH2            29.7465950248        7.0918106768      -18.3172671492  WZ1       2411            0.0000000000
      3335      1112  TIP3      H1             29.5111350248        6.8724806768      -17.4157771492  WZ1       2411            0.0000000000
      3336      1112  TIP3      H2             28.9632850248        6.8849306768      -18.8270171492  WZ1       2411            0.0000000000
      3337      1113  TIP3      OH2            34.0964050248        4.8532706768      -17.2367271492  WZ1       2413            0.0000000000
      3338      1113  TIP3      H1             33.9995850248        3.9010006768      -17.2425371492  WZ1       2413            0.0000000000
      3339      1113  TIP3      H2             33.7747150248        5.1219506768      -16.3761771492  WZ1       2413            0.0000000000
      3340      1114  TIP3      OH2            23.9233350248        6.0628506768      -18.1891771492  WZ1       2414            0.0000000000
      3341      1114  TIP3      H1             24.1350750248        5.3564606768      -18.7994271492  WZ1       2414            0.0000000000
      3342      1114  TIP3      H2             23.8120850248        5.6254506768      -17.3450571492  WZ1       2414            0.0000000000
      3343      1115  TIP3      OH2            28.7043550248        2.0640106768      -19.2098271492  WZ1       2415            0.0000000000
      3344      1115  TIP3      H1             29.4161950248        1.4242306768      -19.2239171492  WZ1       2415            0.0000000000
      3345      1115  TIP3      H2             28.6033950248        2.3308406768      -20.1235171492  WZ1       2415            0.0000000000
      3346      1116  TIP3      OH2            29.0581050248        3.7468506768      -17.1561971492  WZ1       2416            0.0000000000
      3347      1116  TIP3      H1             28.9263250248        3.2712306768      -17.9763471492  WZ1       2416            0.0000000000
      3348      1116  TIP3      H2             28.4588450248        4.4912106768      -17.2114871492  WZ1       2416            0.0000000000
      3349      1117  TIP3      OH2            21.3692350248        7.0858506768      -19.0226071492  WZ1       2422            0.0000000000
      3350      1117  TIP3      H1             22.2887250248        6.9636806768      -18.7862971492  WZ1       2422            0.0000000000
      3351      1117  TIP3      H2             20.9196850248        6.3358206768      -18.6332571492  WZ1       2422            0.0000000000
      3352      1118  TIP3      OH2            21.1717050248        3.3931206768      -22.6638071492  WZ1       2426            0.0000000000
      3353      1118  TIP3      H1             20.5067550248        3.1471506768      -22.0207171492  WZ1       2426            0.0000000000
      3354      1118  TIP3      H2             20.7288350248        4.0151606768      -23.2410071492  WZ1       2426            0.0000000000
      3355      1119  TIP3      OH2            23.3636350248       16.5685306768      -18.5192271492  WZ1       2427            0.0000000000
      3356      1119  TIP3      H1             22.5428850248       16.7431806768      -18.9797571492  WZ1       2427            0.0000000000
      3357      1119  TIP3      H2             23.1114150248       16.4950006768      -17.5987871492  WZ1       2427            0.0000000000
      3358      1120  TIP3      OH2            23.6058850248        3.4143706768      -19.3153871492  WZ1       2448            0.0000000000
      3359      1120  TIP3      H1             23.2397050248        2.6486306768      -18.8729171492  WZ1       2448            0.0000000000
      3360      1120  TIP3      H2             24.5187350248        3.4433906768      -19.0288771492  WZ1       2448            0.0000000000
      3361      1121  TIP3      OH2            25.5789650248        2.7648106768      -17.7796771492  WZ1       2449            0.0000000000
      3362      1121  TIP3      H1             26.4773250248        2.4908306768      -17.9643371492  WZ1       2449            0.0000000000
      3363      1121  TIP3      H2             25.1922750248        2.0224106768      -17.3154171492  WZ1       2449            0.0000000000
      3364      1122  TIP3      OH2            34.0001950248        2.0973406768      -17.5973971492  WZ1       2451            0.0000000000
      3365      1122  TIP3      H1             34.0769150248        1.6714106768      -16.7436271492  WZ1       2451            0.0000000000
      3366      1122  TIP3      H2             34.8938550248        2.1108106768      -17.9400471492  WZ1       2451            0.0000000000
      3367      1123  TIP3      OH2           -17.4646449752       25.6790706768      -21.9527371492  WZ1       2466            0.0000000000
      3368      1123  TIP3      H1            -18.1531849752       26.3371406768      -22.0480771492  WZ1       2466            0.0000000000
      3369      1123  TIP3      H2            -17.4491849752       25.4818606768      -21.0161971492  WZ1       2466            0.0000000000
      3370      1124  TIP3      OH2           -19.7320749752       24.7485306768      -20.5817671492  WZ1       2552            0.0000000000
      3371      1124  TIP3      H1            -20.6484949752       25.0107006768      -20.6693971492  WZ1       2552            0.0000000000
      3372      1124  TIP3      H2            -19.3965749752       24.7454306768      -21.4782371492  WZ1       2552            0.0000000000
      3373      1125  TIP3      OH2           -22.8935449752       27.4245006768      -17.0444171492  WZ1       2573            0.0000000000
      3374      1125  TIP3      H1            -22.7014149752       26.4934406768      -17.1559671492  WZ1       2573            0.0000000000
      3375      1125  TIP3      H2            -22.0359149752       27.8494506768      -17.0548771492  WZ1       2573            0.0000000000
      3376      1126  TIP3      OH2           -22.4715949752       23.7092706768      -17.2367271492  WZ1       2579            0.0000000000
      3377      1126  TIP3      H1            -22.5684149752       22.7570006768      -17.2425371492  WZ1       2579            0.0000000000
      3378      1126  TIP3      H2            -22.7932849752       23.9779506768      -16.3761771492  WZ1       2579            0.0000000000
      3379      1127  TIP3      OH2           -17.4784849752       28.4660406768      -18.8504971492  WZ1       2594            0.0000000000
      3380      1127  TIP3      H1            -18.3418149752       28.0872506768      -19.0160271492  WZ1       2594            0.0000000000
      3381      1127  TIP3      H2            -16.8741149752       27.7275206768      -18.9249171492  WZ1       2594            0.0000000000
      3382      1128  TIP3      OH2           -17.1968249752       21.4740006768      -17.1460271492  WZ1       2600            0.0000000000
      3383      1128  TIP3      H1            -16.8471249752       20.8203506768      -17.7515571492  WZ1       2600            0.0000000000
      3384      1128  TIP3      H2            -17.0498749752       22.3114106768      -17.5857671492  WZ1       2600            0.0000000000
      3385      1129  TIP3      OH2           -17.6771049752       23.5834606768      -18.7968971492  WZ1       2604            0.0000000000
      3386      1129  TIP3      H1            -18.5945349752       23.8541706768      -18.8325471492  WZ1       2604            0.0000000000
      3387      1129  TIP3      H2            -17.5541649752       23.0483006768      -19.5809271492  WZ1       2604            0.0000000000
      3388      1130  TIP3      OH2           -18.6765149752       21.6730906768      -20.9778171492  WZ1       2609            0.0000000000
      3389      1130  TIP3      H1            -19.4891649752       21.9981206768      -21.3653471492  WZ1       2609            0.0000000000
      3390      1130  TIP3      H2            -18.4436649752       20.9129406768      -21.5109071492  WZ1       2609            0.0000000000
      3391      1131  TIP3      OH2           -22.5678049752       20.9533406768      -17.5973971492  WZ1       2622            0.0000000000
      3392      1131  TIP3      H1            -22.4910849752       20.5274106768      -16.7436271492  WZ1       2622            0.0000000000
      3393      1131  TIP3      H2            -21.6741449752       20.9668106768      -17.9400471492  WZ1       2622            0.0000000000
      3394      1132  TIP3      OH2             0.9998950248       24.2011506768      -24.1887171492  WZ1       2631            0.0000000000
      3395      1132  TIP3      H1              1.0491150248       24.8112706768      -23.4528071492  WZ1       2631            0.0000000000
      3396      1132  TIP3      H2              1.4254050248       24.6622406768      -24.9116071492  WZ1       2631            0.0000000000
      3397      1133  TIP3      OH2            -4.5223849752       26.9938606768      -24.7218571492  WZ1       2632            0.0000000000
      3398      1133  TIP3      H1             -4.3797949752       26.0475606768      -24.7016971492  WZ1       2632            0.0000000000
      3399      1133  TIP3      H2             -4.6284849752       27.2008406768      -25.6503671492  WZ1       2632            0.0000000000
      3400      1134  TIP3      OH2            -3.6452849752       25.2260606768      -29.0485471492  WZ1       2634            0.0000000000
      3401      1134  TIP3      H1             -2.9988549752       24.8973806768      -28.4237871492  WZ1       2634            0.0000000000
      3402      1134  TIP3      H2             -3.1353449752       25.7439606768      -29.6714071492  WZ1       2634            0.0000000000
      3403      1135  TIP3      OH2             1.3913550248       25.6790706768      -21.9527371492  WZ1       2637            0.0000000000
      3404      1135  TIP3      H1              0.7028150248       26.3371406768      -22.0480771492  WZ1       2637            0.0000000000
      3405      1135  TIP3      H2              1.4068150248       25.4818606768      -21.0161971492  WZ1       2637            0.0000000000
      3406      1136  TIP3      OH2           -12.5573649752       24.0133406768      -23.3752971492  WZ1       2638            0.0000000000
      3407      1136  TIP3      H1            -12.7761949752       24.5434006768      -24.1416971492  WZ1       2638            0.0000000000
      3408      1136  TIP3      H2            -13.2252749752       24.2398906768      -22.7281571492  WZ1       2638            0.0000000000
      3409      1137  TIP3      OH2            -1.8814449752       24.5169906768      -27.0679571492  WZ1       2641            0.0000000000
      3410      1137  TIP3      H1             -2.0966449752       23.7513306768      -26.5353571492  WZ1       2641            0.0000000000
      3411      1137  TIP3      H2             -1.2257049752       24.9894506768      -26.5551071492  WZ1       2641            0.0000000000
      3412      1138  TIP3      OH2            -1.5340349752       23.2321206768      -23.3886071492  WZ1       2646            0.0000000000
      3413      1138  TIP3      H1             -2.2701149752       23.8428306768      -23.4264771492  WZ1       2646            0.0000000000
      3414      1138  TIP3      H2             -0.8506349752       23.6470206768      -23.9149671492  WZ1       2646            0.0000000000
      3415      1139  TIP3      OH2            -8.5308949752       21.3188506768      -25.9228071492  WZ1       2647            0.0000000000
      3416      1139  TIP3      H1             -8.6484749752       20.3704506768      -25.9769771492  WZ1       2647            0.0000000000
      3417      1139  TIP3      H2             -9.3858849752       21.6514606768      -25.6496971492  WZ1       2647            0.0000000000
      3418      1140  TIP3      OH2             1.1049850248       29.5342606768      -23.1287871492  WZ1       2652            0.0000000000
      3419      1140  TIP3      H1              0.4523950248       30.2288206768      -23.0396971492  WZ1       2652            0.0000000000
      3420      1140  TIP3      H2              1.5700150248       29.7443506768      -23.9386271492  WZ1       2652            0.0000000000
      3421      1141  TIP3      OH2            -2.9612849752       28.5400006768      -21.4029371492  WZ1       2654            0.0000000000
      3422      1141  TIP3      H1             -2.8813749752       29.3034406768      -20.8310871492  WZ1       2654            0.0000000000
      3423      1141  TIP3      H2             -3.5625149752       28.8192406768      -22.0934271492  WZ1       2654            0.0000000000
      3424      1142  TIP3      OH2            -1.0298849752       27.3683106768      -19.1372671492  WZ1       2668            0.0000000000
      3425      1142  TIP3      H1             -1.4372049752       27.8488706768      -19.8579371492  WZ1       2668            0.0000000000
      3426      1142  TIP3      H2             -0.9893149752       26.4629106768      -19.4451871492  WZ1       2668            0.0000000000
      3427      1143  TIP3      OH2           -11.2621349752       22.2223006768      -25.1451771492  WZ1       2670            0.0000000000
      3428      1143  TIP3      H1            -12.1237649752       22.1351206768      -25.5528871492  WZ1       2670            0.0000000000
      3429      1143  TIP3      H2            -11.2845649752       23.0783106768      -24.7174171492  WZ1       2670            0.0000000000
      3430      1144  TIP3      OH2            -6.5993549752       21.9443406768      -21.7704771492  WZ1       2671            0.0000000000
      3431      1144  TIP3      H1             -6.1790449752       21.5290506768      -21.0174171492  WZ1       2671            0.0000000000
      3432      1144  TIP3      H2             -7.5323949752       21.7656706768      -21.6532771492  WZ1       2671            0.0000000000
      3433      1145  TIP3      OH2            -3.2728649752       25.6998606768      -20.9170271492  WZ1       2672            0.0000000000
      3434      1145  TIP3      H1             -3.7869149752       25.5740806768      -20.1194271492  WZ1       2672            0.0000000000
      3435      1145  TIP3      H2             -3.4283949752       26.6121706768      -21.1614071492  WZ1       2672            0.0000000000
      3436      1146  TIP3      OH2           -11.1711249752       27.1877506768      -24.0501571492  WZ1       2675            0.0000000000
      3437      1146  TIP3      H1            -11.8129149752       27.1474806768      -23.3411471492  WZ1       2675            0.0000000000
      3438      1146  TIP3      H2            -11.1339249752       28.1142206768      -24.2878571492  WZ1       2675            0.0000000000
      3439      1147  TIP3      OH2            -6.5365049752       28.0004306768      -18.8330071492  WZ1       2678            0.0000000000
      3440      1147  TIP3      H1             -7.0991249752       27.2955906768      -18.5122271492  WZ1       2678            0.0000000000
      3441      1147  TIP3      H2             -5.7101649752       27.8796206768      -18.3652471492  WZ1       2678            0.0000000000
      3442      1148  TIP3      OH2            -4.6338949752       27.2708306768      -27.5071071492  WZ1       2679            0.0000000000
      3443      1148  TIP3      H1             -4.8294449752       27.8765106768      -28.2220471492  WZ1       2679            0.0000000000
      3444      1148  TIP3      H2             -4.4526349752       26.4373506768      -27.9414771492  WZ1       2679            0.0000000000
      3445      1149  TIP3      OH2           -13.4210749752       27.5081006768      -22.1829571492  WZ1       2680            0.0000000000
      3446      1149  TIP3      H1            -13.4591349752       27.9082606768      -21.3142471492  WZ1       2680            0.0000000000
      3447      1149  TIP3      H2            -13.9119649752       26.6913406768      -22.0926671492  WZ1       2680            0.0000000000
      3448      1150  TIP3      OH2            -5.3699749752       28.9089606768      -22.8358671492  WZ1       2684            0.0000000000
      3449      1150  TIP3      H1             -5.0464949752       28.2779306768      -23.4788171492  WZ1       2684            0.0000000000
      3450      1150  TIP3      H2             -5.8100449752       28.3741806768      -22.1751271492  WZ1       2684            0.0000000000
      3451      1151  TIP3      OH2            -4.1874949752       24.0711406768      -24.7875671492  WZ1       2688            0.0000000000
      3452      1151  TIP3      H1             -4.8643349752       24.2024506768      -24.1235971492  WZ1       2688            0.0000000000
      3453      1151  TIP3      H2             -4.6730049752       23.9160906768      -25.5977971492  WZ1       2688            0.0000000000
      3454      1152  TIP3      OH2           -13.3020049752       32.2168106768      -18.9027571492  WZ1       2690            0.0000000000
      3455      1152  TIP3      H1            -12.5697649752       32.4714006768      -18.3413071492  WZ1       2690            0.0000000000
      3456      1152  TIP3      H2            -14.0821349752       32.4213506768      -18.3872171492  WZ1       2690            0.0000000000
      3457      1153  TIP3      OH2            -7.2727149752       27.6238106768      -26.1647871492  WZ1       2691            0.0000000000
      3458      1153  TIP3      H1             -6.7083749752       27.0774706768      -26.7118271492  WZ1       2691            0.0000000000
      3459      1153  TIP3      H2             -7.4203749752       27.1020006768      -25.3760271492  WZ1       2691            0.0000000000
      3460      1154  TIP3      OH2            -8.6461249752       26.0124206768      -23.7507471492  WZ1       2693            0.0000000000
      3461      1154  TIP3      H1             -9.4815949752       26.4663706768      -23.6405071492  WZ1       2693            0.0000000000
      3462      1154  TIP3      H2             -8.1220649752       26.2882706768      -22.9987571492  WZ1       2693            0.0000000000
      3463      1155  TIP3      OH2            -0.9519749752       31.3580106768      -23.2793471492  WZ1       2695            0.0000000000
      3464      1155  TIP3      H1             -0.3100949752       31.8146406768      -23.8231271492  WZ1       2695            0.0000000000
      3465      1155  TIP3      H2             -1.7822849752       31.4712506768      -23.7419371492  WZ1       2695            0.0000000000
      3466      1156  TIP3      OH2            -8.9525749752       29.4978706768      -18.7684971492  WZ1       2702            0.0000000000
      3467      1156  TIP3      H1             -9.2484949752       29.3321706768      -19.6635871492  WZ1       2702            0.0000000000
      3468      1156  TIP3      H2             -8.0210549752       29.2779006768      -18.7791071492  WZ1       2702            0.0000000000
      3469      1157  TIP3      OH2            -3.1454049752       30.7098506768      -25.0250371492  WZ1       2706            0.0000000000
      3470      1157  TIP3      H1             -4.0737149752       30.4780406768      -25.0521071492  WZ1       2706            0.0000000000
      3471      1157  TIP3      H2             -2.6942949752       29.9328306768      -25.3551571492  WZ1       2706            0.0000000000
      3472      1158  TIP3      OH2           -14.3351149752       24.7341506768      -21.4233271492  WZ1       2712            0.0000000000
      3473      1158  TIP3      H1            -15.2278849752       25.0726906768      -21.4909271492  WZ1       2712            0.0000000000
      3474      1158  TIP3      H2            -14.4338349752       23.8787606768      -21.0052471492  WZ1       2712            0.0000000000
      3475      1159  TIP3      OH2            -5.6007749752       24.4751806768      -22.5334671492  WZ1       2717            0.0000000000
      3476      1159  TIP3      H1             -4.9019849752       24.5490506768      -21.8834971492  WZ1       2717            0.0000000000
      3477      1159  TIP3      H2             -5.9816349752       23.6106806768      -22.3791771492  WZ1       2717            0.0000000000
      3478      1160  TIP3      OH2            -7.0806549752       26.8415006768      -21.4167371492  WZ1       2720            0.0000000000
      3479      1160  TIP3      H1             -6.9616249752       27.4150406768      -20.6596971492  WZ1       2720            0.0000000000
      3480      1160  TIP3      H2             -6.4251949752       26.1534406768      -21.3019571492  WZ1       2720            0.0000000000
      3481      1161  TIP3      OH2            -6.7326249752       22.9365306768      -29.6632871492  WZ1       2721            0.0000000000
      3482      1161  TIP3      H1             -7.0792749752       23.5535906768      -29.0188571492  WZ1       2721            0.0000000000
      3483      1161  TIP3      H2             -6.0739349752       23.4371006768      -30.1447371492  WZ1       2721            0.0000000000
      3484      1162  TIP3      OH2            -0.8760749752       24.7485306768      -20.5817671492  WZ1       2723            0.0000000000
      3485      1162  TIP3      H1             -1.7924949752       25.0107006768      -20.6693971492  WZ1       2723            0.0000000000
      3486      1162  TIP3      H2             -0.5405749752       24.7454306768      -21.4782371492  WZ1       2723            0.0000000000
      3487      1163  TIP3      OH2            -2.2739749752       28.4986306768      -26.4860371492  WZ1       2724            0.0000000000
      3488      1163  TIP3      H1             -3.0715349752       28.0836506768      -26.8145371492  WZ1       2724            0.0000000000
      3489      1163  TIP3      H2             -1.8288649752       27.8080006768      -25.9949871492  WZ1       2724            0.0000000000
      3490      1164  TIP3      OH2           -13.6922749752       21.8726506768      -26.1265471492  WZ1       2727            0.0000000000
      3491      1164  TIP3      H1            -13.9212949752       21.9319006768      -27.0540471492  WZ1       2727            0.0000000000
      3492      1164  TIP3      H2            -14.1349349752       21.0812006768      -25.8201371492  WZ1       2727            0.0000000000
      3493      1165  TIP3      OH2            -8.9110149752       32.2059506768      -18.2490971492  WZ1       2732            0.0000000000
      3494      1165  TIP3      H1             -9.2396349752       32.4767606768      -19.1063571492  WZ1       2732            0.0000000000
      3495      1165  TIP3      H2             -8.7591949752       31.2649306768      -18.3365971492  WZ1       2732            0.0000000000
      3496      1166  TIP3      OH2            -3.1764949752       32.1216806768      -20.8658671492  WZ1       2734            0.0000000000
      3497      1166  TIP3      H1             -2.4310149752       32.7100506768      -20.9854671492  WZ1       2734            0.0000000000
      3498      1166  TIP3      H2             -3.9338149752       32.7036506768      -20.8025571492  WZ1       2734            0.0000000000
      3499      1167  TIP3      OH2           -14.7339749752       29.4364706768      -18.2618071492  WZ1       2735            0.0000000000
      3500      1167  TIP3      H1            -14.3258549752       28.5791306768      -18.3827471492  WZ1       2735            0.0000000000
      3501      1167  TIP3      H2            -14.9942149752       29.4506006768      -17.3407771492  WZ1       2735            0.0000000000
      3502      1168  TIP3      OH2           -10.7869449752       28.4450406768      -20.8875171492  WZ1       2737            0.0000000000
      3503      1168  TIP3      H1            -11.4053349752       29.1197006768      -20.6070471492  WZ1       2737            0.0000000000
      3504      1168  TIP3      H2            -10.4428249752       28.7664306768      -21.7208971492  WZ1       2737            0.0000000000
      3505      1169  TIP3      OH2            -5.7671249752       30.9165706768      -17.6100371492  WZ1       2739            0.0000000000
      3506      1169  TIP3      H1             -4.8140049752       31.0004806768      -17.6374371492  WZ1       2739            0.0000000000
      3507      1169  TIP3      H2             -5.9276649752       30.2047506768      -16.9905471492  WZ1       2739            0.0000000000
      3508      1170  TIP3      OH2           -10.4475749752       25.8001206768      -19.8052071492  WZ1       2741            0.0000000000
      3509      1170  TIP3      H1            -10.2974849752       25.0712506768      -20.4072371492  WZ1       2741            0.0000000000
      3510      1170  TIP3      H2            -10.4453349752       26.5772906768      -20.3639871492  WZ1       2741            0.0000000000
      3511      1171  TIP3      OH2           -10.0350049752       24.1697006768      -22.3124671492  WZ1       2742            0.0000000000
      3512      1171  TIP3      H1             -9.4992549752       24.6213706768      -22.9645371492  WZ1       2742            0.0000000000
      3513      1171  TIP3      H2            -10.8870449752       24.0616806768      -22.7350571492  WZ1       2742            0.0000000000
      3514      1172  TIP3      OH2            -8.4531649752       29.6093206768      -22.0729471492  WZ1       2743            0.0000000000
      3515      1172  TIP3      H1             -7.7026849752       29.4530706768      -22.6461671492  WZ1       2743            0.0000000000
      3516      1172  TIP3      H2             -8.7923349752       30.4609806768      -22.3483971492  WZ1       2743            0.0000000000
      3517      1173  TIP3      OH2            -4.0375449752       27.4245006768      -17.0444171492  WZ1       2744            0.0000000000
      3518      1173  TIP3      H1             -3.8454149752       26.4934406768      -17.1559671492  WZ1       2744            0.0000000000
      3519      1173  TIP3      H2             -3.1799149752       27.8494506768      -17.0548771492  WZ1       2744            0.0000000000
      3520      1174  TIP3      OH2            -2.7208249752       30.2130206768      -18.9671471492  WZ1       2745            0.0000000000
      3521      1174  TIP3      H1             -3.0023249752       30.9224806768      -19.5447671492  WZ1       2745            0.0000000000
      3522      1174  TIP3      H2             -1.7783949752       30.1403206768      -19.1180271492  WZ1       2745            0.0000000000
      3523      1175  TIP3      OH2           -11.9689449752       26.9984706768      -17.8936471492  WZ1       2746            0.0000000000
      3524      1175  TIP3      H1            -12.7360449752       26.4659506768      -18.1038871492  WZ1       2746            0.0000000000
      3525      1175  TIP3      H2            -11.2900449752       26.6885106768      -18.4930171492  WZ1       2746            0.0000000000
      3526      1176  TIP3      OH2            -9.2294549752       21.6262706768      -21.8811071492  WZ1       2747            0.0000000000
      3527      1176  TIP3      H1             -9.3274949752       22.5725906768      -21.9864871492  WZ1       2747            0.0000000000
      3528      1176  TIP3      H2             -9.9718349752       21.2536506768      -22.3567571492  WZ1       2747            0.0000000000
      3529      1177  TIP3      OH2            -7.9654049752       25.9478106768      -18.3172671492  WZ1       2748            0.0000000000
      3530      1177  TIP3      H1             -8.2008649752       25.7284806768      -17.4157771492  WZ1       2748            0.0000000000
      3531      1177  TIP3      H2             -8.7487149752       25.7409306768      -18.8270171492  WZ1       2748            0.0000000000
      3532      1178  TIP3      OH2            -5.2497449752       25.0751606768      -19.2419171492  WZ1       2749            0.0000000000
      3533      1178  TIP3      H1             -6.1972049752       25.1071306768      -19.1095871492  WZ1       2749            0.0000000000
      3534      1178  TIP3      H2             -4.9370749752       24.4498706768      -18.5880971492  WZ1       2749            0.0000000000
      3535      1179  TIP3      OH2            -3.6155949752       23.7092706768      -17.2367271492  WZ1       2750            0.0000000000
      3536      1179  TIP3      H1             -3.7124149752       22.7570006768      -17.2425371492  WZ1       2750            0.0000000000
      3537      1179  TIP3      H2             -3.9372849752       23.9779506768      -16.3761771492  WZ1       2750            0.0000000000
      3538      1180  TIP3      OH2           -13.7886649752       24.9188506768      -18.1891771492  WZ1       2751            0.0000000000
      3539      1180  TIP3      H1            -13.5769249752       24.2124606768      -18.7994271492  WZ1       2751            0.0000000000
      3540      1180  TIP3      H2            -13.8999149752       24.4814506768      -17.3450571492  WZ1       2751            0.0000000000
      3541      1181  TIP3      OH2            -9.0076449752       20.9200106768      -19.2098271492  WZ1       2752            0.0000000000
      3542      1181  TIP3      H1             -8.2958049752       20.2802306768      -19.2239171492  WZ1       2752            0.0000000000
      3543      1181  TIP3      H2             -9.1086049752       21.1868406768      -20.1235171492  WZ1       2752            0.0000000000
      3544      1182  TIP3      OH2            -8.6538949752       22.6028506768      -17.1561971492  WZ1       2753            0.0000000000
      3545      1182  TIP3      H1             -8.7856749752       22.1272306768      -17.9763471492  WZ1       2753            0.0000000000
      3546      1182  TIP3      H2             -9.2531549752       23.3472106768      -17.2114871492  WZ1       2753            0.0000000000
      3547      1183  TIP3      OH2            -0.9754849752       28.5931306768      -29.1738671492  WZ1       2762            0.0000000000
      3548      1183  TIP3      H1             -1.1256049752       27.6479906768      -29.1940871492  WZ1       2762            0.0000000000
      3549      1183  TIP3      H2             -1.3290349752       28.8742706768      -28.3299571492  WZ1       2762            0.0000000000
      3550      1184  TIP3      OH2            -0.1191949752       30.5634606768      -19.5350371492  WZ1       2764            0.0000000000
      3551      1184  TIP3      H1              0.4635350248       29.8286906768      -19.3433171492  WZ1       2764            0.0000000000
      3552      1184  TIP3      H2              0.4447350248       31.3354906768      -19.4884571492  WZ1       2764            0.0000000000
      3553      1185  TIP3      OH2             1.3775150248       28.4660406768      -18.8504971492  WZ1       2765            0.0000000000
      3554      1185  TIP3      H1              0.5141850248       28.0872506768      -19.0160271492  WZ1       2765            0.0000000000
      3555      1185  TIP3      H2              1.9818850248       27.7275206768      -18.9249171492  WZ1       2765            0.0000000000
      3556      1186  TIP3      OH2            -0.6531749752       26.7574506768      -25.2754671492  WZ1       2768            0.0000000000
      3557      1186  TIP3      H1              0.2796250248       26.9694406768      -25.3098671492  WZ1       2768            0.0000000000
      3558      1186  TIP3      H2             -0.8884249752       26.8586606768      -24.3531671492  WZ1       2768            0.0000000000
      3559      1187  TIP3      OH2            -0.6239849752       27.4939806768      -22.4995271492  WZ1       2769            0.0000000000
      3560      1187  TIP3      H1             -1.4668549752       27.7620206768      -22.1335471492  WZ1       2769            0.0000000000
      3561      1187  TIP3      H2             -0.1815549752       28.3161706768      -22.7104171492  WZ1       2769            0.0000000000
      3562      1188  TIP3      OH2           -16.3427649752       25.9418506768      -19.0226071492  WZ1       2770            0.0000000000
      3563      1188  TIP3      H1            -15.4232749752       25.8196806768      -18.7862971492  WZ1       2770            0.0000000000
      3564      1188  TIP3      H2            -16.7923149752       25.1918206768      -18.6332571492  WZ1       2770            0.0000000000
      3565      1189  TIP3      OH2             1.6591750248       21.4740006768      -17.1460271492  WZ1       2771            0.0000000000
      3566      1189  TIP3      H1              2.0088750248       20.8203506768      -17.7515571492  WZ1       2771            0.0000000000
      3567      1189  TIP3      H2              1.8061250248       22.3114106768      -17.5857671492  WZ1       2771            0.0000000000
      3568      1190  TIP3      OH2            -0.6515249752       23.4386406768      -30.6631571492  WZ1       2772            0.0000000000
      3569      1190  TIP3      H1             -0.4690249752       22.9897906768      -29.8376571492  WZ1       2772            0.0000000000
      3570      1190  TIP3      H2             -1.2512349752       22.8540806768      -31.1266971492  WZ1       2772            0.0000000000
      3571      1191  TIP3      OH2             1.1788950248       23.5834606768      -18.7968971492  WZ1       2775            0.0000000000
      3572      1191  TIP3      H1              0.2614650248       23.8541706768      -18.8325471492  WZ1       2775            0.0000000000
      3573      1191  TIP3      H2              1.3018350248       23.0483006768      -19.5809271492  WZ1       2775            0.0000000000
      3574      1192  TIP3      OH2           -16.5402949752       22.2491206768      -22.6638071492  WZ1       2778            0.0000000000
      3575      1192  TIP3      H1            -17.2052449752       22.0031506768      -22.0207171492  WZ1       2778            0.0000000000
      3576      1192  TIP3      H2            -16.9831649752       22.8711606768      -23.2410071492  WZ1       2778            0.0000000000
      3577      1193  TIP3      OH2             0.1794850248       21.6730906768      -20.9778171492  WZ1       2780            0.0000000000
      3578      1193  TIP3      H1             -0.6331649752       21.9981206768      -21.3653471492  WZ1       2780            0.0000000000
      3579      1193  TIP3      H2              0.4123350248       20.9129406768      -21.5109071492  WZ1       2780            0.0000000000
      3580      1194  TIP3      OH2            -6.3906649752       23.1221506768      -26.6549971492  WZ1       2781            0.0000000000
      3581      1194  TIP3      H1             -7.0649849752       22.4927106768      -26.3994171492  WZ1       2781            0.0000000000
      3582      1194  TIP3      H2             -5.8267449752       22.6380406768      -27.2582071492  WZ1       2781            0.0000000000
      3583      1195  TIP3      OH2            -1.2479449752       21.2295506768      -26.5422871492  WZ1       2782            0.0000000000
      3584      1195  TIP3      H1             -0.6441849752       21.7770906768      -27.0441871492  WZ1       2782            0.0000000000
      3585      1195  TIP3      H2             -2.1177449752       21.5485906768      -26.7828771492  WZ1       2782            0.0000000000
      3586      1196  TIP3      OH2             0.4790950248       22.3684206768      -28.2091971492  WZ1       2783            0.0000000000
      3587      1196  TIP3      H1              1.0908450248       21.8539906768      -28.7358371492  WZ1       2783            0.0000000000
      3588      1196  TIP3      H2              0.8614350248       23.2456306768      -28.1857571492  WZ1       2783            0.0000000000
      3589      1197  TIP3      OH2            -9.4846549752       21.6828906768      -29.0196971492  WZ1       2786            0.0000000000
      3590      1197  TIP3      H1             -8.6103149752       22.0713206768      -29.0492671492  WZ1       2786            0.0000000000
      3591      1197  TIP3      H2             -9.6205749752       21.4676706768      -28.0969771492  WZ1       2786            0.0000000000
      3592      1198  TIP3      OH2            -3.9278149752       21.7128706768      -27.3705271492  WZ1       2787            0.0000000000
      3593      1198  TIP3      H1             -3.8516549752       21.8080306768      -28.3199271492  WZ1       2787            0.0000000000
      3594      1198  TIP3      H2             -4.2028949752       20.8051606768      -27.2416171492  WZ1       2787            0.0000000000
      3595      1199  TIP3      OH2            -2.5745549752       21.7386506768      -31.6780271492  WZ1       2788            0.0000000000
      3596      1199  TIP3      H1             -3.2774449752       22.3535706768      -31.8878871492  WZ1       2788            0.0000000000
      3597      1199  TIP3      H2             -3.0194149752       20.9013206768      -31.5469371492  WZ1       2788            0.0000000000
      3598      1200  TIP3      OH2           -14.1061149752       22.2703706768      -19.3153871492  WZ1       2791            0.0000000000
      3599      1200  TIP3      H1            -14.4722949752       21.5046306768      -18.8729171492  WZ1       2791            0.0000000000
      3600      1200  TIP3      H2            -13.1932649752       22.2993906768      -19.0288771492  WZ1       2791            0.0000000000
      3601      1201  TIP3      OH2           -12.1330349752       21.6208106768      -17.7796771492  WZ1       2792            0.0000000000
      3602      1201  TIP3      H1            -11.2346749752       21.3468306768      -17.9643371492  WZ1       2792            0.0000000000
      3603      1201  TIP3      H2            -12.5197249752       20.8784106768      -17.3154171492  WZ1       2792            0.0000000000
      3604      1202  TIP3      OH2            -3.7118049752       20.9533406768      -17.5973971492  WZ1       2793            0.0000000000
      3605      1202  TIP3      H1             -3.6350849752       20.5274106768      -16.7436271492  WZ1       2793            0.0000000000
      3606      1202  TIP3      H2             -2.8181449752       20.9668106768      -17.9400471492  WZ1       2793            0.0000000000
      3607      1203  TIP3      OH2             5.1719750248       29.7816906768      -23.8624471492  WZ1       2796            0.0000000000
      3608      1203  TIP3      H1              5.2131850248       29.1560206768      -23.1392071492  WZ1       2796            0.0000000000
      3609      1203  TIP3      H2              5.8747450248       30.4055506768      -23.6804071492  WZ1       2796            0.0000000000
      3610      1204  TIP3      OH2             6.2986350248       24.0133406768      -23.3752971492  WZ1       2809            0.0000000000
      3611      1204  TIP3      H1              6.0798050248       24.5434006768      -24.1416971492  WZ1       2809            0.0000000000
      3612      1204  TIP3      H2              5.6307250248       24.2398906768      -22.7281571492  WZ1       2809            0.0000000000
      3613      1205  TIP3      OH2             5.8093450248       30.3623006768      -21.0088771492  WZ1       2832            0.0000000000
      3614      1205  TIP3      H1              5.8796650248       31.0129806768      -20.3103771492  WZ1       2832            0.0000000000
      3615      1205  TIP3      H2              4.9185650248       30.4650506768      -21.3437871492  WZ1       2832            0.0000000000
      3616      1206  TIP3      OH2             2.7260150248       32.4287106768      -22.1838771492  WZ1       2836            0.0000000000
      3617      1206  TIP3      H1              2.2248550248       32.4006506768      -22.9989071492  WZ1       2836            0.0000000000
      3618      1206  TIP3      H2              2.7313850248       31.5230306768      -21.8741471492  WZ1       2836            0.0000000000
      3619      1207  TIP3      OH2             7.5938650248       22.2223006768      -25.1451771492  WZ1       2841            0.0000000000
      3620      1207  TIP3      H1              6.7322350248       22.1351206768      -25.5528871492  WZ1       2841            0.0000000000
      3621      1207  TIP3      H2              7.5714350248       23.0783106768      -24.7174171492  WZ1       2841            0.0000000000
      3622      1208  TIP3      OH2            12.2566450248       21.9443406768      -21.7704771492  WZ1       2842            0.0000000000
      3623      1208  TIP3      H1             12.6769550248       21.5290506768      -21.0174171492  WZ1       2842            0.0000000000
      3624      1208  TIP3      H2             11.3236050248       21.7656706768      -21.6532771492  WZ1       2842            0.0000000000
      3625      1209  TIP3      OH2             7.6848750248       27.1877506768      -24.0501571492  WZ1       2846            0.0000000000
      3626      1209  TIP3      H1              7.0430850248       27.1474806768      -23.3411471492  WZ1       2846            0.0000000000
      3627      1209  TIP3      H2              7.7220750248       28.1142206768      -24.2878571492  WZ1       2846            0.0000000000
      3628      1210  TIP3      OH2            12.3194950248       28.0004306768      -18.8330071492  WZ1       2849            0.0000000000
      3629      1210  TIP3      H1             11.7568750248       27.2955906768      -18.5122271492  WZ1       2849            0.0000000000
      3630      1210  TIP3      H2             13.1458350248       27.8796206768      -18.3652471492  WZ1       2849            0.0000000000
      3631      1211  TIP3      OH2             5.4349250248       27.5081006768      -22.1829571492  WZ1       2851            0.0000000000
      3632      1211  TIP3      H1              5.3968650248       27.9082606768      -21.3142471492  WZ1       2851            0.0000000000
      3633      1211  TIP3      H2              4.9440350248       26.6913406768      -22.0926671492  WZ1       2851            0.0000000000
      3634      1212  TIP3      OH2             2.0430050248       24.6242806768      -28.3324871492  WZ1       2853            0.0000000000
      3635      1212  TIP3      H1              2.6737750248       24.5954906768      -27.6130971492  WZ1       2853            0.0000000000
      3636      1212  TIP3      H2              2.4924350248       24.1991506768      -29.0628971492  WZ1       2853            0.0000000000
      3637      1213  TIP3      OH2             5.5539950248       32.2168106768      -18.9027571492  WZ1       2861            0.0000000000
      3638      1213  TIP3      H1              6.2862350248       32.4714006768      -18.3413071492  WZ1       2861            0.0000000000
      3639      1213  TIP3      H2              4.7738650248       32.4213506768      -18.3872171492  WZ1       2861            0.0000000000
      3640      1214  TIP3      OH2             2.8869350248       29.9808806768      -20.9814671492  WZ1       2872            0.0000000000
      3641      1214  TIP3      H1              3.1097950248       29.5628406768      -20.1497171492  WZ1       2872            0.0000000000
      3642      1214  TIP3      H2              2.2849450248       29.3683806768      -21.4041871492  WZ1       2872            0.0000000000
      3643      1215  TIP3      OH2             9.9034250248       29.4978706768      -18.7684971492  WZ1       2873            0.0000000000
      3644      1215  TIP3      H1              9.6075050248       29.3321706768      -19.6635871492  WZ1       2873            0.0000000000
      3645      1215  TIP3      H2             10.8349450248       29.2779006768      -18.7791071492  WZ1       2873            0.0000000000
      3646      1216  TIP3      OH2             4.5208850248       24.7341506768      -21.4233271492  WZ1       2883            0.0000000000
      3647      1216  TIP3      H1              3.6281150248       25.0726906768      -21.4909271492  WZ1       2883            0.0000000000
      3648      1216  TIP3      H2              4.4221650248       23.8787606768      -21.0052471492  WZ1       2883            0.0000000000
      3649      1217  TIP3      OH2            11.7753450248       26.8415006768      -21.4167371492  WZ1       2891            0.0000000000
      3650      1217  TIP3      H1             11.8943750248       27.4150406768      -20.6596971492  WZ1       2891            0.0000000000
      3651      1217  TIP3      H2             12.4308050248       26.1534406768      -21.3019571492  WZ1       2891            0.0000000000
      3652      1218  TIP3      OH2             5.1637250248       21.8726506768      -26.1265471492  WZ1       2898            0.0000000000
      3653      1218  TIP3      H1              4.9347050248       21.9319006768      -27.0540471492  WZ1       2898            0.0000000000
      3654      1218  TIP3      H2              4.7210650248       21.0812006768      -25.8201371492  WZ1       2898            0.0000000000
      3655      1219  TIP3      OH2             3.2893750248       32.2361406768      -17.6817371492  WZ1       2901            0.0000000000
      3656      1219  TIP3      H1              3.4334250248       31.3342106768      -17.9680671492  WZ1       2901            0.0000000000
      3657      1219  TIP3      H2              2.5171150248       32.5223506768      -18.1695071492  WZ1       2901            0.0000000000
      3658      1220  TIP3      OH2             9.9449850248       32.2059506768      -18.2490971492  WZ1       2903            0.0000000000
      3659      1220  TIP3      H1              9.6163650248       32.4767606768      -19.1063571492  WZ1       2903            0.0000000000
      3660      1220  TIP3      H2             10.0968050248       31.2649306768      -18.3365971492  WZ1       2903            0.0000000000
      3661      1221  TIP3      OH2             4.1220250248       29.4364706768      -18.2618071492  WZ1       2906            0.0000000000
      3662      1221  TIP3      H1              4.5301450248       28.5791306768      -18.3827471492  WZ1       2906            0.0000000000
      3663      1221  TIP3      H2              3.8617850248       29.4506006768      -17.3407771492  WZ1       2906            0.0000000000
      3664      1222  TIP3      OH2             8.0690550248       28.4450406768      -20.8875171492  WZ1       2908            0.0000000000
      3665      1222  TIP3      H1              7.4506650248       29.1197006768      -20.6070471492  WZ1       2908            0.0000000000
      3666      1222  TIP3      H2              8.4131750248       28.7664306768      -21.7208971492  WZ1       2908            0.0000000000
      3667      1223  TIP3      OH2            13.0888750248       30.9165706768      -17.6100371492  WZ1       2910            0.0000000000
      3668      1223  TIP3      H1             14.0419950248       31.0004806768      -17.6374371492  WZ1       2910            0.0000000000
      3669      1223  TIP3      H2             12.9283350248       30.2047506768      -16.9905471492  WZ1       2910            0.0000000000
      3670      1224  TIP3      OH2             8.4084250248       25.8001206768      -19.8052071492  WZ1       2912            0.0000000000
      3671      1224  TIP3      H1              8.5585150248       25.0712506768      -20.4072371492  WZ1       2912            0.0000000000
      3672      1224  TIP3      H2              8.4106650248       26.5772906768      -20.3639871492  WZ1       2912            0.0000000000
      3673      1225  TIP3      OH2             8.8209950248       24.1697006768      -22.3124671492  WZ1       2913            0.0000000000
      3674      1225  TIP3      H1              9.3567450248       24.6213706768      -22.9645371492  WZ1       2913            0.0000000000
      3675      1225  TIP3      H2              7.9689550248       24.0616806768      -22.7350571492  WZ1       2913            0.0000000000
      3676      1226  TIP3      OH2            14.8184550248       27.4245006768      -17.0444171492  WZ1       2915            0.0000000000
      3677      1226  TIP3      H1             15.0105850248       26.4934406768      -17.1559671492  WZ1       2915            0.0000000000
      3678      1226  TIP3      H2             15.6760850248       27.8494506768      -17.0548771492  WZ1       2915            0.0000000000
      3679      1227  TIP3      OH2             6.8870550248       26.9984706768      -17.8936471492  WZ1       2917            0.0000000000
      3680      1227  TIP3      H1              6.1199550248       26.4659506768      -18.1038871492  WZ1       2917            0.0000000000
      3681      1227  TIP3      H2              7.5659550248       26.6885106768      -18.4930171492  WZ1       2917            0.0000000000
      3682      1228  TIP3      OH2             9.6265450248       21.6262706768      -21.8811071492  WZ1       2918            0.0000000000
      3683      1228  TIP3      H1              9.5285050248       22.5725906768      -21.9864871492  WZ1       2918            0.0000000000
      3684      1228  TIP3      H2              8.8841650248       21.2536506768      -22.3567571492  WZ1       2918            0.0000000000
      3685      1229  TIP3      OH2            10.8905950248       25.9478106768      -18.3172671492  WZ1       2919            0.0000000000
      3686      1229  TIP3      H1             10.6551350248       25.7284806768      -17.4157771492  WZ1       2919            0.0000000000
      3687      1229  TIP3      H2             10.1072850248       25.7409306768      -18.8270171492  WZ1       2919            0.0000000000
      3688      1230  TIP3      OH2            13.6062550248       25.0751606768      -19.2419171492  WZ1       2920            0.0000000000
      3689      1230  TIP3      H1             12.6587950248       25.1071306768      -19.1095871492  WZ1       2920            0.0000000000
      3690      1230  TIP3      H2             13.9189250248       24.4498706768      -18.5880971492  WZ1       2920            0.0000000000
      3691      1231  TIP3      OH2            15.2404050248       23.7092706768      -17.2367271492  WZ1       2921            0.0000000000
      3692      1231  TIP3      H1             15.1435850248       22.7570006768      -17.2425371492  WZ1       2921            0.0000000000
      3693      1231  TIP3      H2             14.9187150248       23.9779506768      -16.3761771492  WZ1       2921            0.0000000000
      3694      1232  TIP3      OH2             5.0673350248       24.9188506768      -18.1891771492  WZ1       2922            0.0000000000
      3695      1232  TIP3      H1              5.2790750248       24.2124606768      -18.7994271492  WZ1       2922            0.0000000000
      3696      1232  TIP3      H2              4.9560850248       24.4814506768      -17.3450571492  WZ1       2922            0.0000000000
      3697      1233  TIP3      OH2             9.8483550248       20.9200106768      -19.2098271492  WZ1       2923            0.0000000000
      3698      1233  TIP3      H1             10.5601950248       20.2802306768      -19.2239171492  WZ1       2923            0.0000000000
      3699      1233  TIP3      H2              9.7473950248       21.1868406768      -20.1235171492  WZ1       2923            0.0000000000
      3700      1234  TIP3      OH2            10.2021050248       22.6028506768      -17.1561971492  WZ1       2924            0.0000000000
      3701      1234  TIP3      H1             10.0703250248       22.1272306768      -17.9763471492  WZ1       2924            0.0000000000
      3702      1234  TIP3      H2              9.6028450248       23.3472106768      -17.2114871492  WZ1       2924            0.0000000000
      3703      1235  TIP3      OH2             2.5132350248       25.9418506768      -19.0226071492  WZ1       2941            0.0000000000
      3704      1235  TIP3      H1              3.4327250248       25.8196806768      -18.7862971492  WZ1       2941            0.0000000000
      3705      1235  TIP3      H2              2.0636850248       25.1918206768      -18.6332571492  WZ1       2941            0.0000000000
      3706      1236  TIP3      OH2            20.5151750248       21.4740006768      -17.1460271492  WZ1       2942            0.0000000000
      3707      1236  TIP3      H1             20.8648750248       20.8203506768      -17.7515571492  WZ1       2942            0.0000000000
      3708      1236  TIP3      H2             20.6621250248       22.3114106768      -17.5857671492  WZ1       2942            0.0000000000
      3709      1237  TIP3      OH2             3.7344850248       24.2540106768      -26.1313171492  WZ1       2944            0.0000000000
      3710      1237  TIP3      H1              4.1796450248       23.4622606768      -25.8293471492  WZ1       2944            0.0000000000
      3711      1237  TIP3      H2              4.2007850248       24.9705306768      -25.7007571492  WZ1       2944            0.0000000000
      3712      1238  TIP3      OH2             2.0385150248       27.2533106768      -25.0622971492  WZ1       2945            0.0000000000
      3713      1238  TIP3      H1              2.5304950248       27.0323606768      -25.8530971492  WZ1       2945            0.0000000000
      3714      1238  TIP3      H2              2.4006050248       28.0936506768      -24.7813471492  WZ1       2945            0.0000000000
      3715      1239  TIP3      OH2             2.3157050248       22.2491206768      -22.6638071492  WZ1       2949            0.0000000000
      3716      1239  TIP3      H1              1.6507550248       22.0031506768      -22.0207171492  WZ1       2949            0.0000000000
      3717      1239  TIP3      H2              1.8728350248       22.8711606768      -23.2410071492  WZ1       2949            0.0000000000
      3718      1240  TIP3      OH2             4.7498850248       22.2703706768      -19.3153871492  WZ1       2962            0.0000000000
      3719      1240  TIP3      H1              4.3837050248       21.5046306768      -18.8729171492  WZ1       2962            0.0000000000
      3720      1240  TIP3      H2              5.6627350248       22.2993906768      -19.0288771492  WZ1       2962            0.0000000000
      3721      1241  TIP3      OH2             6.7229650248       21.6208106768      -17.7796771492  WZ1       2963            0.0000000000
      3722      1241  TIP3      H1              7.6213250248       21.3468306768      -17.9643371492  WZ1       2963            0.0000000000
      3723      1241  TIP3      H2              6.3362750248       20.8784106768      -17.3154171492  WZ1       2963            0.0000000000
      3724      1242  TIP3      OH2            15.1441950248       20.9533406768      -17.5973971492  WZ1       2964            0.0000000000
      3725      1242  TIP3      H1             15.2209150248       20.5274106768      -16.7436271492  WZ1       2964            0.0000000000
      3726      1242  TIP3      H2             16.0378550248       20.9668106768      -17.9400471492  WZ1       2964            0.0000000000
      3727      1243  TIP3      OH2           -23.8416549752      -25.6555893232      -10.0182571492  WZ2       1               0.0000000000
      3728      1243  TIP3      H1            -23.7525449752      -24.7117693232      -10.1505471492  WZ2       1               0.0000000000
      3729      1243  TIP3      H2            -24.4798949752      -25.9309493232      -10.6763171492  WZ2       1               0.0000000000
      3730      1244  TIP3      OH2           -24.9085249752      -26.4005193232       -6.5994371492  WZ2       2               0.0000000000
      3731      1244  TIP3      H1            -24.9467749752      -27.0468893232       -5.8944771492  WZ2       2               0.0000000000
      3732      1244  TIP3      H2            -25.2308749752      -26.8670793232       -7.3705671492  WZ2       2               0.0000000000
      3733      1245  TIP3      OH2           -21.2025049752      -23.4614793232       -8.2979271492  WZ2       4               0.0000000000
      3734      1245  TIP3      H1            -21.6432349752      -24.1818793232       -7.8473671492  WZ2       4               0.0000000000
      3735      1245  TIP3      H2            -21.2155349752      -22.7407593232       -7.6681571492  WZ2       4               0.0000000000
      3736      1246  TIP3      OH2           -24.0909549752      -18.3573093232       -8.0858871492  WZ2       8               0.0000000000
      3737      1246  TIP3      H1            -23.4713149752      -19.0338393232       -8.3589671492  WZ2       8               0.0000000000
      3738      1246  TIP3      H2            -24.2992149752      -18.5752293232       -7.1773971492  WZ2       8               0.0000000000
      3739      1247  TIP3      OH2           -26.5190849752      -23.9683793232       -6.1933371492  WZ2       9               0.0000000000
      3740      1247  TIP3      H1            -26.2152949752      -24.6542393232       -6.7879271492  WZ2       9               0.0000000000
      3741      1247  TIP3      H2            -25.7976849752      -23.8495093232       -5.5755371492  WZ2       9               0.0000000000
      3742      1248  TIP3      OH2           -17.8561049752      -32.3668493232       -5.3327171492  WZ2       10              0.0000000000
      3743      1248  TIP3      H1            -17.8068849752      -31.7567293232       -4.5968071492  WZ2       10              0.0000000000
      3744      1248  TIP3      H2            -17.4305949752      -31.9057593232       -6.0556071492  WZ2       10              0.0000000000
      3745      1249  TIP3      OH2           -23.3783849752      -29.5741393232       -5.8658571492  WZ2       11              0.0000000000
      3746      1249  TIP3      H1            -23.2357949752      -30.5204393232       -5.8456971492  WZ2       11              0.0000000000
      3747      1249  TIP3      H2            -23.4844849752      -29.3671593232       -6.7943671492  WZ2       11              0.0000000000
      3748      1250  TIP3      OH2           -22.5012849752      -31.3419393232      -10.1925471492  WZ2       13              0.0000000000
      3749      1250  TIP3      H1            -21.8548549752      -31.6706193232       -9.5677871492  WZ2       13              0.0000000000
      3750      1250  TIP3      H2            -21.9913449752      -30.8240393232      -10.8154071492  WZ2       13              0.0000000000
      3751      1251  TIP3      OH2           -17.4646449752      -30.8889293232       -3.0967371492  WZ2       16              0.0000000000
      3752      1251  TIP3      H1            -18.1531849752      -30.2308593232       -3.1920771492  WZ2       16              0.0000000000
      3753      1251  TIP3      H2            -17.4491849752      -31.0861393232       -2.1601971492  WZ2       16              0.0000000000
      3754      1252  TIP3      OH2           -24.0443849752      -23.0545493232      -10.9753871492  WZ2       18              0.0000000000
      3755      1252  TIP3      H1            -24.3398749752      -23.3773193232      -11.8266971492  WZ2       18              0.0000000000
      3756      1252  TIP3      H2            -24.3686049752      -22.1548793232      -10.9341271492  WZ2       18              0.0000000000
      3757      1253  TIP3      OH2           -20.7374449752      -32.0510093232       -8.2119571492  WZ2       20              0.0000000000
      3758      1253  TIP3      H1            -20.9526449752      -32.8166693232       -7.6793571492  WZ2       20              0.0000000000
      3759      1253  TIP3      H2            -20.0817049752      -31.5785493232       -7.6991071492  WZ2       20              0.0000000000
      3760      1254  TIP3      OH2           -20.6907349752      -21.6224093232       -5.9499971492  WZ2       24              0.0000000000
      3761      1254  TIP3      H1            -21.6323649752      -21.5640193232       -5.7883071492  WZ2       24              0.0000000000
      3762      1254  TIP3      H2            -20.4141249752      -20.7163593232       -6.0870271492  WZ2       24              0.0000000000
      3763      1255  TIP3      OH2           -22.4386149752      -19.8410593232       -9.3248371492  WZ2       27              0.0000000000
      3764      1255  TIP3      H1            -22.0133849752      -20.5482693232       -9.8098771492  WZ2       27              0.0000000000
      3765      1255  TIP3      H2            -22.1216149752      -19.0397893232       -9.7416171492  WZ2       27              0.0000000000
      3766      1256  TIP3      OH2           -21.2789649752      -21.9402093232      -10.8161771492  WZ2       28              0.0000000000
      3767      1256  TIP3      H1            -21.5364849752      -22.6301993232      -11.4275871492  WZ2       28              0.0000000000
      3768      1256  TIP3      H2            -21.2078849752      -22.3830893232       -9.9705871492  WZ2       28              0.0000000000
      3769      1257  TIP3      OH2           -19.5929449752      -23.3735393232       -2.3388271492  WZ2       29              0.0000000000
      3770      1257  TIP3      H1            -19.4533149752      -23.9652893232       -3.0781271492  WZ2       29              0.0000000000
      3771      1257  TIP3      H2            -19.4256649752      -22.5009493232       -2.6949471492  WZ2       29              0.0000000000
      3772      1258  TIP3      OH2           -25.1204049752      -26.4115893232      -12.5662271492  WZ2       30              0.0000000000
      3773      1258  TIP3      H1            -25.8318549752      -25.8766193232      -12.9181771492  WZ2       30              0.0000000000
      3774      1258  TIP3      H2            -24.4294449752      -26.3563793232      -13.2263371492  WZ2       30              0.0000000000
      3775      1259  TIP3      OH2           -17.7510149752      -27.0337393232       -4.2727871492  WZ2       32              0.0000000000
      3776      1259  TIP3      H1            -18.4036049752      -26.3391793232       -4.1836971492  WZ2       32              0.0000000000
      3777      1259  TIP3      H2            -17.2859849752      -26.8236493232       -5.0826271492  WZ2       32              0.0000000000
      3778      1260  TIP3      OH2           -21.7146349752      -26.2022593232      -11.6146371492  WZ2       33              0.0000000000
      3779      1260  TIP3      H1            -22.4465349752      -25.9738893232      -11.0415771492  WZ2       33              0.0000000000
      3780      1260  TIP3      H2            -21.2674149752      -26.9159893232      -11.1598871492  WZ2       33              0.0000000000
      3781      1261  TIP3      OH2           -21.8172849752      -28.0279993232       -2.5469371492  WZ2       34              0.0000000000
      3782      1261  TIP3      H1            -21.7373749752      -27.2645593232       -1.9750871492  WZ2       34              0.0000000000
      3783      1261  TIP3      H2            -22.4185149752      -27.7487593232       -3.2374271492  WZ2       34              0.0000000000
      3784      1262  TIP3      OH2           -28.7025149752      -22.1435793232       -7.0509171492  WZ2       36              0.0000000000
      3785      1262  TIP3      H1            -28.7973849752      -22.7222693232       -7.8074571492  WZ2       36              0.0000000000
      3786      1262  TIP3      H2            -27.9731549752      -22.5150093232       -6.5546371492  WZ2       36              0.0000000000
      3787      1263  TIP3      OH2           -23.3934949752      -21.2998893232       -5.3645871492  WZ2       38              0.0000000000
      3788      1263  TIP3      H1            -23.6338349752      -20.6375793232       -4.7166671492  WZ2       38              0.0000000000
      3789      1263  TIP3      H2            -23.5916749752      -22.1343693232       -4.9396271492  WZ2       38              0.0000000000
      3790      1264  TIP3      OH2           -28.8226449752      -22.4038093232       -1.3814471492  WZ2       39              0.0000000000
      3791      1264  TIP3      H1            -29.1338949752      -21.6214893232       -0.9261271492  WZ2       39              0.0000000000
      3792      1264  TIP3      H2            -29.4726249752      -22.5568993232       -2.0672471492  WZ2       39              0.0000000000
      3793      1265  TIP3      OH2           -22.8436849752      -27.0399693232      -13.9295171492  WZ2       40              0.0000000000
      3794      1265  TIP3      H1            -22.2641349752      -26.8899393232      -13.1826271492  WZ2       40              0.0000000000
      3795      1265  TIP3      H2            -22.4296849752      -26.5692293232      -14.6528771492  WZ2       40              0.0000000000
      3796      1266  TIP3      OH2           -25.1171949752      -20.3031193232      -10.4942071492  WZ2       42              0.0000000000
      3797      1266  TIP3      H1            -24.6434349752      -20.0074893232       -9.7167871492  WZ2       42              0.0000000000
      3798      1266  TIP3      H2            -25.6802649752      -19.5649593232      -10.7272471492  WZ2       42              0.0000000000
      3799      1267  TIP3      OH2           -30.5830549752      -20.3323093232       -0.6180671492  WZ2       43              0.0000000000
      3800      1267  TIP3      H1            -30.5755249752      -20.4683393232       -1.5655171492  WZ2       43              0.0000000000
      3801      1267  TIP3      H2            -31.4990149752      -20.4494993232       -0.3660671492  WZ2       43              0.0000000000
      3802      1268  TIP3      OH2           -17.9557049752      -20.9236893232      -15.7401571492  WZ2       46              0.0000000000
      3803      1268  TIP3      H1            -17.8823549752      -19.9846693232      -15.5696271492  WZ2       46              0.0000000000
      3804      1268  TIP3      H2            -17.0501949752      -21.2288293232      -15.7964271492  WZ2       46              0.0000000000
      3805      1269  TIP3      OH2           -17.0378649752      -20.6929393232       -0.7614871492  WZ2       49              0.0000000000
      3806      1269  TIP3      H1            -17.0871849752      -21.6481293232       -0.7987271492  WZ2       49              0.0000000000
      3807      1269  TIP3      H2            -17.8646349752      -20.4254093232       -0.3601071492  WZ2       49              0.0000000000
      3808      1270  TIP3      OH2           -26.0594649752      -21.1190193232       -1.8853471492  WZ2       50              0.0000000000
      3809      1270  TIP3      H1            -25.9720049752      -20.2925593232       -1.4104371492  WZ2       50              0.0000000000
      3810      1270  TIP3      H2            -26.9229549752      -21.4486393232       -1.6364171492  WZ2       50              0.0000000000
      3811      1271  TIP3      OH2           -25.6448849752      -17.3466493232      -12.0792871492  WZ2       51              0.0000000000
      3812      1271  TIP3      H1            -25.7202849752      -17.4679293232      -13.0257671492  WZ2       51              0.0000000000
      3813      1271  TIP3      H2            -25.6120149752      -16.3973793232      -11.9608271492  WZ2       51              0.0000000000
      3814      1272  TIP3      OH2           -31.9915049752      -18.5579493232      -10.2983871492  WZ2       52              0.0000000000
      3815      1272  TIP3      H1            -31.8394649752      -18.9059093232       -9.4197371492  WZ2       52              0.0000000000
      3816      1272  TIP3      H2            -32.8424649752      -18.9142193232      -10.5536671492  WZ2       52              0.0000000000
      3817      1273  TIP3      OH2           -22.5432849752      -18.1926293232      -15.0770471492  WZ2       53              0.0000000000
      3818      1273  TIP3      H1            -22.1684449752      -18.9370193232      -15.5477871492  WZ2       53              0.0000000000
      3819      1273  TIP3      H2            -22.5389149752      -18.4625693232      -14.1587171492  WZ2       53              0.0000000000
      3820      1274  TIP3      OH2           -22.8744749752      -18.2669193232      -12.3278271492  WZ2       54              0.0000000000
      3821      1274  TIP3      H1            -23.8094949752      -18.1667293232      -12.1491271492  WZ2       54              0.0000000000
      3822      1274  TIP3      H2            -22.5942849752      -18.9763193232      -11.7495071492  WZ2       54              0.0000000000
      3823      1275  TIP3      OH2           -19.8858849752      -29.1996893232       -0.2812671492  WZ2       55              0.0000000000
      3824      1275  TIP3      H1            -20.2932049752      -28.7191293232       -1.0019371492  WZ2       55              0.0000000000
      3825      1275  TIP3      H2            -19.8453149752      -30.1050893232       -0.5891871492  WZ2       55              0.0000000000
      3826      1276  TIP3      OH2           -22.1288649752      -30.8681393232       -2.0610271492  WZ2       59              0.0000000000
      3827      1276  TIP3      H1            -22.6429149752      -30.9939193232       -1.2634271492  WZ2       59              0.0000000000
      3828      1276  TIP3      H2            -22.2843949752      -29.9558293232       -2.3054071492  WZ2       59              0.0000000000
      3829      1277  TIP3      OH2           -21.3663749752      -26.0071393232      -16.2997271492  WZ2       60              0.0000000000
      3830      1277  TIP3      H1            -21.3242949752      -26.2297493232      -17.2297271492  WZ2       60              0.0000000000
      3831      1277  TIP3      H2            -20.5171649752      -25.6084293232      -16.1097371492  WZ2       60              0.0000000000
      3832      1278  TIP3      OH2           -24.4946649752      -28.7432093232      -11.4650771492  WZ2       64              0.0000000000
      3833      1278  TIP3      H1            -24.9036349752      -27.9283493232      -11.7565971492  WZ2       64              0.0000000000
      3834      1278  TIP3      H2            -23.7740449752      -28.8831993232      -12.0793671492  WZ2       64              0.0000000000
      3835      1279  TIP3      OH2           -25.3925049752      -28.5675693232        0.0229928508  WZ2       65              0.0000000000
      3836      1279  TIP3      H1            -25.9551249752      -29.2724093232        0.3437728508  WZ2       65              0.0000000000
      3837      1279  TIP3      H2            -24.5661649752      -28.6883793232        0.4907528508  WZ2       65              0.0000000000
      3838      1280  TIP3      OH2           -23.4898949752      -29.2971693232       -8.6511071492  WZ2       66              0.0000000000
      3839      1280  TIP3      H1            -23.6854449752      -28.6914893232       -9.3660471492  WZ2       66              0.0000000000
      3840      1280  TIP3      H2            -23.3086349752      -30.1306493232       -9.0854771492  WZ2       66              0.0000000000
      3841      1281  TIP3      OH2           -24.2259749752      -27.6590393232       -3.9798671492  WZ2       71              0.0000000000
      3842      1281  TIP3      H1            -23.9024949752      -28.2900693232       -4.6228171492  WZ2       71              0.0000000000
      3843      1281  TIP3      H2            -24.6660449752      -28.1938193232       -3.3191271492  WZ2       71              0.0000000000
      3844      1282  TIP3      OH2           -19.7559849752      -16.8253193232        0.3451928508  WZ2       77              0.0000000000
      3845      1282  TIP3      H1            -19.5561149752      -16.4011293232       -0.4892771492  WZ2       77              0.0000000000
      3846      1282  TIP3      H2            -19.1006149752      -16.4814993232        0.9522328508  WZ2       77              0.0000000000
      3847      1283  TIP3      OH2           -26.9578649752      -24.3428093232      -13.2101071492  WZ2       82              0.0000000000
      3848      1283  TIP3      H1            -27.7027649752      -24.8502793232      -13.5323171492  WZ2       82              0.0000000000
      3849      1283  TIP3      H2            -27.0921449752      -24.2940093232      -12.2636271492  WZ2       82              0.0000000000
      3850      1284  TIP3      OH2           -19.8079749752      -25.2099893232       -4.4233471492  WZ2       83              0.0000000000
      3851      1284  TIP3      H1            -19.1660949752      -24.7533593232       -4.9671271492  WZ2       83              0.0000000000
      3852      1284  TIP3      H2            -20.6382849752      -25.0967493232       -4.8859371492  WZ2       83              0.0000000000
      3853      1285  TIP3      OH2           -25.4386549752      -24.1584793232       -1.9731971492  WZ2       85              0.0000000000
      3854      1285  TIP3      H1            -25.7840449752      -24.5402393232       -1.1662371492  WZ2       85              0.0000000000
      3855      1285  TIP3      H2            -25.6386449752      -23.2251193232       -1.9019071492  WZ2       85              0.0000000000
      3856      1286  TIP3      OH2           -22.3418349752      -29.6615493232      -13.3501071492  WZ2       86              0.0000000000
      3857      1286  TIP3      H1            -21.4499349752      -29.7990493232      -13.0309871492  WZ2       86              0.0000000000
      3858      1286  TIP3      H2            -22.2854749752      -28.8709393232      -13.8867571492  WZ2       86              0.0000000000
      3859      1287  TIP3      OH2           -24.8324549752      -22.8843793232      -14.1846471492  WZ2       88              0.0000000000
      3860      1287  TIP3      H1            -25.1276149752      -22.0575893232      -13.8031671492  WZ2       88              0.0000000000
      3861      1287  TIP3      H2            -25.5354549752      -23.5036893232      -13.9885071492  WZ2       88              0.0000000000
      3862      1288  TIP3      OH2           -23.1882949752      -21.6969293232       -2.0226971492  WZ2       91              0.0000000000
      3863      1288  TIP3      H1            -24.0888649752      -21.5136693232       -2.2903071492  WZ2       91              0.0000000000
      3864      1288  TIP3      H2            -23.1541849752      -21.4379993232       -1.1018171492  WZ2       91              0.0000000000
      3865      1289  TIP3      OH2           -17.4569649752      -29.4521393232      -13.6554371492  WZ2       92              0.0000000000
      3866      1289  TIP3      H1            -18.0113349752      -29.8483393232      -14.3276871492  WZ2       92              0.0000000000
      3867      1289  TIP3      H2            -17.3566049752      -28.5416193232      -13.9331071492  WZ2       92              0.0000000000
      3868      1290  TIP3      OH2           -17.4937649752      -23.6519693232       -0.8182871492  WZ2       93              0.0000000000
      3869      1290  TIP3      H1            -18.3449149752      -23.4135893232       -1.1856471492  WZ2       93              0.0000000000
      3870      1290  TIP3      H2            -16.9034249752      -23.6686493232       -1.5715771492  WZ2       93              0.0000000000
      3871      1291  TIP3      OH2           -19.1617949752      -20.6660993232      -13.1902271492  WZ2       94              0.0000000000
      3872      1291  TIP3      H1            -19.5346849752      -21.4917193232      -12.8811671492  WZ2       94              0.0000000000
      3873      1291  TIP3      H2            -18.8844449752      -20.8491593232      -14.0878871492  WZ2       94              0.0000000000
      3874      1292  TIP3      OH2           -22.0014049752      -25.8581493232       -6.1690371492  WZ2       95              0.0000000000
      3875      1292  TIP3      H1            -22.9297149752      -26.0899593232       -6.1961071492  WZ2       95              0.0000000000
      3876      1292  TIP3      H2            -21.5502949752      -26.6351693232       -6.4991571492  WZ2       95              0.0000000000
      3877      1293  TIP3      OH2           -29.4580949752      -21.5299893232      -10.0361671492  WZ2       96              0.0000000000
      3878      1293  TIP3      H1            -28.9308749752      -20.7565493232      -10.2362871492  WZ2       96              0.0000000000
      3879      1293  TIP3      H2            -30.3382449752      -21.3050693232      -10.3377671492  WZ2       96              0.0000000000
      3880      1294  TIP3      OH2           -28.0308649752      -23.8669993232      -10.4597371492  WZ2       98              0.0000000000
      3881      1294  TIP3      H1            -28.2718649752      -22.9415593232      -10.4182071492  WZ2       98              0.0000000000
      3882      1294  TIP3      H2            -28.7715049752      -24.3258693232      -10.0633471492  WZ2       98              0.0000000000
      3883      1295  TIP3      OH2           -27.5162049752      -19.7176393232       -4.1446271492  WZ2       99              0.0000000000
      3884      1295  TIP3      H1            -27.1537349752      -18.8630793232       -4.3781871492  WZ2       99              0.0000000000
      3885      1295  TIP3      H2            -26.9846849752      -20.0094793232       -3.4039971492  WZ2       99              0.0000000000
      3886      1296  TIP3      OH2           -29.3477849752      -18.8452393232      -10.9145171492  WZ2       100             0.0000000000
      3887      1296  TIP3      H1            -30.2977349752      -18.7394993232      -10.8631871492  WZ2       100             0.0000000000
      3888      1296  TIP3      H2            -28.9959749752      -18.0244993232      -10.5697671492  WZ2       100             0.0000000000
      3889      1297  TIP3      OH2           -23.9721249752      -23.6185693232       -4.4440671492  WZ2       101             0.0000000000
      3890      1297  TIP3      H1            -24.3979949752      -23.8463993232       -3.6176671492  WZ2       101             0.0000000000
      3891      1297  TIP3      H2            -23.3915449752      -24.3573893232       -4.6265371492  WZ2       101             0.0000000000
      3892      1298  TIP3      OH2           -21.7692349752      -22.6895193232      -15.3701671492  WZ2       102             0.0000000000
      3893      1298  TIP3      H1            -21.4159249752      -23.0695393232      -14.5658171492  WZ2       102             0.0000000000
      3894      1298  TIP3      H2            -22.7178849752      -22.7830393232      -15.2832371492  WZ2       102             0.0000000000
      3895      1299  TIP3      OH2           -21.3137049752      -19.0666193232       -1.9745871492  WZ2       103             0.0000000000
      3896      1299  TIP3      H1            -21.9153849752      -19.6223293232       -2.4699571492  WZ2       103             0.0000000000
      3897      1299  TIP3      H2            -21.0323349752      -18.3996393232       -2.6008471492  WZ2       103             0.0000000000
      3898      1300  TIP3      OH2           -17.2657949752      -18.2102693232      -15.1691471492  WZ2       104             0.0000000000
      3899      1300  TIP3      H1            -16.5220049752      -17.6242193232      -15.3089871492  WZ2       104             0.0000000000
      3900      1300  TIP3      H2            -17.9599849752      -17.6416893232      -14.8359071492  WZ2       104             0.0000000000
      3901      1301  TIP3      OH2           -20.9033049752      -24.0173193232      -13.1433771492  WZ2       106             0.0000000000
      3902      1301  TIP3      H1            -21.1805449752      -24.7453893232      -12.5872671492  WZ2       106             0.0000000000
      3903      1301  TIP3      H2            -19.9760049752      -23.8981193232      -12.9381171492  WZ2       106             0.0000000000
      3904      1302  TIP3      OH2           -28.7413949752      -22.0075293232      -14.4669071492  WZ2       109             0.0000000000
      3905      1302  TIP3      H1            -28.5945949752      -22.5275493232      -13.6768171492  WZ2       109             0.0000000000
      3906      1302  TIP3      H2            -28.7442249752      -21.1007693232      -14.1603171492  WZ2       109             0.0000000000
      3907      1303  TIP3      OH2           -26.0036749752      -20.3101693232      -13.7174871492  WZ2       113             0.0000000000
      3908      1303  TIP3      H1            -26.8200649752      -19.8131993232      -13.6650571492  WZ2       113             0.0000000000
      3909      1303  TIP3      H2            -25.4740449752      -19.8348193232      -14.3576071492  WZ2       113             0.0000000000
      3910      1304  TIP3      OH2           -28.6653649752      -19.2664493232      -13.7357971492  WZ2       117             0.0000000000
      3911      1304  TIP3      H1            -28.5044949752      -18.4666993232      -14.2365371492  WZ2       117             0.0000000000
      3912      1304  TIP3      H2            -28.8625849752      -18.9598493232      -12.8507371492  WZ2       117             0.0000000000
      3913      1305  TIP3      OH2           -19.7320749752      -31.8194693232       -1.7257671492  WZ2       119             0.0000000000
      3914      1305  TIP3      H1            -20.6484949752      -31.5572993232       -1.8133971492  WZ2       119             0.0000000000
      3915      1305  TIP3      H2            -19.3965749752      -31.8225693232       -2.6222371492  WZ2       119             0.0000000000
      3916      1306  TIP3      OH2           -21.1299749752      -28.0693693232       -7.6300371492  WZ2       120             0.0000000000
      3917      1306  TIP3      H1            -21.9275349752      -28.4843493232       -7.9585371492  WZ2       120             0.0000000000
      3918      1306  TIP3      H2            -20.6848649752      -28.7599993232       -7.1389871492  WZ2       120             0.0000000000
      3919      1307  TIP3      OH2           -20.0435149752      -18.8131193232       -6.0076871492  WZ2       123             0.0000000000
      3920      1307  TIP3      H1            -20.1990849752      -18.1346793232       -6.6647571492  WZ2       123             0.0000000000
      3921      1307  TIP3      H2            -19.1108749752      -18.7411893232       -5.8046271492  WZ2       123             0.0000000000
      3922      1308  TIP3      OH2           -29.7322349752      -19.2228293232        1.8402528508  WZ2       127             0.0000000000
      3923      1308  TIP3      H1            -28.9645149752      -19.6817493232        2.1811728508  WZ2       127             0.0000000000
      3924      1308  TIP3      H2            -29.7536149752      -19.4488493232        0.9103728508  WZ2       127             0.0000000000
      3925      1309  TIP3      OH2           -25.6402749752      -19.7147693232      -16.7845671492  WZ2       128             0.0000000000
      3926      1309  TIP3      H1            -26.2841749752      -20.3459093232      -16.4631971492  WZ2       128             0.0000000000
      3927      1309  TIP3      H2            -24.8784449752      -20.2459693232      -17.0162171492  WZ2       128             0.0000000000
      3928      1310  TIP3      OH2           -23.1553649752      -20.8427193232        0.5694028508  WZ2       129             0.0000000000
      3929      1310  TIP3      H1            -23.5064149752      -21.6994193232        0.8124428508  WZ2       129             0.0000000000
      3930      1310  TIP3      H2            -22.4290449752      -20.7000493232        1.1763028508  WZ2       129             0.0000000000
      3931      1311  TIP3      OH2           -21.0359849752      -19.8977793232      -16.5507671492  WZ2       130             0.0000000000
      3932      1311  TIP3      H1            -20.7529449752      -20.6922593232      -16.0980771492  WZ2       130             0.0000000000
      3933      1311  TIP3      H2            -20.2961949752      -19.6646793232      -17.1116571492  WZ2       130             0.0000000000
      3934      1312  TIP3      OH2           -27.7670149752      -24.3620493232        0.6069028508  WZ2       133             0.0000000000
      3935      1312  TIP3      H1            -28.0956349752      -24.0912393232       -0.2503571492  WZ2       133             0.0000000000
      3936      1312  TIP3      H2            -27.6151949752      -25.3030693232        0.5194028508  WZ2       133             0.0000000000
      3937      1313  TIP3      OH2           -22.0324949752      -24.4463193232       -2.0098671492  WZ2       135             0.0000000000
      3938      1313  TIP3      H1            -21.2870149752      -23.8579493232       -2.1294671492  WZ2       135             0.0000000000
      3939      1313  TIP3      H2            -22.7898149752      -23.8643493232       -1.9465571492  WZ2       135             0.0000000000
      3940      1314  TIP3      OH2           -24.6231249752      -25.6514293232        1.2459628508  WZ2       140             0.0000000000
      3941      1314  TIP3      H1            -23.6700049752      -25.5675193232        1.2185628508  WZ2       140             0.0000000000
      3942      1314  TIP3      H2            -24.7836649752      -26.3632493232        1.8654528508  WZ2       140             0.0000000000
      3943      1315  TIP3      OH2           -18.4710049752      -25.4180693232      -16.6793471492  WZ2       141             0.0000000000
      3944      1315  TIP3      H1            -18.7445249752      -25.8425193232      -17.4925171492  WZ2       141             0.0000000000
      3945      1315  TIP3      H2            -18.4315949752      -24.4866193232      -16.8963071492  WZ2       141             0.0000000000
      3946      1316  TIP3      OH2           -22.8935449752      -29.1434993232        1.8115828508  WZ2       145             0.0000000000
      3947      1316  TIP3      H1            -22.7014149752      -30.0745593232        1.7000328508  WZ2       145             0.0000000000
      3948      1316  TIP3      H2            -22.0359149752      -28.7185493232        1.8011228508  WZ2       145             0.0000000000
      3949      1317  TIP3      OH2           -21.5768249752      -26.3549793232       -0.1111471492  WZ2       146             0.0000000000
      3950      1317  TIP3      H1            -21.8583249752      -25.6455193232       -0.6887671492  WZ2       146             0.0000000000
      3951      1317  TIP3      H2            -20.6343949752      -26.4276793232       -0.2620271492  WZ2       146             0.0000000000
      3952      1318  TIP3      OH2           -27.9636649752      -17.0821193232      -15.1237971492  WZ2       155             0.0000000000
      3953      1318  TIP3      H1            -27.0305949752      -16.9242493232      -14.9799571492  WZ2       155             0.0000000000
      3954      1318  TIP3      H2            -28.2277849752      -16.4068193232      -15.7486471492  WZ2       155             0.0000000000
      3955      1319  TIP3      OH2           -17.3277149752      -18.1625493232       -5.7784971492  WZ2       159             0.0000000000
      3956      1319  TIP3      H1            -17.3490449752      -17.9777093232       -4.8395571492  WZ2       159             0.0000000000
      3957      1319  TIP3      H2            -16.6370949752      -17.5941493232       -6.1193571492  WZ2       159             0.0000000000
      3958      1320  TIP3      OH2           -17.7644249752      -18.5954393232       -2.8565871492  WZ2       160             0.0000000000
      3959      1320  TIP3      H1            -18.2515549752      -19.3310293232       -3.2278471492  WZ2       160             0.0000000000
      3960      1320  TIP3      H2            -17.2151549752      -18.9890493232       -2.1786471492  WZ2       160             0.0000000000
      3961      1321  TIP3      OH2           -19.3136949752      -22.8056293232        1.7814428508  WZ2       161             0.0000000000
      3962      1321  TIP3      H1            -20.1795849752      -22.9106593232        2.1756728508  WZ2       161             0.0000000000
      3963      1321  TIP3      H2            -18.9371049752      -22.0472993232        2.2279128508  WZ2       161             0.0000000000
      3964      1322  TIP3      OH2           -18.0127249752      -24.5492593232      -12.7043071492  WZ2       162             0.0000000000
      3965      1322  TIP3      H1            -17.1625849752      -24.1281693232      -12.5771471492  WZ2       162             0.0000000000
      3966      1322  TIP3      H2            -18.0072149752      -25.2892493232      -12.0971671492  WZ2       162             0.0000000000
      3967      1323  TIP3      OH2           -17.6181649752      -26.4955193232      -10.8807371492  WZ2       163             0.0000000000
      3968      1323  TIP3      H1            -18.3447049752      -26.9752593232      -10.4829771492  WZ2       163             0.0000000000
      3969      1323  TIP3      H2            -17.0368349752      -26.2900493232      -10.1485771492  WZ2       163             0.0000000000
      3970      1324  TIP3      OH2           -17.8590449752      -23.7107693232       -5.9329771492  WZ2       164             0.0000000000
      3971      1324  TIP3      H1            -17.0256249752      -24.0887693232       -6.2136171492  WZ2       164             0.0000000000
      3972      1324  TIP3      H2            -17.7470149752      -22.7676493232       -6.0520671492  WZ2       164             0.0000000000
      3973      1325  TIP3      OH2           -19.3728149752      -20.8330193232       -3.6261371492  WZ2       165             0.0000000000
      3974      1325  TIP3      H1            -20.0202849752      -20.5078693232       -3.0006171492  WZ2       165             0.0000000000
      3975      1325  TIP3      H2            -19.8904149752      -21.2732493232       -4.3003071492  WZ2       165             0.0000000000
      3976      1326  TIP3      OH2           -17.3498549752      -26.5946693232      -14.4896071492  WZ2       166             0.0000000000
      3977      1326  TIP3      H1            -17.8717449752      -26.2382593232      -15.2085171492  WZ2       166             0.0000000000
      3978      1326  TIP3      H2            -17.3829349752      -25.9198893232      -13.8115171492  WZ2       166             0.0000000000
      3979      1327  TIP3      OH2           -19.0009549752      -29.3551093232      -15.9388971492  WZ2       167             0.0000000000
      3980      1327  TIP3      H1            -18.9045149752      -28.6884093232      -16.6189271492  WZ2       167             0.0000000000
      3981      1327  TIP3      H2            -19.1409949752      -30.1704793232      -16.4203471492  WZ2       167             0.0000000000
      3982      1328  TIP3      OH2           -19.8314849752      -27.9748693232      -10.3178671492  WZ2       168             0.0000000000
      3983      1328  TIP3      H1            -19.9816049752      -28.9200093232      -10.3380871492  WZ2       168             0.0000000000
      3984      1328  TIP3      H2            -20.1850349752      -27.6937293232       -9.4739571492  WZ2       168             0.0000000000
      3985      1329  TIP3      OH2           -18.9751949752      -26.0045393232       -0.6790371492  WZ2       170             0.0000000000
      3986      1329  TIP3      H1            -18.3924649752      -26.7393093232       -0.4873171492  WZ2       170             0.0000000000
      3987      1329  TIP3      H2            -18.4112649752      -25.2325093232       -0.6324571492  WZ2       170             0.0000000000
      3988      1330  TIP3      OH2           -17.4784849752      -28.1019593232        0.0055028508  WZ2       171             0.0000000000
      3989      1330  TIP3      H1            -18.3418149752      -28.4807493232       -0.1600271492  WZ2       171             0.0000000000
      3990      1330  TIP3      H2            -16.8741149752      -28.8404793232       -0.0689171492  WZ2       171             0.0000000000
      3991      1331  TIP3      OH2           -20.1210049752      -30.3922893232      -11.8553571492  WZ2       173             0.0000000000
      3992      1331  TIP3      H1            -19.8412949752      -31.2992493232      -11.7311871492  WZ2       173             0.0000000000
      3993      1331  TIP3      H2            -19.3618349752      -29.9581393232      -12.2444371492  WZ2       173             0.0000000000
      3994      1332  TIP3      OH2           -19.5091749752      -29.8105493232       -6.4194671492  WZ2       174             0.0000000000
      3995      1332  TIP3      H1            -18.5763749752      -29.5985593232       -6.4538671492  WZ2       174             0.0000000000
      3996      1332  TIP3      H2            -19.7444249752      -29.7093393232       -5.4971671492  WZ2       174             0.0000000000
      3997      1333  TIP3      OH2           -19.4799849752      -29.0740193232       -3.6435271492  WZ2       175             0.0000000000
      3998      1333  TIP3      H1            -20.3228549752      -28.8059793232       -3.2775471492  WZ2       175             0.0000000000
      3999      1333  TIP3      H2            -19.0375549752      -28.2518293232       -3.8544171492  WZ2       175             0.0000000000
      4000      1334  TIP3      OH2           -20.5891149752      -18.0726093232      -10.2063171492  WZ2       184             0.0000000000
      4001      1334  TIP3      H1            -19.9368249752      -18.4203993232      -10.8144071492  WZ2       184             0.0000000000
      4002      1334  TIP3      H2            -20.0787349752      -17.5842893232       -9.5603471492  WZ2       184             0.0000000000
      4003      1335  TIP3      OH2           -30.2500749752      -20.1693493232       -3.4048271492  WZ2       187             0.0000000000
      4004      1335  TIP3      H1            -30.6749649752      -19.3594993232       -3.6873671492  WZ2       187             0.0000000000
      4005      1335  TIP3      H2            -29.3457949752      -20.0839393232       -3.7068471492  WZ2       187             0.0000000000
      4006      1336  TIP3      OH2           -25.9389349752      -18.7703493232       -0.4454571492  WZ2       188             0.0000000000
      4007      1336  TIP3      H1            -25.7541849752      -19.1037393232        0.4325728508  WZ2       188             0.0000000000
      4008      1336  TIP3      H2            -25.0924849752      -18.4604893232       -0.7675371492  WZ2       188             0.0000000000
      4009      1337  TIP3      OH2           -23.5938949752      -17.4844593232       -1.2013171492  WZ2       189             0.0000000000
      4010      1337  TIP3      H1            -22.9170049752      -18.1172293232       -1.4413971492  WZ2       189             0.0000000000
      4011      1337  TIP3      H2            -23.2720149752      -17.0834093232       -0.3939871492  WZ2       189             0.0000000000
      4012      1338  TIP3      OH2           -32.8484049752      -16.9129593232       -3.3572971492  WZ2       191             0.0000000000
      4013      1338  TIP3      H1            -33.5687649752      -16.4728593232       -3.8085271492  WZ2       191             0.0000000000
      4014      1338  TIP3      H2            -33.2140049752      -17.1634893232       -2.5088971492  WZ2       191             0.0000000000
      4015      1339  TIP3      OH2           -30.3811449752      -17.3125693232       -4.3275771492  WZ2       192             0.0000000000
      4016      1339  TIP3      H1            -31.2459249752      -17.2407193232       -3.9235671492  WZ2       192             0.0000000000
      4017      1339  TIP3      H2            -30.4362449752      -16.7658393232       -5.1113271492  WZ2       192             0.0000000000
      4018      1340  TIP3      OH2           -25.6705849752      -17.4246793232       -5.1519771492  WZ2       193             0.0000000000
      4019      1340  TIP3      H1            -26.1271849752      -16.8957093232       -5.8061371492  WZ2       193             0.0000000000
      4020      1340  TIP3      H2            -25.5077849752      -16.8215393232       -4.4267471492  WZ2       193             0.0000000000
      4021      1341  TIP3      OH2           -23.3429549752      -18.5467193232       -4.2069471492  WZ2       194             0.0000000000
      4022      1341  TIP3      H1            -24.2475849752      -18.3816993232       -4.4727371492  WZ2       194             0.0000000000
      4023      1341  TIP3      H2            -22.9140949752      -17.6934993232       -4.2726071492  WZ2       194             0.0000000000
      4024      1342  TIP3      OH2           -20.7387649752      -16.9768093232       -3.9121671492  WZ2       195             0.0000000000
      4025      1342  TIP3      H1            -20.9205649752      -16.0609193232       -4.1226771492  WZ2       195             0.0000000000
      4026      1342  TIP3      H2            -20.5619849752      -17.3870993232       -4.7587071492  WZ2       195             0.0000000000
      4027      1343  TIP3      OH2           -31.2922849752      -19.5798393232       -7.7921271492  WZ2       197             0.0000000000
      4028      1343  TIP3      H1            -31.5112149752      -20.4960993232       -7.6225271492  WZ2       197             0.0000000000
      4029      1343  TIP3      H2            -30.4680649752      -19.4397993232       -7.3259871492  WZ2       197             0.0000000000
      4030      1344  TIP3      OH2           -28.7550349752      -19.1099093232       -6.9433271492  WZ2       198             0.0000000000
      4031      1344  TIP3      H1            -28.5424649752      -19.9980093232       -7.2302371492  WZ2       198             0.0000000000
      4032      1344  TIP3      H2            -28.6905249752      -19.1441393232       -5.9889271492  WZ2       198             0.0000000000
      4033      1345  TIP3      OH2           -25.3182749752      -17.8562993232      -14.8782671492  WZ2       210             0.0000000000
      4034      1345  TIP3      H1            -24.4522549752      -17.4895593232      -15.0564471492  WZ2       210             0.0000000000
      4035      1345  TIP3      H2            -25.5649949752      -18.2954993232      -15.6921871492  WZ2       210             0.0000000000
      4036      1346  TIP3      OH2           -18.6093149752      -18.2932693232      -12.1991571492  WZ2       211             0.0000000000
      4037      1346  TIP3      H1            -18.8036049752      -19.0410593232      -12.7641971492  WZ2       211             0.0000000000
      4038      1346  TIP3      H2            -18.6483049752      -17.5352593232      -12.7823671492  WZ2       211             0.0000000000
      4039      1347  TIP3      OH2           -19.3916949752      -19.5420293232       -0.0489771492  WZ2       216             0.0000000000
      4040      1347  TIP3      H1            -20.1735049752      -19.7282293232       -0.5689171492  WZ2       216             0.0000000000
      4041      1347  TIP3      H2            -19.4637049752      -18.6125993232        0.1682728508  WZ2       216             0.0000000000
      4042      1348  TIP3      OH2            -4.9856549752      -25.6555893232      -10.0182571492  WZ2       217             0.0000000000
      4043      1348  TIP3      H1             -4.8965449752      -24.7117693232      -10.1505471492  WZ2       217             0.0000000000
      4044      1348  TIP3      H2             -5.6238949752      -25.9309493232      -10.6763171492  WZ2       217             0.0000000000
      4045      1349  TIP3      OH2            -6.0525249752      -26.4005193232       -6.5994371492  WZ2       218             0.0000000000
      4046      1349  TIP3      H1             -6.0907749752      -27.0468893232       -5.8944771492  WZ2       218             0.0000000000
      4047      1349  TIP3      H2             -6.3748749752      -26.8670793232       -7.3705671492  WZ2       218             0.0000000000
      4048      1350  TIP3      OH2           -13.6840249752      -26.7863093232       -5.0064471492  WZ2       219             0.0000000000
      4049      1350  TIP3      H1            -13.6428149752      -27.4119793232       -4.2832071492  WZ2       219             0.0000000000
      4050      1350  TIP3      H2            -12.9812549752      -26.1624493232       -4.8244071492  WZ2       219             0.0000000000
      4051      1351  TIP3      OH2            -2.3465049752      -23.4614793232       -8.2979271492  WZ2       220             0.0000000000
      4052      1351  TIP3      H1             -2.7872349752      -24.1818793232       -7.8473671492  WZ2       220             0.0000000000
      4053      1351  TIP3      H2             -2.3595349752      -22.7407593232       -7.6681571492  WZ2       220             0.0000000000
      4054      1352  TIP3      OH2           -12.7607149752      -22.3364193232       -6.4715371492  WZ2       221             0.0000000000
      4055      1352  TIP3      H1            -13.1301949752      -23.1383693232       -6.8411071492  WZ2       221             0.0000000000
      4056      1352  TIP3      H2            -11.8196049752      -22.5049293232       -6.4251971492  WZ2       221             0.0000000000
      4057      1353  TIP3      OH2           -16.1506649752      -28.6761593232      -11.0786571492  WZ2       222             0.0000000000
      4058      1353  TIP3      H1            -16.5983249752      -27.8302893232      -11.0970071492  WZ2       222             0.0000000000
      4059      1353  TIP3      H2            -16.7115449752      -29.2557393232      -11.5941471492  WZ2       222             0.0000000000
      4060      1354  TIP3      OH2           -15.4400549752      -26.5141993232       -8.9528571492  WZ2       223             0.0000000000
      4061      1354  TIP3      H1            -15.2267049752      -27.2840393232       -8.4255571492  WZ2       223             0.0000000000
      4062      1354  TIP3      H2            -14.7022949752      -26.4245293232       -9.5560971492  WZ2       223             0.0000000000
      4063      1355  TIP3      OH2            -5.2349549752      -18.3573093232       -8.0858871492  WZ2       224             0.0000000000
      4064      1355  TIP3      H1             -4.6153149752      -19.0338393232       -8.3589671492  WZ2       224             0.0000000000
      4065      1355  TIP3      H2             -5.4432149752      -18.5752293232       -7.1773971492  WZ2       224             0.0000000000
      4066      1356  TIP3      OH2            -7.6630849752      -23.9683793232       -6.1933371492  WZ2       225             0.0000000000
      4067      1356  TIP3      H1             -7.3592949752      -24.6542393232       -6.7879271492  WZ2       225             0.0000000000
      4068      1356  TIP3      H2             -6.9416849752      -23.8495093232       -5.5755371492  WZ2       225             0.0000000000
      4069      1357  TIP3      OH2             0.9998950248      -32.3668493232       -5.3327171492  WZ2       226             0.0000000000
      4070      1357  TIP3      H1              1.0491150248      -31.7567293232       -4.5968071492  WZ2       226             0.0000000000
      4071      1357  TIP3      H2              1.4254050248      -31.9057593232       -6.0556071492  WZ2       226             0.0000000000
      4072      1358  TIP3      OH2            -4.5223849752      -29.5741393232       -5.8658571492  WZ2       227             0.0000000000
      4073      1358  TIP3      H1             -4.3797949752      -30.5204393232       -5.8456971492  WZ2       227             0.0000000000
      4074      1358  TIP3      H2             -4.6284849752      -29.3671593232       -6.7943671492  WZ2       227             0.0000000000
      4075      1359  TIP3      OH2           -11.3675549752      -31.4724993232       -8.5933771492  WZ2       228             0.0000000000
      4076      1359  TIP3      H1            -11.3244449752      -30.6126493232       -9.0117471492  WZ2       228             0.0000000000
      4077      1359  TIP3      H2            -11.8251449752      -32.0250293232       -9.2270571492  WZ2       228             0.0000000000
      4078      1360  TIP3      OH2            -3.6452849752      -31.3419393232      -10.1925471492  WZ2       229             0.0000000000
      4079      1360  TIP3      H1             -2.9988549752      -31.6706193232       -9.5677871492  WZ2       229             0.0000000000
      4080      1360  TIP3      H2             -3.1353449752      -30.8240393232      -10.8154071492  WZ2       229             0.0000000000
      4081      1361  TIP3      OH2           -14.7474049752      -29.0759193232       -7.8312371492  WZ2       230             0.0000000000
      4082      1361  TIP3      H1            -14.0937449752      -29.6257493232       -7.3992271492  WZ2       230             0.0000000000
      4083      1361  TIP3      H2            -14.7234749752      -29.3500193232       -8.7480371492  WZ2       230             0.0000000000
      4084      1362  TIP3      OH2            -9.5909549752      -27.5257893232       -8.6160871492  WZ2       231             0.0000000000
      4085      1362  TIP3      H1             -8.9748549752      -28.0522493232       -8.1066871492  WZ2       231             0.0000000000
      4086      1362  TIP3      H2            -10.1770749752      -28.1659193232       -9.0197271492  WZ2       231             0.0000000000
      4087      1363  TIP3      OH2             1.3913550248      -30.8889293232       -3.0967371492  WZ2       232             0.0000000000
      4088      1363  TIP3      H1              0.7028150248      -30.2308593232       -3.1920771492  WZ2       232             0.0000000000
      4089      1363  TIP3      H2              1.4068150248      -31.0861393232       -2.1601971492  WZ2       232             0.0000000000
      4090      1364  TIP3      OH2           -12.5573649752      -32.5546593232       -4.5192971492  WZ2       233             0.0000000000
      4091      1364  TIP3      H1            -12.7761949752      -32.0245993232       -5.2856971492  WZ2       233             0.0000000000
      4092      1364  TIP3      H2            -13.2252749752      -32.3281093232       -3.8721571492  WZ2       233             0.0000000000
      4093      1365  TIP3      OH2            -5.1883849752      -23.0545493232      -10.9753871492  WZ2       234             0.0000000000
      4094      1365  TIP3      H1             -5.4838749752      -23.3773193232      -11.8266971492  WZ2       234             0.0000000000
      4095      1365  TIP3      H2             -5.5126049752      -22.1548793232      -10.9341271492  WZ2       234             0.0000000000
      4096      1366  TIP3      OH2            -9.9882249752      -24.8790893232       -4.2319271492  WZ2       235             0.0000000000
      4097      1366  TIP3      H1            -10.7283149752      -24.2809393232       -4.1284071492  WZ2       235             0.0000000000
      4098      1366  TIP3      H2             -9.2742749752      -24.3251293232       -4.5475671492  WZ2       235             0.0000000000
      4099      1367  TIP3      OH2            -1.8814449752      -32.0510093232       -8.2119571492  WZ2       236             0.0000000000
      4100      1367  TIP3      H1             -2.0966449752      -32.8166693232       -7.6793571492  WZ2       236             0.0000000000
      4101      1367  TIP3      H2             -1.2257049752      -31.5785493232       -7.6991071492  WZ2       236             0.0000000000
      4102      1368  TIP3      OH2           -12.9636349752      -30.6624793232       -6.5670771492  WZ2       237             0.0000000000
      4103      1368  TIP3      H1            -12.3500049752      -30.0297193232       -6.1938371492  WZ2       237             0.0000000000
      4104      1368  TIP3      H2            -12.4515649752      -31.1349793232       -7.2233871492  WZ2       237             0.0000000000
      4105      1369  TIP3      OH2           -11.5807949752      -22.9147893232       -3.4447771492  WZ2       238             0.0000000000
      4106      1369  TIP3      H1            -11.5860349752      -22.0354393232       -3.8228471492  WZ2       238             0.0000000000
      4107      1369  TIP3      H2            -12.4343849752      -22.9983793232       -3.0197871492  WZ2       238             0.0000000000
      4108      1370  TIP3      OH2           -15.4597049752      -23.2439993232      -12.6628471492  WZ2       239             0.0000000000
      4109      1370  TIP3      H1            -15.7316149752      -23.0148993232      -13.5515571492  WZ2       239             0.0000000000
      4110      1370  TIP3      H2            -15.4141349752      -22.4061193232      -12.2023171492  WZ2       239             0.0000000000
      4111      1371  TIP3      OH2            -1.8347349752      -21.6224093232       -5.9499971492  WZ2       240             0.0000000000
      4112      1371  TIP3      H1             -2.7763649752      -21.5640193232       -5.7883071492  WZ2       240             0.0000000000
      4113      1371  TIP3      H2             -1.5581249752      -20.7163593232       -6.0870271492  WZ2       240             0.0000000000
      4114      1372  TIP3      OH2            -3.5826149752      -19.8410593232       -9.3248371492  WZ2       243             0.0000000000
      4115      1372  TIP3      H1             -3.1573849752      -20.5482693232       -9.8098771492  WZ2       243             0.0000000000
      4116      1372  TIP3      H2             -3.2656149752      -19.0397893232       -9.7416171492  WZ2       243             0.0000000000
      4117      1373  TIP3      OH2            -2.4229649752      -21.9402093232      -10.8161771492  WZ2       244             0.0000000000
      4118      1373  TIP3      H1             -2.6804849752      -22.6301993232      -11.4275871492  WZ2       244             0.0000000000
      4119      1373  TIP3      H2             -2.3518849752      -22.3830893232       -9.9705871492  WZ2       244             0.0000000000
      4120      1374  TIP3      OH2            -0.7369449752      -23.3735393232       -2.3388271492  WZ2       245             0.0000000000
      4121      1374  TIP3      H1             -0.5973149752      -23.9652893232       -3.0781271492  WZ2       245             0.0000000000
      4122      1374  TIP3      H2             -0.5696649752      -22.5009493232       -2.6949471492  WZ2       245             0.0000000000
      4123      1375  TIP3      OH2            -6.2644049752      -26.4115893232      -12.5662271492  WZ2       246             0.0000000000
      4124      1375  TIP3      H1             -6.9758549752      -25.8766193232      -12.9181771492  WZ2       246             0.0000000000
      4125      1375  TIP3      H2             -5.5734449752      -26.3563793232      -13.2263371492  WZ2       246             0.0000000000
      4126      1376  TIP3      OH2            -6.2104849752      -27.9541593232      -15.5277271492  WZ2       247             0.0000000000
      4127      1376  TIP3      H1             -5.5094949752      -27.9314693232      -14.8763271492  WZ2       247             0.0000000000
      4128      1376  TIP3      H2             -5.9081949752      -28.5821893232      -16.1837971492  WZ2       247             0.0000000000
      4129      1377  TIP3      OH2             1.1049850248      -27.0337393232       -4.2727871492  WZ2       248             0.0000000000
      4130      1377  TIP3      H1              0.4523950248      -26.3391793232       -4.1836971492  WZ2       248             0.0000000000
      4131      1377  TIP3      H2              1.5700150248      -26.8236493232       -5.0826271492  WZ2       248             0.0000000000
      4132      1378  TIP3      OH2            -2.8586349752      -26.2022593232      -11.6146371492  WZ2       249             0.0000000000
      4133      1378  TIP3      H1             -3.5905349752      -25.9738893232      -11.0415771492  WZ2       249             0.0000000000
      4134      1378  TIP3      H2             -2.4114149752      -26.9159893232      -11.1598871492  WZ2       249             0.0000000000
      4135      1379  TIP3      OH2            -2.9612849752      -28.0279993232       -2.5469371492  WZ2       250             0.0000000000
      4136      1379  TIP3      H1             -2.8813749752      -27.2645593232       -1.9750871492  WZ2       250             0.0000000000
      4137      1379  TIP3      H2             -3.5625149752      -27.7487593232       -3.2374271492  WZ2       250             0.0000000000
      4138      1380  TIP3      OH2           -11.2132649752      -25.5716393232       -9.7321371492  WZ2       251             0.0000000000
      4139      1380  TIP3      H1            -11.5437449752      -25.9422993232      -10.5504371492  WZ2       251             0.0000000000
      4140      1380  TIP3      H2            -10.6248549752      -26.2422393232       -9.3853071492  WZ2       251             0.0000000000
      4141      1381  TIP3      OH2            -9.8465149752      -22.1435793232       -7.0509171492  WZ2       252             0.0000000000
      4142      1381  TIP3      H1             -9.9413849752      -22.7222693232       -7.8074571492  WZ2       252             0.0000000000
      4143      1381  TIP3      H2             -9.1171549752      -22.5150093232       -6.5546371492  WZ2       252             0.0000000000
      4144      1382  TIP3      OH2           -10.8467149752      -26.8030793232       -6.0986371492  WZ2       253             0.0000000000
      4145      1382  TIP3      H1            -10.2814649752      -26.6816593232       -6.8615171492  WZ2       253             0.0000000000
      4146      1382  TIP3      H2            -10.5278249752      -26.1655793232       -5.4597871492  WZ2       253             0.0000000000
      4147      1383  TIP3      OH2            -4.5374949752      -21.2998893232       -5.3645871492  WZ2       254             0.0000000000
      4148      1383  TIP3      H1             -4.7778349752      -20.6375793232       -4.7166671492  WZ2       254             0.0000000000
      4149      1383  TIP3      H2             -4.7356749752      -22.1343693232       -4.9396271492  WZ2       254             0.0000000000
      4150      1384  TIP3      OH2            -9.9666449752      -22.4038093232       -1.3814471492  WZ2       255             0.0000000000
      4151      1384  TIP3      H1            -10.2778949752      -21.6214893232       -0.9261271492  WZ2       255             0.0000000000
      4152      1384  TIP3      H2            -10.6166249752      -22.5568993232       -2.0672471492  WZ2       255             0.0000000000
      4153      1385  TIP3      OH2            -3.9876849752      -27.0399693232      -13.9295171492  WZ2       256             0.0000000000
      4154      1385  TIP3      H1             -3.4081349752      -26.8899393232      -13.1826271492  WZ2       256             0.0000000000
      4155      1385  TIP3      H2             -3.5736849752      -26.5692293232      -14.6528771492  WZ2       256             0.0000000000
      4156      1386  TIP3      OH2           -13.0466549752      -26.2056993232       -2.1528771492  WZ2       257             0.0000000000
      4157      1386  TIP3      H1            -12.9763349752      -25.5550193232       -1.4543771492  WZ2       257             0.0000000000
      4158      1386  TIP3      H2            -13.9374349752      -26.1029493232       -2.4877871492  WZ2       257             0.0000000000
      4159      1387  TIP3      OH2            -6.2611949752      -20.3031193232      -10.4942071492  WZ2       258             0.0000000000
      4160      1387  TIP3      H1             -5.7874349752      -20.0074893232       -9.7167871492  WZ2       258             0.0000000000
      4161      1387  TIP3      H2             -6.8242649752      -19.5649593232      -10.7272471492  WZ2       258             0.0000000000
      4162      1388  TIP3      OH2           -11.7270549752      -20.3323093232       -0.6180671492  WZ2       259             0.0000000000
      4163      1388  TIP3      H1            -11.7195249752      -20.4683393232       -1.5655171492  WZ2       259             0.0000000000
      4164      1388  TIP3      H2            -12.6430149752      -20.4494993232       -0.3660671492  WZ2       259             0.0000000000
      4165      1389  TIP3      OH2           -12.2229949752      -26.5022093232      -12.1428571492  WZ2       261             0.0000000000
      4166      1389  TIP3      H1            -12.5148649752      -25.7340393232      -12.6337271492  WZ2       261             0.0000000000
      4167      1389  TIP3      H2            -12.8974749752      -27.1615893232      -12.3057171492  WZ2       261             0.0000000000
      4168      1390  TIP3      OH2             0.9002950248      -20.9236893232      -15.7401571492  WZ2       262             0.0000000000
      4169      1390  TIP3      H1              0.9736450248      -19.9846693232      -15.5696271492  WZ2       262             0.0000000000
      4170      1390  TIP3      H2              1.8058050248      -21.2288293232      -15.7964271492  WZ2       262             0.0000000000
      4171      1391  TIP3      OH2           -16.1299849752      -24.1392893232       -3.3278771492  WZ2       263             0.0000000000
      4172      1391  TIP3      H1            -16.6311449752      -24.1673493232       -4.1429071492  WZ2       263             0.0000000000
      4173      1391  TIP3      H2            -16.1246149752      -25.0449693232       -3.0181471492  WZ2       263             0.0000000000
      4174      1392  TIP3      OH2           -16.3797149752      -21.3589093232       -6.4438571492  WZ2       264             0.0000000000
      4175      1392  TIP3      H1            -15.4336549752      -21.5032093232       -6.4629071492  WZ2       264             0.0000000000
      4176      1392  TIP3      H2            -16.4920849752      -20.5746293232       -5.9067371492  WZ2       264             0.0000000000
      4177      1393  TIP3      OH2             1.8181350248      -20.6929393232       -0.7614871492  WZ2       265             0.0000000000
      4178      1393  TIP3      H1              1.7688150248      -21.6481293232       -0.7987271492  WZ2       265             0.0000000000
      4179      1393  TIP3      H2              0.9913650248      -20.4254093232       -0.3601071492  WZ2       265             0.0000000000
      4180      1394  TIP3      OH2            -7.2034649752      -21.1190193232       -1.8853471492  WZ2       266             0.0000000000
      4181      1394  TIP3      H1             -7.1160049752      -20.2925593232       -1.4104371492  WZ2       266             0.0000000000
      4182      1394  TIP3      H2             -8.0669549752      -21.4486393232       -1.6364171492  WZ2       266             0.0000000000
      4183      1395  TIP3      OH2            -6.7888849752      -17.3466493232      -12.0792871492  WZ2       267             0.0000000000
      4184      1395  TIP3      H1             -6.8642849752      -17.4679293232      -13.0257671492  WZ2       267             0.0000000000
      4185      1395  TIP3      H2             -6.7560149752      -16.3973793232      -11.9608271492  WZ2       267             0.0000000000
      4186      1396  TIP3      OH2           -13.1355049752      -18.5579493232      -10.2983871492  WZ2       268             0.0000000000
      4187      1396  TIP3      H1            -12.9834649752      -18.9059093232       -9.4197371492  WZ2       268             0.0000000000
      4188      1396  TIP3      H2            -13.9864649752      -18.9142193232      -10.5536671492  WZ2       268             0.0000000000
      4189      1397  TIP3      OH2            -3.6872849752      -18.1926293232      -15.0770471492  WZ2       269             0.0000000000
      4190      1397  TIP3      H1             -3.3124449752      -18.9370193232      -15.5477871492  WZ2       269             0.0000000000
      4191      1397  TIP3      H2             -3.6829149752      -18.4625693232      -14.1587171492  WZ2       269             0.0000000000
      4192      1398  TIP3      OH2            -4.0184749752      -18.2669193232      -12.3278271492  WZ2       270             0.0000000000
      4193      1398  TIP3      H1             -4.9534949752      -18.1667293232      -12.1491271492  WZ2       270             0.0000000000
      4194      1398  TIP3      H2             -3.7382849752      -18.9763193232      -11.7495071492  WZ2       270             0.0000000000
      4195      1399  TIP3      OH2            -1.0298849752      -29.1996893232       -0.2812671492  WZ2       271             0.0000000000
      4196      1399  TIP3      H1             -1.4372049752      -28.7191293232       -1.0019371492  WZ2       271             0.0000000000
      4197      1399  TIP3      H2             -0.9893149752      -30.1050893232       -0.5891871492  WZ2       271             0.0000000000
      4198      1400  TIP3      OH2           -13.8809349752      -22.8157493232       -2.2845971492  WZ2       272             0.0000000000
      4199      1400  TIP3      H1            -13.6648049752      -23.1771893232       -1.4250171492  WZ2       272             0.0000000000
      4200      1400  TIP3      H2            -14.7364649752      -23.1903693232       -2.4942471492  WZ2       272             0.0000000000
      4201      1401  TIP3      OH2            -3.2728649752      -30.8681393232       -2.0610271492  WZ2       275             0.0000000000
      4202      1401  TIP3      H1             -3.7869149752      -30.9939193232       -1.2634271492  WZ2       275             0.0000000000
      4203      1401  TIP3      H2             -3.4283949752      -29.9558293232       -2.3054071492  WZ2       275             0.0000000000
      4204      1402  TIP3      OH2            -2.5103749752      -26.0071393232      -16.2997271492  WZ2       276             0.0000000000
      4205      1402  TIP3      H1             -2.4682949752      -26.2297493232      -17.2297271492  WZ2       276             0.0000000000
      4206      1402  TIP3      H2             -1.6611649752      -25.6084293232      -16.1097371492  WZ2       276             0.0000000000
      4207      1403  TIP3      OH2           -11.1711249752      -29.3802493232       -5.1941571492  WZ2       278             0.0000000000
      4208      1403  TIP3      H1            -11.8129149752      -29.4205193232       -4.4851471492  WZ2       278             0.0000000000
      4209      1403  TIP3      H2            -11.1339249752      -28.4537793232       -5.4318571492  WZ2       278             0.0000000000
      4210      1404  TIP3      OH2           -11.1742149752      -29.1592393232      -10.2821571492  WZ2       279             0.0000000000
      4211      1404  TIP3      H1            -12.0669249752      -29.4996293232      -10.3407771492  WZ2       279             0.0000000000
      4212      1404  TIP3      H2            -10.7235549752      -29.5361493232      -11.0378371492  WZ2       279             0.0000000000
      4213      1405  TIP3      OH2            -5.6386649752      -28.7432093232      -11.4650771492  WZ2       280             0.0000000000
      4214      1405  TIP3      H1             -6.0476349752      -27.9283493232      -11.7565971492  WZ2       280             0.0000000000
      4215      1405  TIP3      H2             -4.9180449752      -28.8831993232      -12.0793671492  WZ2       280             0.0000000000
      4216      1406  TIP3      OH2            -6.5365049752      -28.5675693232        0.0229928508  WZ2       281             0.0000000000
      4217      1406  TIP3      H1             -7.0991249752      -29.2724093232        0.3437728508  WZ2       281             0.0000000000
      4218      1406  TIP3      H2             -5.7101649752      -28.6883793232        0.4907528508  WZ2       281             0.0000000000
      4219      1407  TIP3      OH2            -4.6338949752      -29.2971693232       -8.6511071492  WZ2       282             0.0000000000
      4220      1407  TIP3      H1             -4.8294449752      -28.6914893232       -9.3660471492  WZ2       282             0.0000000000
      4221      1407  TIP3      H2             -4.4526349752      -30.1306493232       -9.0854771492  WZ2       282             0.0000000000
      4222      1408  TIP3      OH2           -13.4210749752      -29.0598993232       -3.3269571492  WZ2       283             0.0000000000
      4223      1408  TIP3      H1            -13.4591349752      -28.6597393232       -2.4582471492  WZ2       283             0.0000000000
      4224      1408  TIP3      H2            -13.9119649752      -29.8766593232       -3.2366671492  WZ2       283             0.0000000000
      4225      1409  TIP3      OH2           -10.0553349752      -31.6856693232      -16.5283571492  WZ2       284             0.0000000000
      4226      1409  TIP3      H1            -10.4862649752      -32.1306593232      -15.7986171492  WZ2       284             0.0000000000
      4227      1409  TIP3      H2            -10.7734649752      -31.3140393232      -17.0406071492  WZ2       284             0.0000000000
      4228      1410  TIP3      OH2           -16.8129949752      -31.9437193232       -9.4764871492  WZ2       285             0.0000000000
      4229      1410  TIP3      H1            -16.1822249752      -31.9725093232       -8.7570971492  WZ2       285             0.0000000000
      4230      1410  TIP3      H2            -16.3635649752      -32.3688493232      -10.2068971492  WZ2       285             0.0000000000
      4231      1411  TIP3      OH2           -15.5387849752      -31.1975193232      -14.0524471492  WZ2       286             0.0000000000
      4232      1411  TIP3      H1            -15.0646149752      -30.6065293232      -14.6373571492  WZ2       286             0.0000000000
      4233      1411  TIP3      H2            -16.2561449752      -30.6672293232      -13.7054371492  WZ2       286             0.0000000000
      4234      1412  TIP3      OH2            -5.3699749752      -27.6590393232       -3.9798671492  WZ2       287             0.0000000000
      4235      1412  TIP3      H1             -5.0464949752      -28.2900693232       -4.6228171492  WZ2       287             0.0000000000
      4236      1412  TIP3      H2             -5.8100449752      -28.1938193232       -3.3191271492  WZ2       287             0.0000000000
      4237      1413  TIP3      OH2            -8.5926849752      -31.7314893232       -9.1957471492  WZ2       288             0.0000000000
      4238      1413  TIP3      H1             -9.5035749752      -31.6748093232       -8.9071471492  WZ2       288             0.0000000000
      4239      1413  TIP3      H2             -8.0873949752      -31.7919393232       -8.3850271492  WZ2       288             0.0000000000
      4240      1414  TIP3      OH2           -13.7643449752      -30.1028593232      -10.3689871492  WZ2       289             0.0000000000
      4241      1414  TIP3      H1            -14.6535449752      -30.0033093232      -10.7090271492  WZ2       289             0.0000000000
      4242      1414  TIP3      H2            -13.4678549752      -30.9445593232      -10.7151971492  WZ2       289             0.0000000000
      4243      1415  TIP3      OH2           -10.1111649752      -30.1025993232      -12.7125271492  WZ2       290             0.0000000000
      4244      1415  TIP3      H1             -9.1796149752      -29.9735993232      -12.5342171492  WZ2       290             0.0000000000
      4245      1415  TIP3      H2            -10.3261349752      -29.4331693232      -13.3620571492  WZ2       290             0.0000000000
      4246      1416  TIP3      OH2           -11.4371449752      -28.9083793232      -15.1459171492  WZ2       292             0.0000000000
      4247      1416  TIP3      H1            -11.9796349752      -29.2879993232      -15.8371571492  WZ2       292             0.0000000000
      4248      1416  TIP3      H2            -10.6036549752      -28.7139093232      -15.5745071492  WZ2       292             0.0000000000
      4249      1417  TIP3      OH2            -0.8999849752      -16.8253193232        0.3451928508  WZ2       293             0.0000000000
      4250      1417  TIP3      H1             -0.7001149752      -16.4011293232       -0.4892771492  WZ2       293             0.0000000000
      4251      1417  TIP3      H2             -0.2446149752      -16.4814993232        0.9522328508  WZ2       293             0.0000000000
      4252      1418  TIP3      OH2           -13.3020049752      -24.3511893232       -0.0467571492  WZ2       294             0.0000000000
      4253      1418  TIP3      H1            -12.5697649752      -24.0965993232        0.5146928508  WZ2       294             0.0000000000
      4254      1418  TIP3      H2            -14.0821349752      -24.1466493232        0.4687828508  WZ2       294             0.0000000000
      4255      1419  TIP3      OH2            -7.2727149752      -28.9441893232       -7.3087871492  WZ2       295             0.0000000000
      4256      1419  TIP3      H1             -6.7083749752      -29.4905293232       -7.8558271492  WZ2       295             0.0000000000
      4257      1419  TIP3      H2             -7.4203749752      -29.4659993232       -6.5200271492  WZ2       295             0.0000000000
      4258      1420  TIP3      OH2            -8.6461249752      -30.5555793232       -4.8947471492  WZ2       297             0.0000000000
      4259      1420  TIP3      H1             -9.4815949752      -30.1016293232       -4.7845071492  WZ2       297             0.0000000000
      4260      1420  TIP3      H2             -8.1220649752      -30.2797293232       -4.1427571492  WZ2       297             0.0000000000
      4261      1421  TIP3      OH2            -8.1018649752      -24.3428093232      -13.2101071492  WZ2       298             0.0000000000
      4262      1421  TIP3      H1             -8.8467649752      -24.8502793232      -13.5323171492  WZ2       298             0.0000000000
      4263      1421  TIP3      H2             -8.2361449752      -24.2940093232      -12.2636271492  WZ2       298             0.0000000000
      4264      1422  TIP3      OH2            -0.9519749752      -25.2099893232       -4.4233471492  WZ2       299             0.0000000000
      4265      1422  TIP3      H1             -0.3100949752      -24.7533593232       -4.9671271492  WZ2       299             0.0000000000
      4266      1422  TIP3      H2             -1.7822849752      -25.0967493232       -4.8859371492  WZ2       299             0.0000000000
      4267      1423  TIP3      OH2            -4.2041849752      -31.5288193232      -15.0108471492  WZ2       300             0.0000000000
      4268      1423  TIP3      H1             -5.1427649752      -31.4172593232      -15.1619671492  WZ2       300             0.0000000000
      4269      1423  TIP3      H2             -3.9069749752      -30.6721293232      -14.7042771492  WZ2       300             0.0000000000
      4270      1424  TIP3      OH2            -6.5826549752      -24.1584793232       -1.9731971492  WZ2       301             0.0000000000
      4271      1424  TIP3      H1             -6.9280449752      -24.5402393232       -1.1662371492  WZ2       301             0.0000000000
      4272      1424  TIP3      H2             -6.7826449752      -23.2251193232       -1.9019071492  WZ2       301             0.0000000000
      4273      1425  TIP3      OH2            -3.4858349752      -29.6615493232      -13.3501071492  WZ2       302             0.0000000000
      4274      1425  TIP3      H1             -2.5939349752      -29.7990493232      -13.0309871492  WZ2       302             0.0000000000
      4275      1425  TIP3      H2             -3.4294749752      -28.8709393232      -13.8867571492  WZ2       302             0.0000000000
      4276      1426  TIP3      OH2           -12.9770349752      -25.0478093232       -7.4403171492  WZ2       303             0.0000000000
      4277      1426  TIP3      H1            -12.2323149752      -25.0502393232       -8.0416671492  WZ2       303             0.0000000000
      4278      1426  TIP3      H2            -12.8993749752      -25.8714293232       -6.9588071492  WZ2       303             0.0000000000
      4279      1427  TIP3      OH2            -5.9764549752      -22.8843793232      -14.1846471492  WZ2       304             0.0000000000
      4280      1427  TIP3      H1             -6.2716149752      -22.0575893232      -13.8031671492  WZ2       304             0.0000000000
      4281      1427  TIP3      H2             -6.6794549752      -23.5036893232      -13.9885071492  WZ2       304             0.0000000000
      4282      1428  TIP3      OH2           -15.9690649752      -26.5871193232       -2.1254671492  WZ2       305             0.0000000000
      4283      1428  TIP3      H1            -15.7462049752      -27.0051593232       -1.2937171492  WZ2       305             0.0000000000
      4284      1428  TIP3      H2            -16.5710549752      -27.1996193232       -2.5481871492  WZ2       305             0.0000000000
      4285      1429  TIP3      OH2            -8.9525749752      -27.0701293232        0.0875028508  WZ2       306             0.0000000000
      4286      1429  TIP3      H1             -9.2484949752      -27.2358293232       -0.8075871492  WZ2       306             0.0000000000
      4287      1429  TIP3      H2             -8.0210549752      -27.2900993232        0.0768928508  WZ2       306             0.0000000000
      4288      1430  TIP3      OH2            -4.3322949752      -21.6969293232       -2.0226971492  WZ2       307             0.0000000000
      4289      1430  TIP3      H1             -5.2328649752      -21.5136693232       -2.2903071492  WZ2       307             0.0000000000
      4290      1430  TIP3      H2             -4.2981849752      -21.4379993232       -1.1018171492  WZ2       307             0.0000000000
      4291      1431  TIP3      OH2             1.3990350248      -29.4521393232      -13.6554371492  WZ2       308             0.0000000000
      4292      1431  TIP3      H1              0.8446650248      -29.8483393232      -14.3276871492  WZ2       308             0.0000000000
      4293      1431  TIP3      H2              1.4993950248      -28.5416193232      -13.9331071492  WZ2       308             0.0000000000
      4294      1432  TIP3      OH2             1.3622350248      -23.6519693232       -0.8182871492  WZ2       309             0.0000000000
      4295      1432  TIP3      H1              0.5110850248      -23.4135893232       -1.1856471492  WZ2       309             0.0000000000
      4296      1432  TIP3      H2              1.9525750248      -23.6686493232       -1.5715771492  WZ2       309             0.0000000000
      4297      1433  TIP3      OH2            -0.3057949752      -20.6660993232      -13.1902271492  WZ2       310             0.0000000000
      4298      1433  TIP3      H1             -0.6786849752      -21.4917193232      -12.8811671492  WZ2       310             0.0000000000
      4299      1433  TIP3      H2             -0.0284449752      -20.8491593232      -14.0878871492  WZ2       310             0.0000000000
      4300      1434  TIP3      OH2            -3.1454049752      -25.8581493232       -6.1690371492  WZ2       311             0.0000000000
      4301      1434  TIP3      H1             -4.0737149752      -26.0899593232       -6.1961071492  WZ2       311             0.0000000000
      4302      1434  TIP3      H2             -2.6942949752      -26.6351693232       -6.4991571492  WZ2       311             0.0000000000
      4303      1435  TIP3      OH2           -10.6020949752      -21.5299893232      -10.0361671492  WZ2       312             0.0000000000
      4304      1435  TIP3      H1            -10.0748749752      -20.7565493232      -10.2362871492  WZ2       312             0.0000000000
      4305      1435  TIP3      H2            -11.4822449752      -21.3050693232      -10.3377671492  WZ2       312             0.0000000000
      4306      1436  TIP3      OH2           -14.8473249752      -26.6675793232      -15.4489271492  WZ2       313             0.0000000000
      4307      1436  TIP3      H1            -14.2313349752      -26.0408593232      -15.0694471492  WZ2       313             0.0000000000
      4308      1436  TIP3      H2            -15.7090649752      -26.3515993232      -15.1772771492  WZ2       313             0.0000000000
      4309      1437  TIP3      OH2            -9.1748649752      -23.8669993232      -10.4597371492  WZ2       314             0.0000000000
      4310      1437  TIP3      H1             -9.4158649752      -22.9415593232      -10.4182071492  WZ2       314             0.0000000000
      4311      1437  TIP3      H2             -9.9155049752      -24.3258693232      -10.0633471492  WZ2       314             0.0000000000
      4312      1438  TIP3      OH2            -8.6602049752      -19.7176393232       -4.1446271492  WZ2       315             0.0000000000
      4313      1438  TIP3      H1             -8.2977349752      -18.8630793232       -4.3781871492  WZ2       315             0.0000000000
      4314      1438  TIP3      H2             -8.1286849752      -20.0094793232       -3.4039971492  WZ2       315             0.0000000000
      4315      1439  TIP3      OH2           -10.4917849752      -18.8452393232      -10.9145171492  WZ2       316             0.0000000000
      4316      1439  TIP3      H1            -11.4417349752      -18.7394993232      -10.8631871492  WZ2       316             0.0000000000
      4317      1439  TIP3      H2            -10.1399749752      -18.0244993232      -10.5697671492  WZ2       316             0.0000000000
      4318      1440  TIP3      OH2            -5.1161249752      -23.6185693232       -4.4440671492  WZ2       317             0.0000000000
      4319      1440  TIP3      H1             -5.5419949752      -23.8463993232       -3.6176671492  WZ2       317             0.0000000000
      4320      1440  TIP3      H2             -4.5355449752      -24.3573893232       -4.6265371492  WZ2       317             0.0000000000
      4321      1441  TIP3      OH2            -2.9132349752      -22.6895193232      -15.3701671492  WZ2       318             0.0000000000
      4322      1441  TIP3      H1             -2.5599249752      -23.0695393232      -14.5658171492  WZ2       318             0.0000000000
      4323      1441  TIP3      H2             -3.8618849752      -22.7830393232      -15.2832371492  WZ2       318             0.0000000000
      4324      1442  TIP3      OH2            -2.4577049752      -19.0666193232       -1.9745871492  WZ2       319             0.0000000000
      4325      1442  TIP3      H1             -3.0593849752      -19.6223293232       -2.4699571492  WZ2       319             0.0000000000
      4326      1442  TIP3      H2             -2.1763349752      -18.3996393232       -2.6008471492  WZ2       319             0.0000000000
      4327      1443  TIP3      OH2             1.5902050248      -18.2102693232      -15.1691471492  WZ2       320             0.0000000000
      4328      1443  TIP3      H1              2.3339950248      -17.6242193232      -15.3089871492  WZ2       320             0.0000000000
      4329      1443  TIP3      H2              0.8960150248      -17.6416893232      -14.8359071492  WZ2       320             0.0000000000
      4330      1444  TIP3      OH2           -14.3351149752      -31.8338493232       -2.5673271492  WZ2       321             0.0000000000
      4331      1444  TIP3      H1            -15.2278849752      -31.4953093232       -2.6349271492  WZ2       321             0.0000000000
      4332      1444  TIP3      H2            -14.4338349752      -32.6892393232       -2.1492471492  WZ2       321             0.0000000000
      4333      1445  TIP3      OH2            -2.0473049752      -24.0173193232      -13.1433771492  WZ2       322             0.0000000000
      4334      1445  TIP3      H1             -2.3245449752      -24.7453893232      -12.5872671492  WZ2       322             0.0000000000
      4335      1445  TIP3      H2             -1.1200049752      -23.8981193232      -12.9381171492  WZ2       322             0.0000000000
      4336      1446  TIP3      OH2           -14.6839149752      -20.0294093232       -4.1323871492  WZ2       323             0.0000000000
      4337      1446  TIP3      H1            -14.4668849752      -20.9611693232       -4.1634171492  WZ2       323             0.0000000000
      4338      1446  TIP3      H2            -14.4375649752      -19.7549093232       -3.2491071492  WZ2       323             0.0000000000
      4339      1447  TIP3      OH2            -8.8224549752      -21.5779093232      -16.9231671492  WZ2       324             0.0000000000
      4340      1447  TIP3      H1             -8.5834749752      -22.3260993232      -17.4702771492  WZ2       324             0.0000000000
      4341      1447  TIP3      H2             -9.0913249752      -21.9657393232      -16.0903871492  WZ2       324             0.0000000000
      4342      1448  TIP3      OH2            -9.8853949752      -22.0075293232      -14.4669071492  WZ2       325             0.0000000000
      4343      1448  TIP3      H1             -9.7385949752      -22.5275493232      -13.6768171492  WZ2       325             0.0000000000
      4344      1448  TIP3      H2             -9.8882249752      -21.1007693232      -14.1603171492  WZ2       325             0.0000000000
      4345      1449  TIP3      OH2           -13.4322849752      -24.7551993232      -13.9563671492  WZ2       326             0.0000000000
      4346      1449  TIP3      H1            -14.1183549752      -24.4029493232      -13.3893971492  WZ2       326             0.0000000000
      4347      1449  TIP3      H2            -12.9094949752      -23.9922393232      -14.2029371492  WZ2       326             0.0000000000
      4348      1450  TIP3      OH2            -5.6007749752      -32.0928193232       -3.6774671492  WZ2       327             0.0000000000
      4349      1450  TIP3      H1             -4.9019849752      -32.0189493232       -3.0274971492  WZ2       327             0.0000000000
      4350      1450  TIP3      H2             -5.9816349752      -32.9573193232       -3.5231771492  WZ2       327             0.0000000000
      4351      1451  TIP3      OH2            -4.8162849752      -32.4406493232      -12.5802371492  WZ2       328             0.0000000000
      4352      1451  TIP3      H1             -4.5964549752      -31.9691093232      -13.3836971492  WZ2       328             0.0000000000
      4353      1451  TIP3      H2             -4.2578849752      -32.0463893232      -11.9101771492  WZ2       328             0.0000000000
      4354      1452  TIP3      OH2            -7.1476749752      -20.3101693232      -13.7174871492  WZ2       329             0.0000000000
      4355      1452  TIP3      H1             -7.9640649752      -19.8131993232      -13.6650571492  WZ2       329             0.0000000000
      4356      1452  TIP3      H2             -6.6180449752      -19.8348193232      -14.3576071492  WZ2       329             0.0000000000
      4357      1453  TIP3      OH2            -7.6162949752      -30.7127693232      -11.7453971492  WZ2       330             0.0000000000
      4358      1453  TIP3      H1             -6.8040349752      -30.2084493232      -11.6992271492  WZ2       330             0.0000000000
      4359      1453  TIP3      H2             -7.8609949752      -30.8577993232      -10.8314371492  WZ2       330             0.0000000000
      4360      1454  TIP3      OH2            -7.0806549752      -29.7264993232       -2.5607371492  WZ2       331             0.0000000000
      4361      1454  TIP3      H1             -6.9616249752      -29.1529593232       -1.8036971492  WZ2       331             0.0000000000
      4362      1454  TIP3      H2             -6.4251949752      -30.4145593232       -2.4459571492  WZ2       331             0.0000000000
      4363      1455  TIP3      OH2            -9.8093649752      -19.2664493232      -13.7357971492  WZ2       333             0.0000000000
      4364      1455  TIP3      H1             -9.6484949752      -18.4666993232      -14.2365371492  WZ2       333             0.0000000000
      4365      1455  TIP3      H2            -10.0065849752      -18.9598493232      -12.8507371492  WZ2       333             0.0000000000
      4366      1456  TIP3      OH2           -11.0749249752      -32.5685293232      -14.1200371492  WZ2       334             0.0000000000
      4367      1456  TIP3      H1            -11.1584449752      -31.6802193232      -13.7733971492  WZ2       334             0.0000000000
      4368      1456  TIP3      H2            -10.1848949752      -32.8338593232      -13.8883571492  WZ2       334             0.0000000000
      4369      1457  TIP3      OH2            -0.8760749752      -31.8194693232       -1.7257671492  WZ2       335             0.0000000000
      4370      1457  TIP3      H1             -1.7924949752      -31.5572993232       -1.8133971492  WZ2       335             0.0000000000
      4371      1457  TIP3      H2             -0.5405749752      -31.8225693232       -2.6222371492  WZ2       335             0.0000000000
      4372      1458  TIP3      OH2            -2.2739749752      -28.0693693232       -7.6300371492  WZ2       336             0.0000000000
      4373      1458  TIP3      H1             -3.0715349752      -28.4843493232       -7.9585371492  WZ2       336             0.0000000000
      4374      1458  TIP3      H2             -1.8288649752      -28.7599993232       -7.1389871492  WZ2       336             0.0000000000
      4375      1459  TIP3      OH2           -12.8163949752      -22.1413093232      -15.0595871492  WZ2       337             0.0000000000
      4376      1459  TIP3      H1            -12.2242449752      -21.4418293232      -14.7833471492  WZ2       337             0.0000000000
      4377      1459  TIP3      H2            -12.3570949752      -22.5743593232      -15.7791271492  WZ2       337             0.0000000000
      4378      1460  TIP3      OH2           -14.5004749752      -29.4770093232      -15.9436471492  WZ2       338             0.0000000000
      4379      1460  TIP3      H1            -14.5452149752      -28.5376993232      -15.7649471492  WZ2       338             0.0000000000
      4380      1460  TIP3      H2            -15.3881549752      -29.7125193232      -16.2134371492  WZ2       338             0.0000000000
      4381      1461  TIP3      OH2            -1.1875149752      -18.8131193232       -6.0076871492  WZ2       339             0.0000000000
      4382      1461  TIP3      H1             -1.3430849752      -18.1346793232       -6.6647571492  WZ2       339             0.0000000000
      4383      1461  TIP3      H2             -0.2548749752      -18.7411893232       -5.8046271492  WZ2       339             0.0000000000
      4384      1462  TIP3      OH2           -14.7619449752      -20.7546393232      -11.1099671492  WZ2       341             0.0000000000
      4385      1462  TIP3      H1            -15.5940849752      -20.2823693232      -11.0828271492  WZ2       341             0.0000000000
      4386      1462  TIP3      H2            -14.2161149752      -20.2448793232      -11.7086571492  WZ2       341             0.0000000000
      4387      1463  TIP3      OH2           -15.4735749752      -18.1422693232        0.2198328508  WZ2       342             0.0000000000
      4388      1463  TIP3      H1            -14.9333549752      -18.3588693232        0.9797528508  WZ2       342             0.0000000000
      4389      1463  TIP3      H2            -15.9547749752      -18.9476693232        0.0300828508  WZ2       342             0.0000000000
      4390      1464  TIP3      OH2           -10.8762349752      -19.2228293232        1.8402528508  WZ2       343             0.0000000000
      4391      1464  TIP3      H1            -10.1085149752      -19.6817493232        2.1811728508  WZ2       343             0.0000000000
      4392      1464  TIP3      H2            -10.8976149752      -19.4488493232        0.9103728508  WZ2       343             0.0000000000
      4393      1465  TIP3      OH2            -6.7842749752      -19.7147693232      -16.7845671492  WZ2       344             0.0000000000
      4394      1465  TIP3      H1             -7.4281749752      -20.3459093232      -16.4631971492  WZ2       344             0.0000000000
      4395      1465  TIP3      H2             -6.0224449752      -20.2459693232      -17.0162171492  WZ2       344             0.0000000000
      4396      1466  TIP3      OH2            -4.2993649752      -20.8427193232        0.5694028508  WZ2       345             0.0000000000
      4397      1466  TIP3      H1             -4.6504149752      -21.6994193232        0.8124428508  WZ2       345             0.0000000000
      4398      1466  TIP3      H2             -3.5730449752      -20.7000493232        1.1763028508  WZ2       345             0.0000000000
      4399      1467  TIP3      OH2            -2.1799849752      -19.8977793232      -16.5507671492  WZ2       346             0.0000000000
      4400      1467  TIP3      H1             -1.8969449752      -20.6922593232      -16.0980771492  WZ2       346             0.0000000000
      4401      1467  TIP3      H2             -1.4401949752      -19.6646793232      -17.1116571492  WZ2       346             0.0000000000
      4402      1468  TIP3      OH2           -15.5666249752      -24.3318593232        1.1742628508  WZ2       347             0.0000000000
      4403      1468  TIP3      H1            -15.4225749752      -25.2337893232        0.8879328508  WZ2       347             0.0000000000
      4404      1468  TIP3      H2            -16.3388849752      -24.0456493232        0.6864928508  WZ2       347             0.0000000000
      4405      1469  TIP3      OH2           -11.2252549752      -23.9882893232      -16.6932771492  WZ2       348             0.0000000000
      4406      1469  TIP3      H1            -11.1608449752      -24.7823293232      -16.1626371492  WZ2       348             0.0000000000
      4407      1469  TIP3      H2            -10.5723349752      -24.1070093232      -17.3830771492  WZ2       348             0.0000000000
      4408      1470  TIP3      OH2            -8.9110149752      -24.3620493232        0.6069028508  WZ2       349             0.0000000000
      4409      1470  TIP3      H1             -9.2396349752      -24.0912393232       -0.2503571492  WZ2       349             0.0000000000
      4410      1470  TIP3      H2             -8.7591949752      -25.3030693232        0.5194028508  WZ2       349             0.0000000000
      4411      1471  TIP3      OH2            -5.8729149752      -22.9411193232      -16.9574771492  WZ2       350             0.0000000000
      4412      1471  TIP3      H1             -6.1415049752      -22.7609093232      -16.0565871492  WZ2       350             0.0000000000
      4413      1471  TIP3      H2             -6.0793549752      -23.8664993232      -17.0888971492  WZ2       350             0.0000000000
      4414      1472  TIP3      OH2            -3.1764949752      -24.4463193232       -2.0098671492  WZ2       351             0.0000000000
      4415      1472  TIP3      H1             -2.4310149752      -23.8579493232       -2.1294671492  WZ2       351             0.0000000000
      4416      1472  TIP3      H2             -3.9338149752      -23.8643493232       -1.9465571492  WZ2       351             0.0000000000
      4417      1473  TIP3      OH2           -14.7339749752      -27.1315293232        0.5941928508  WZ2       352             0.0000000000
      4418      1473  TIP3      H1            -14.3258549752      -27.9888693232        0.4732528508  WZ2       352             0.0000000000
      4419      1473  TIP3      H2            -14.9942149752      -27.1173993232        1.5152228508  WZ2       352             0.0000000000
      4420      1474  TIP3      OH2           -10.0758749752      -26.0156693232      -14.3874771492  WZ2       353             0.0000000000
      4421      1474  TIP3      H1            -10.5356749752      -26.4998393232      -13.7016271492  WZ2       353             0.0000000000
      4422      1474  TIP3      H2             -9.8210049752      -26.6841293232      -15.0234271492  WZ2       353             0.0000000000
      4423      1475  TIP3      OH2           -10.7869449752      -28.1229593232       -2.0315171492  WZ2       354             0.0000000000
      4424      1475  TIP3      H1            -11.4053349752      -27.4482993232       -1.7510471492  WZ2       354             0.0000000000
      4425      1475  TIP3      H2            -10.4428249752      -27.8015693232       -2.8648971492  WZ2       354             0.0000000000
      4426      1476  TIP3      OH2            -9.0048349752      -27.7724893232      -16.1251571492  WZ2       355             0.0000000000
      4427      1476  TIP3      H1             -9.1853349752      -27.9273693232      -17.0523271492  WZ2       355             0.0000000000
      4428      1476  TIP3      H2             -8.0547849752      -27.6646193232      -16.0803671492  WZ2       355             0.0000000000
      4429      1477  TIP3      OH2            -5.7671249752      -25.6514293232        1.2459628508  WZ2       356             0.0000000000
      4430      1477  TIP3      H1             -4.8140049752      -25.5675193232        1.2185628508  WZ2       356             0.0000000000
      4431      1477  TIP3      H2             -5.9276649752      -26.3632493232        1.8654528508  WZ2       356             0.0000000000
      4432      1478  TIP3      OH2             0.3849950248      -25.4180693232      -16.6793471492  WZ2       357             0.0000000000
      4433      1478  TIP3      H1              0.1114750248      -25.8425193232      -17.4925171492  WZ2       357             0.0000000000
      4434      1478  TIP3      H2              0.4244050248      -24.4866193232      -16.8963071492  WZ2       357             0.0000000000
      4435      1479  TIP3      OH2           -10.4475749752      -30.7678793232       -0.9492071492  WZ2       358             0.0000000000
      4436      1479  TIP3      H1            -10.2974849752      -31.4967493232       -1.5512371492  WZ2       358             0.0000000000
      4437      1479  TIP3      H2            -10.4453349752      -29.9907093232       -1.5079871492  WZ2       358             0.0000000000
      4438      1480  TIP3      OH2           -10.0350049752      -32.3982993232       -3.4564671492  WZ2       359             0.0000000000
      4439      1480  TIP3      H1             -9.4992549752      -31.9466293232       -4.1085371492  WZ2       359             0.0000000000
      4440      1480  TIP3      H2            -10.8870449752      -32.5063193232       -3.8790571492  WZ2       359             0.0000000000
      4441      1481  TIP3      OH2            -8.4531649752      -26.9586793232       -3.2169471492  WZ2       360             0.0000000000
      4442      1481  TIP3      H1             -7.7026849752      -27.1149293232       -3.7901671492  WZ2       360             0.0000000000
      4443      1481  TIP3      H2             -8.7923349752      -26.1070193232       -3.4923971492  WZ2       360             0.0000000000
      4444      1482  TIP3      OH2            -4.0375449752      -29.1434993232        1.8115828508  WZ2       361             0.0000000000
      4445      1482  TIP3      H1             -3.8454149752      -30.0745593232        1.7000328508  WZ2       361             0.0000000000
      4446      1482  TIP3      H2             -3.1799149752      -28.7185493232        1.8011228508  WZ2       361             0.0000000000
      4447      1483  TIP3      OH2            -2.7208249752      -26.3549793232       -0.1111471492  WZ2       362             0.0000000000
      4448      1483  TIP3      H1             -3.0023249752      -25.6455193232       -0.6887671492  WZ2       362             0.0000000000
      4449      1483  TIP3      H2             -1.7783949752      -26.4276793232       -0.2620271492  WZ2       362             0.0000000000
      4450      1484  TIP3      OH2           -11.9689449752      -29.5695293232        0.9623528508  WZ2       363             0.0000000000
      4451      1484  TIP3      H1            -12.7360449752      -30.1020493232        0.7521128508  WZ2       363             0.0000000000
      4452      1484  TIP3      H2            -11.2900449752      -29.8794893232        0.3629828508  WZ2       363             0.0000000000
      4453      1485  TIP3      OH2            -7.9654049752      -30.6201893232        0.5387328508  WZ2       365             0.0000000000
      4454      1485  TIP3      H1             -8.2008649752      -30.8395193232        1.4402228508  WZ2       365             0.0000000000
      4455      1485  TIP3      H2             -8.7487149752      -30.8270693232        0.0289828508  WZ2       365             0.0000000000
      4456      1486  TIP3      OH2            -5.2497449752      -31.4928393232       -0.3859171492  WZ2       366             0.0000000000
      4457      1486  TIP3      H1             -6.1972049752      -31.4608693232       -0.2535871492  WZ2       366             0.0000000000
      4458      1486  TIP3      H2             -4.9370749752      -32.1181293232        0.2679028508  WZ2       366             0.0000000000
      4459      1487  TIP3      OH2           -13.7886649752      -31.6491493232        0.6668228508  WZ2       368             0.0000000000
      4460      1487  TIP3      H1            -13.5769249752      -32.3555393232        0.0565728508  WZ2       368             0.0000000000
      4461      1487  TIP3      H2            -13.8999149752      -32.0865493232        1.5109428508  WZ2       368             0.0000000000
      4462      1488  TIP3      OH2            -9.1076649752      -17.0821193232      -15.1237971492  WZ2       371             0.0000000000
      4463      1488  TIP3      H1             -8.1745949752      -16.9242493232      -14.9799571492  WZ2       371             0.0000000000
      4464      1488  TIP3      H2             -9.3717849752      -16.4068193232      -15.7486471492  WZ2       371             0.0000000000
      4465      1489  TIP3      OH2           -15.5391749752      -22.4457393232      -15.6409871492  WZ2       372             0.0000000000
      4466      1489  TIP3      H1            -14.6252549752      -22.3668493232      -15.3675971492  WZ2       372             0.0000000000
      4467      1489  TIP3      H2            -15.5318649752      -23.1327793232      -16.3074271492  WZ2       372             0.0000000000
      4468      1490  TIP3      OH2           -16.8901149752      -17.0528893232      -10.5635971492  WZ2       373             0.0000000000
      4469      1490  TIP3      H1            -17.5374049752      -17.5147193232      -11.0964771492  WZ2       373             0.0000000000
      4470      1490  TIP3      H2            -16.5356549752      -17.7245593232       -9.9809771492  WZ2       373             0.0000000000
      4471      1491  TIP3      OH2           -16.0201949752      -18.9721893232       -8.7589771492  WZ2       374             0.0000000000
      4472      1491  TIP3      H1            -16.3545149752      -19.8524593232       -8.5869571492  WZ2       374             0.0000000000
      4473      1491  TIP3      H2            -15.7979549752      -18.6266893232       -7.8944171492  WZ2       374             0.0000000000
      4474      1492  TIP3      OH2             1.5282850248      -18.1625493232       -5.7784971492  WZ2       375             0.0000000000
      4475      1492  TIP3      H1              1.5069550248      -17.9777093232       -4.8395571492  WZ2       375             0.0000000000
      4476      1492  TIP3      H2              2.2189050248      -17.5941493232       -6.1193571492  WZ2       375             0.0000000000
      4477      1493  TIP3      OH2             1.0915750248      -18.5954393232       -2.8565871492  WZ2       376             0.0000000000
      4478      1493  TIP3      H1              0.6044450248      -19.3310293232       -3.2278471492  WZ2       376             0.0000000000
      4479      1493  TIP3      H2              1.6408450248      -18.9890493232       -2.1786471492  WZ2       376             0.0000000000
      4480      1494  TIP3      OH2            -0.4576949752      -22.8056293232        1.7814428508  WZ2       377             0.0000000000
      4481      1494  TIP3      H1             -1.3235849752      -22.9106593232        2.1756728508  WZ2       377             0.0000000000
      4482      1494  TIP3      H2             -0.0811049752      -22.0472993232        2.2279128508  WZ2       377             0.0000000000
      4483      1495  TIP3      OH2             0.8432750248      -24.5492593232      -12.7043071492  WZ2       378             0.0000000000
      4484      1495  TIP3      H1              1.6934150248      -24.1281693232      -12.5771471492  WZ2       378             0.0000000000
      4485      1495  TIP3      H2              0.8487850248      -25.2892493232      -12.0971671492  WZ2       378             0.0000000000
      4486      1496  TIP3      OH2             1.2378350248      -26.4955193232      -10.8807371492  WZ2       379             0.0000000000
      4487      1496  TIP3      H1              0.5112950248      -26.9752593232      -10.4829771492  WZ2       379             0.0000000000
      4488      1496  TIP3      H2              1.8191650248      -26.2900493232      -10.1485771492  WZ2       379             0.0000000000
      4489      1497  TIP3      OH2             0.9969550248      -23.7107693232       -5.9329771492  WZ2       380             0.0000000000
      4490      1497  TIP3      H1              1.8303750248      -24.0887693232       -6.2136171492  WZ2       380             0.0000000000
      4491      1497  TIP3      H2              1.1089850248      -22.7676493232       -6.0520671492  WZ2       380             0.0000000000
      4492      1498  TIP3      OH2            -0.5168149752      -20.8330193232       -3.6261371492  WZ2       381             0.0000000000
      4493      1498  TIP3      H1             -1.1642849752      -20.5078693232       -3.0006171492  WZ2       381             0.0000000000
      4494      1498  TIP3      H2             -1.0344149752      -21.2732493232       -4.3003071492  WZ2       381             0.0000000000
      4495      1499  TIP3      OH2             1.5061450248      -26.5946693232      -14.4896071492  WZ2       382             0.0000000000
      4496      1499  TIP3      H1              0.9842550248      -26.2382593232      -15.2085171492  WZ2       382             0.0000000000
      4497      1499  TIP3      H2              1.4730650248      -25.9198893232      -13.8115171492  WZ2       382             0.0000000000
      4498      1500  TIP3      OH2            -0.1449549752      -29.3551093232      -15.9388971492  WZ2       383             0.0000000000
      4499      1500  TIP3      H1             -0.0485149752      -28.6884093232      -16.6189271492  WZ2       383             0.0000000000
      4500      1500  TIP3      H2             -0.2849949752      -30.1704793232      -16.4203471492  WZ2       383             0.0000000000
      4501      1501  TIP3      OH2            -0.9754849752      -27.9748693232      -10.3178671492  WZ2       384             0.0000000000
      4502      1501  TIP3      H1             -1.1256049752      -28.9200093232      -10.3380871492  WZ2       384             0.0000000000
      4503      1501  TIP3      H2             -1.3290349752      -27.6937293232       -9.4739571492  WZ2       384             0.0000000000
      4504      1502  TIP3      OH2           -15.9402449752      -25.8966493232       -6.3074871492  WZ2       385             0.0000000000
      4505      1502  TIP3      H1            -15.7559549752      -25.9784793232       -7.2431971492  WZ2       385             0.0000000000
      4506      1502  TIP3      H2            -15.0909549752      -26.0209493232       -5.8838471492  WZ2       385             0.0000000000
      4507      1503  TIP3      OH2            -0.1191949752      -26.0045393232       -0.6790371492  WZ2       386             0.0000000000
      4508      1503  TIP3      H1              0.4635350248      -26.7393093232       -0.4873171492  WZ2       386             0.0000000000
      4509      1503  TIP3      H2              0.4447350248      -25.2325093232       -0.6324571492  WZ2       386             0.0000000000
      4510      1504  TIP3      OH2             1.3775150248      -28.1019593232        0.0055028508  WZ2       387             0.0000000000
      4511      1504  TIP3      H1              0.5141850248      -28.4807493232       -0.1600271492  WZ2       387             0.0000000000
      4512      1504  TIP3      H2              1.9818850248      -28.8404793232       -0.0689171492  WZ2       387             0.0000000000
      4513      1505  TIP3      OH2            -0.8975749752      -31.9471293232      -16.8213471492  WZ2       388             0.0000000000
      4514      1505  TIP3      H1             -0.2869949752      -32.3184493232      -16.1845271492  WZ2       388             0.0000000000
      4515      1505  TIP3      H2             -1.7344249752      -32.3684393232      -16.6253471492  WZ2       388             0.0000000000
      4516      1506  TIP3      OH2            -1.2650049752      -30.3922893232      -11.8553571492  WZ2       389             0.0000000000
      4517      1506  TIP3      H1             -0.9852949752      -31.2992493232      -11.7311871492  WZ2       389             0.0000000000
      4518      1506  TIP3      H2             -0.5058349752      -29.9581393232      -12.2444371492  WZ2       389             0.0000000000
      4519      1507  TIP3      OH2            -0.6531749752      -29.8105493232       -6.4194671492  WZ2       390             0.0000000000
      4520      1507  TIP3      H1              0.2796250248      -29.5985593232       -6.4538671492  WZ2       390             0.0000000000
      4521      1507  TIP3      H2             -0.8884249752      -29.7093393232       -5.4971671492  WZ2       390             0.0000000000
      4522      1508  TIP3      OH2            -0.6239849752      -29.0740193232       -3.6435271492  WZ2       391             0.0000000000
      4523      1508  TIP3      H1             -1.4668549752      -28.8059793232       -3.2775471492  WZ2       391             0.0000000000
      4524      1508  TIP3      H2             -0.1815549752      -28.2518293232       -3.8544171492  WZ2       391             0.0000000000
      4525      1509  TIP3      OH2           -16.3427649752      -30.6261493232       -0.1666071492  WZ2       392             0.0000000000
      4526      1509  TIP3      H1            -15.4232749752      -30.7483193232        0.0697028508  WZ2       392             0.0000000000
      4527      1509  TIP3      H2            -16.7923149752      -31.3761793232        0.2227428508  WZ2       392             0.0000000000
      4528      1510  TIP3      OH2           -15.1215149752      -32.3139893232       -7.2753171492  WZ2       395             0.0000000000
      4529      1510  TIP3      H1            -14.6763549752      -33.1057393232       -6.9733471492  WZ2       395             0.0000000000
      4530      1510  TIP3      H2            -14.6552149752      -31.5974693232       -6.8447571492  WZ2       395             0.0000000000
      4531      1511  TIP3      OH2           -16.8174849752      -29.3146893232       -6.2062971492  WZ2       396             0.0000000000
      4532      1511  TIP3      H1            -16.3255049752      -29.5356393232       -6.9970971492  WZ2       396             0.0000000000
      4533      1511  TIP3      H2            -16.4553949752      -28.4743493232       -5.9253471492  WZ2       396             0.0000000000
      4534      1512  TIP3      OH2            -1.7331149752      -18.0726093232      -10.2063171492  WZ2       400             0.0000000000
      4535      1512  TIP3      H1             -1.0808249752      -18.4203993232      -10.8144071492  WZ2       400             0.0000000000
      4536      1512  TIP3      H2             -1.2227349752      -17.5842893232       -9.5603471492  WZ2       400             0.0000000000
      4537      1513  TIP3      OH2           -14.3483649752      -21.1434693232        0.3367728508  WZ2       402             0.0000000000
      4538      1513  TIP3      H1            -15.1691149752      -20.9688193232       -0.1237571492  WZ2       402             0.0000000000
      4539      1513  TIP3      H2            -14.6005849752      -21.2169993232        1.2572128508  WZ2       402             0.0000000000
      4540      1514  TIP3      OH2           -11.3940749752      -20.1693493232       -3.4048271492  WZ2       403             0.0000000000
      4541      1514  TIP3      H1            -11.8189649752      -19.3594993232       -3.6873671492  WZ2       403             0.0000000000
      4542      1514  TIP3      H2            -10.4897949752      -20.0839393232       -3.7068471492  WZ2       403             0.0000000000
      4543      1515  TIP3      OH2            -7.0829349752      -18.7703493232       -0.4454571492  WZ2       404             0.0000000000
      4544      1515  TIP3      H1             -6.8981849752      -19.1037393232        0.4325728508  WZ2       404             0.0000000000
      4545      1515  TIP3      H2             -6.2364849752      -18.4604893232       -0.7675371492  WZ2       404             0.0000000000
      4546      1516  TIP3      OH2            -4.7378949752      -17.4844593232       -1.2013171492  WZ2       405             0.0000000000
      4547      1516  TIP3      H1             -4.0610049752      -18.1172293232       -1.4413971492  WZ2       405             0.0000000000
      4548      1516  TIP3      H2             -4.4160149752      -17.0834093232       -0.3939871492  WZ2       405             0.0000000000
      4549      1517  TIP3      OH2           -13.9924049752      -16.9129593232       -3.3572971492  WZ2       407             0.0000000000
      4550      1517  TIP3      H1            -14.7127649752      -16.4728593232       -3.8085271492  WZ2       407             0.0000000000
      4551      1517  TIP3      H2            -14.3580049752      -17.1634893232       -2.5088971492  WZ2       407             0.0000000000
      4552      1518  TIP3      OH2           -11.5251449752      -17.3125693232       -4.3275771492  WZ2       408             0.0000000000
      4553      1518  TIP3      H1            -12.3899249752      -17.2407193232       -3.9235671492  WZ2       408             0.0000000000
      4554      1518  TIP3      H2            -11.5802449752      -16.7658393232       -5.1113271492  WZ2       408             0.0000000000
      4555      1519  TIP3      OH2            -6.8145849752      -17.4246793232       -5.1519771492  WZ2       409             0.0000000000
      4556      1519  TIP3      H1             -7.2711849752      -16.8957093232       -5.8061371492  WZ2       409             0.0000000000
      4557      1519  TIP3      H2             -6.6517849752      -16.8215393232       -4.4267471492  WZ2       409             0.0000000000
      4558      1520  TIP3      OH2            -4.4869549752      -18.5467193232       -4.2069471492  WZ2       410             0.0000000000
      4559      1520  TIP3      H1             -5.3915849752      -18.3816993232       -4.4727371492  WZ2       410             0.0000000000
      4560      1520  TIP3      H2             -4.0580949752      -17.6934993232       -4.2726071492  WZ2       410             0.0000000000
      4561      1521  TIP3      OH2            -1.8827649752      -16.9768093232       -3.9121671492  WZ2       411             0.0000000000
      4562      1521  TIP3      H1             -2.0645649752      -16.0609193232       -4.1226771492  WZ2       411             0.0000000000
      4563      1521  TIP3      H2             -1.7059849752      -17.3870993232       -4.7587071492  WZ2       411             0.0000000000
      4564      1522  TIP3      OH2           -14.5775949752      -18.2897093232       -6.4471171492  WZ2       412             0.0000000000
      4565      1522  TIP3      H1            -14.5959949752      -18.7151993232       -5.5898871492  WZ2       412             0.0000000000
      4566      1522  TIP3      H2            -13.7728049752      -18.6082093232       -6.8558971492  WZ2       412             0.0000000000
      4567      1523  TIP3      OH2           -12.4362849752      -19.5798393232       -7.7921271492  WZ2       413             0.0000000000
      4568      1523  TIP3      H1            -12.6552149752      -20.4960993232       -7.6225271492  WZ2       413             0.0000000000
      4569      1523  TIP3      H2            -11.6120649752      -19.4397993232       -7.3259871492  WZ2       413             0.0000000000
      4570      1524  TIP3      OH2            -9.8990349752      -19.1099093232       -6.9433271492  WZ2       414             0.0000000000
      4571      1524  TIP3      H1             -9.6864649752      -19.9980093232       -7.2302371492  WZ2       414             0.0000000000
      4572      1524  TIP3      H2             -9.8345249752      -19.1441393232       -5.9889271492  WZ2       414             0.0000000000
      4573      1525  TIP3      OH2           -15.3266249752      -19.0657893232      -13.2758871492  WZ2       423             0.0000000000
      4574      1525  TIP3      H1            -16.0116349752      -19.1038993232      -13.9433771492  WZ2       423             0.0000000000
      4575      1525  TIP3      H2            -15.3229049752      -18.1530293232      -12.9876771492  WZ2       423             0.0000000000
      4576      1526  TIP3      OH2            -6.4622749752      -17.8562993232      -14.8782671492  WZ2       426             0.0000000000
      4577      1526  TIP3      H1             -5.5962549752      -17.4895593232      -15.0564471492  WZ2       426             0.0000000000
      4578      1526  TIP3      H2             -6.7089949752      -18.2954993232      -15.6921871492  WZ2       426             0.0000000000
      4579      1527  TIP3      OH2             0.2466850248      -18.2932693232      -12.1991571492  WZ2       427             0.0000000000
      4580      1527  TIP3      H1              0.0523950248      -19.0410593232      -12.7641971492  WZ2       427             0.0000000000
      4581      1527  TIP3      H2              0.2076950248      -17.5352593232      -12.7823671492  WZ2       427             0.0000000000
      4582      1528  TIP3      OH2           -13.5085049752      -18.1457093232      -16.2506771492  WZ2       430             0.0000000000
      4583      1528  TIP3      H1            -13.7760449752      -17.8594193232      -15.3773671492  WZ2       430             0.0000000000
      4584      1528  TIP3      H2            -12.7372449752      -18.6917893232      -16.0984271492  WZ2       430             0.0000000000
      4585      1529  TIP3      OH2            -0.5356949752      -19.5420293232       -0.0489771492  WZ2       432             0.0000000000
      4586      1529  TIP3      H1             -1.3175049752      -19.7282293232       -0.5689171492  WZ2       432             0.0000000000
      4587      1529  TIP3      H2             -0.6077049752      -18.6125993232        0.1682728508  WZ2       432             0.0000000000
      4588      1530  TIP3      OH2            13.8703450248      -25.6555893232      -10.0182571492  WZ2       433             0.0000000000
      4589      1530  TIP3      H1             13.9594550248      -24.7117693232      -10.1505471492  WZ2       433             0.0000000000
      4590      1530  TIP3      H2             13.2321050248      -25.9309493232      -10.6763171492  WZ2       433             0.0000000000
      4591      1531  TIP3      OH2            12.8034750248      -26.4005193232       -6.5994371492  WZ2       434             0.0000000000
      4592      1531  TIP3      H1             12.7652250248      -27.0468893232       -5.8944771492  WZ2       434             0.0000000000
      4593      1531  TIP3      H2             12.4811250248      -26.8670793232       -7.3705671492  WZ2       434             0.0000000000
      4594      1532  TIP3      OH2             5.1719750248      -26.7863093232       -5.0064471492  WZ2       435             0.0000000000
      4595      1532  TIP3      H1              5.2131850248      -27.4119793232       -4.2832071492  WZ2       435             0.0000000000
      4596      1532  TIP3      H2              5.8747450248      -26.1624493232       -4.8244071492  WZ2       435             0.0000000000
      4597      1533  TIP3      OH2            16.5094950248      -23.4614793232       -8.2979271492  WZ2       436             0.0000000000
      4598      1533  TIP3      H1             16.0687650248      -24.1818793232       -7.8473671492  WZ2       436             0.0000000000
      4599      1533  TIP3      H2             16.4964650248      -22.7407593232       -7.6681571492  WZ2       436             0.0000000000
      4600      1534  TIP3      OH2             6.0952850248      -22.3364193232       -6.4715371492  WZ2       437             0.0000000000
      4601      1534  TIP3      H1              5.7258050248      -23.1383693232       -6.8411071492  WZ2       437             0.0000000000
      4602      1534  TIP3      H2              7.0363950248      -22.5049293232       -6.4251971492  WZ2       437             0.0000000000
      4603      1535  TIP3      OH2             2.7053350248      -28.6761593232      -11.0786571492  WZ2       438             0.0000000000
      4604      1535  TIP3      H1              2.2576750248      -27.8302893232      -11.0970071492  WZ2       438             0.0000000000
      4605      1535  TIP3      H2              2.1444550248      -29.2557393232      -11.5941471492  WZ2       438             0.0000000000
      4606      1536  TIP3      OH2             3.4159450248      -26.5141993232       -8.9528571492  WZ2       439             0.0000000000
      4607      1536  TIP3      H1              3.6292950248      -27.2840393232       -8.4255571492  WZ2       439             0.0000000000
      4608      1536  TIP3      H2              4.1537050248      -26.4245293232       -9.5560971492  WZ2       439             0.0000000000
      4609      1537  TIP3      OH2            13.6210450248      -18.3573093232       -8.0858871492  WZ2       440             0.0000000000
      4610      1537  TIP3      H1             14.2406850248      -19.0338393232       -8.3589671492  WZ2       440             0.0000000000
      4611      1537  TIP3      H2             13.4127850248      -18.5752293232       -7.1773971492  WZ2       440             0.0000000000
      4612      1538  TIP3      OH2            11.1929150248      -23.9683793232       -6.1933371492  WZ2       441             0.0000000000
      4613      1538  TIP3      H1             11.4967050248      -24.6542393232       -6.7879271492  WZ2       441             0.0000000000
      4614      1538  TIP3      H2             11.9143150248      -23.8495093232       -5.5755371492  WZ2       441             0.0000000000
      4615      1539  TIP3      OH2            19.8558950248      -32.3668493232       -5.3327171492  WZ2       442             0.0000000000
      4616      1539  TIP3      H1             19.9051150248      -31.7567293232       -4.5968071492  WZ2       442             0.0000000000
      4617      1539  TIP3      H2             20.2814050248      -31.9057593232       -6.0556071492  WZ2       442             0.0000000000
      4618      1540  TIP3      OH2            14.3336150248      -29.5741393232       -5.8658571492  WZ2       443             0.0000000000
      4619      1540  TIP3      H1             14.4762050248      -30.5204393232       -5.8456971492  WZ2       443             0.0000000000
      4620      1540  TIP3      H2             14.2275150248      -29.3671593232       -6.7943671492  WZ2       443             0.0000000000
      4621      1541  TIP3      OH2             7.4884450248      -31.4724993232       -8.5933771492  WZ2       444             0.0000000000
      4622      1541  TIP3      H1              7.5315550248      -30.6126493232       -9.0117471492  WZ2       444             0.0000000000
      4623      1541  TIP3      H2              7.0308550248      -32.0250293232       -9.2270571492  WZ2       444             0.0000000000
      4624      1542  TIP3      OH2            15.2107150248      -31.3419393232      -10.1925471492  WZ2       445             0.0000000000
      4625      1542  TIP3      H1             15.8571450248      -31.6706193232       -9.5677871492  WZ2       445             0.0000000000
      4626      1542  TIP3      H2             15.7206550248      -30.8240393232      -10.8154071492  WZ2       445             0.0000000000
      4627      1543  TIP3      OH2             4.1085950248      -29.0759193232       -7.8312371492  WZ2       446             0.0000000000
      4628      1543  TIP3      H1              4.7622550248      -29.6257493232       -7.3992271492  WZ2       446             0.0000000000
      4629      1543  TIP3      H2              4.1325250248      -29.3500193232       -8.7480371492  WZ2       446             0.0000000000
      4630      1544  TIP3      OH2             9.2650450248      -27.5257893232       -8.6160871492  WZ2       447             0.0000000000
      4631      1544  TIP3      H1              9.8811450248      -28.0522493232       -8.1066871492  WZ2       447             0.0000000000
      4632      1544  TIP3      H2              8.6789250248      -28.1659193232       -9.0197271492  WZ2       447             0.0000000000
      4633      1545  TIP3      OH2            20.2473550248      -30.8889293232       -3.0967371492  WZ2       448             0.0000000000
      4634      1545  TIP3      H1             19.5588150248      -30.2308593232       -3.1920771492  WZ2       448             0.0000000000
      4635      1545  TIP3      H2             20.2628150248      -31.0861393232       -2.1601971492  WZ2       448             0.0000000000
      4636      1546  TIP3      OH2             6.2986350248      -32.5546593232       -4.5192971492  WZ2       449             0.0000000000
      4637      1546  TIP3      H1              6.0798050248      -32.0245993232       -5.2856971492  WZ2       449             0.0000000000
      4638      1546  TIP3      H2              5.6307250248      -32.3281093232       -3.8721571492  WZ2       449             0.0000000000
      4639      1547  TIP3      OH2            13.6676150248      -23.0545493232      -10.9753871492  WZ2       450             0.0000000000
      4640      1547  TIP3      H1             13.3721250248      -23.3773193232      -11.8266971492  WZ2       450             0.0000000000
      4641      1547  TIP3      H2             13.3433950248      -22.1548793232      -10.9341271492  WZ2       450             0.0000000000
      4642      1548  TIP3      OH2             8.8677750248      -24.8790893232       -4.2319271492  WZ2       451             0.0000000000
      4643      1548  TIP3      H1              8.1276850248      -24.2809393232       -4.1284071492  WZ2       451             0.0000000000
      4644      1548  TIP3      H2              9.5817250248      -24.3251293232       -4.5475671492  WZ2       451             0.0000000000
      4645      1549  TIP3      OH2            16.9745550248      -32.0510093232       -8.2119571492  WZ2       452             0.0000000000
      4646      1549  TIP3      H1             16.7593550248      -32.8166693232       -7.6793571492  WZ2       452             0.0000000000
      4647      1549  TIP3      H2             17.6302950248      -31.5785493232       -7.6991071492  WZ2       452             0.0000000000
      4648      1550  TIP3      OH2             5.8923650248      -30.6624793232       -6.5670771492  WZ2       453             0.0000000000
      4649      1550  TIP3      H1              6.5059950248      -30.0297193232       -6.1938371492  WZ2       453             0.0000000000
      4650      1550  TIP3      H2              6.4044350248      -31.1349793232       -7.2233871492  WZ2       453             0.0000000000
      4651      1551  TIP3      OH2             7.2752050248      -22.9147893232       -3.4447771492  WZ2       454             0.0000000000
      4652      1551  TIP3      H1              7.2699650248      -22.0354393232       -3.8228471492  WZ2       454             0.0000000000
      4653      1551  TIP3      H2              6.4216150248      -22.9983793232       -3.0197871492  WZ2       454             0.0000000000
      4654      1552  TIP3      OH2             3.3962950248      -23.2439993232      -12.6628471492  WZ2       455             0.0000000000
      4655      1552  TIP3      H1              3.1243850248      -23.0148993232      -13.5515571492  WZ2       455             0.0000000000
      4656      1552  TIP3      H2              3.4418650248      -22.4061193232      -12.2023171492  WZ2       455             0.0000000000
      4657      1553  TIP3      OH2            17.0212650248      -21.6224093232       -5.9499971492  WZ2       456             0.0000000000
      4658      1553  TIP3      H1             16.0796350248      -21.5640193232       -5.7883071492  WZ2       456             0.0000000000
      4659      1553  TIP3      H2             17.2978750248      -20.7163593232       -6.0870271492  WZ2       456             0.0000000000
      4660      1554  TIP3      OH2            15.2733850248      -19.8410593232       -9.3248371492  WZ2       459             0.0000000000
      4661      1554  TIP3      H1             15.6986150248      -20.5482693232       -9.8098771492  WZ2       459             0.0000000000
      4662      1554  TIP3      H2             15.5903850248      -19.0397893232       -9.7416171492  WZ2       459             0.0000000000
      4663      1555  TIP3      OH2            16.4330350248      -21.9402093232      -10.8161771492  WZ2       460             0.0000000000
      4664      1555  TIP3      H1             16.1755150248      -22.6301993232      -11.4275871492  WZ2       460             0.0000000000
      4665      1555  TIP3      H2             16.5041150248      -22.3830893232       -9.9705871492  WZ2       460             0.0000000000
      4666      1556  TIP3      OH2            18.1190550248      -23.3735393232       -2.3388271492  WZ2       461             0.0000000000
      4667      1556  TIP3      H1             18.2586850248      -23.9652893232       -3.0781271492  WZ2       461             0.0000000000
      4668      1556  TIP3      H2             18.2863350248      -22.5009493232       -2.6949471492  WZ2       461             0.0000000000
      4669      1557  TIP3      OH2            12.5915950248      -26.4115893232      -12.5662271492  WZ2       462             0.0000000000
      4670      1557  TIP3      H1             11.8801450248      -25.8766193232      -12.9181771492  WZ2       462             0.0000000000
      4671      1557  TIP3      H2             13.2825550248      -26.3563793232      -13.2263371492  WZ2       462             0.0000000000
      4672      1558  TIP3      OH2            12.6455150248      -27.9541593232      -15.5277271492  WZ2       463             0.0000000000
      4673      1558  TIP3      H1             13.3465050248      -27.9314693232      -14.8763271492  WZ2       463             0.0000000000
      4674      1558  TIP3      H2             12.9478050248      -28.5821893232      -16.1837971492  WZ2       463             0.0000000000
      4675      1559  TIP3      OH2            19.9609850248      -27.0337393232       -4.2727871492  WZ2       464             0.0000000000
      4676      1559  TIP3      H1             19.3083950248      -26.3391793232       -4.1836971492  WZ2       464             0.0000000000
      4677      1559  TIP3      H2             20.4260150248      -26.8236493232       -5.0826271492  WZ2       464             0.0000000000
      4678      1560  TIP3      OH2            15.9973650248      -26.2022593232      -11.6146371492  WZ2       465             0.0000000000
      4679      1560  TIP3      H1             15.2654650248      -25.9738893232      -11.0415771492  WZ2       465             0.0000000000
      4680      1560  TIP3      H2             16.4445850248      -26.9159893232      -11.1598871492  WZ2       465             0.0000000000
      4681      1561  TIP3      OH2            15.8947150248      -28.0279993232       -2.5469371492  WZ2       466             0.0000000000
      4682      1561  TIP3      H1             15.9746250248      -27.2645593232       -1.9750871492  WZ2       466             0.0000000000
      4683      1561  TIP3      H2             15.2934850248      -27.7487593232       -3.2374271492  WZ2       466             0.0000000000
      4684      1562  TIP3      OH2             7.6427350248      -25.5716393232       -9.7321371492  WZ2       467             0.0000000000
      4685      1562  TIP3      H1              7.3122550248      -25.9422993232      -10.5504371492  WZ2       467             0.0000000000
      4686      1562  TIP3      H2              8.2311450248      -26.2422393232       -9.3853071492  WZ2       467             0.0000000000
      4687      1563  TIP3      OH2             9.0094850248      -22.1435793232       -7.0509171492  WZ2       468             0.0000000000
      4688      1563  TIP3      H1              8.9146150248      -22.7222693232       -7.8074571492  WZ2       468             0.0000000000
      4689      1563  TIP3      H2              9.7388450248      -22.5150093232       -6.5546371492  WZ2       468             0.0000000000
      4690      1564  TIP3      OH2             8.0092850248      -26.8030793232       -6.0986371492  WZ2       469             0.0000000000
      4691      1564  TIP3      H1              8.5745350248      -26.6816593232       -6.8615171492  WZ2       469             0.0000000000
      4692      1564  TIP3      H2              8.3281750248      -26.1655793232       -5.4597871492  WZ2       469             0.0000000000
      4693      1565  TIP3      OH2            14.3185050248      -21.2998893232       -5.3645871492  WZ2       470             0.0000000000
      4694      1565  TIP3      H1             14.0781650248      -20.6375793232       -4.7166671492  WZ2       470             0.0000000000
      4695      1565  TIP3      H2             14.1203250248      -22.1343693232       -4.9396271492  WZ2       470             0.0000000000
      4696      1566  TIP3      OH2             8.8893550248      -22.4038093232       -1.3814471492  WZ2       471             0.0000000000
      4697      1566  TIP3      H1              8.5781050248      -21.6214893232       -0.9261271492  WZ2       471             0.0000000000
      4698      1566  TIP3      H2              8.2393750248      -22.5568993232       -2.0672471492  WZ2       471             0.0000000000
      4699      1567  TIP3      OH2            14.8683150248      -27.0399693232      -13.9295171492  WZ2       472             0.0000000000
      4700      1567  TIP3      H1             15.4478650248      -26.8899393232      -13.1826271492  WZ2       472             0.0000000000
      4701      1567  TIP3      H2             15.2823150248      -26.5692293232      -14.6528771492  WZ2       472             0.0000000000
      4702      1568  TIP3      OH2             5.8093450248      -26.2056993232       -2.1528771492  WZ2       473             0.0000000000
      4703      1568  TIP3      H1              5.8796650248      -25.5550193232       -1.4543771492  WZ2       473             0.0000000000
      4704      1568  TIP3      H2              4.9185650248      -26.1029493232       -2.4877871492  WZ2       473             0.0000000000
      4705      1569  TIP3      OH2            12.5948050248      -20.3031193232      -10.4942071492  WZ2       474             0.0000000000
      4706      1569  TIP3      H1             13.0685650248      -20.0074893232       -9.7167871492  WZ2       474             0.0000000000
      4707      1569  TIP3      H2             12.0317350248      -19.5649593232      -10.7272471492  WZ2       474             0.0000000000
      4708      1570  TIP3      OH2             7.1289450248      -20.3323093232       -0.6180671492  WZ2       475             0.0000000000
      4709      1570  TIP3      H1              7.1364750248      -20.4683393232       -1.5655171492  WZ2       475             0.0000000000
      4710      1570  TIP3      H2              6.2129850248      -20.4494993232       -0.3660671492  WZ2       475             0.0000000000
      4711      1571  TIP3      OH2             6.6330050248      -26.5022093232      -12.1428571492  WZ2       477             0.0000000000
      4712      1571  TIP3      H1              6.3411350248      -25.7340393232      -12.6337271492  WZ2       477             0.0000000000
      4713      1571  TIP3      H2              5.9585250248      -27.1615893232      -12.3057171492  WZ2       477             0.0000000000
      4714      1572  TIP3      OH2            19.7562950248      -20.9236893232      -15.7401571492  WZ2       478             0.0000000000
      4715      1572  TIP3      H1             19.8296450248      -19.9846693232      -15.5696271492  WZ2       478             0.0000000000
      4716      1572  TIP3      H2             20.6618050248      -21.2288293232      -15.7964271492  WZ2       478             0.0000000000
      4717      1573  TIP3      OH2             2.7260150248      -24.1392893232       -3.3278771492  WZ2       479             0.0000000000
      4718      1573  TIP3      H1              2.2248550248      -24.1673493232       -4.1429071492  WZ2       479             0.0000000000
      4719      1573  TIP3      H2              2.7313850248      -25.0449693232       -3.0181471492  WZ2       479             0.0000000000
      4720      1574  TIP3      OH2             2.4762850248      -21.3589093232       -6.4438571492  WZ2       480             0.0000000000
      4721      1574  TIP3      H1              3.4223450248      -21.5032093232       -6.4629071492  WZ2       480             0.0000000000
      4722      1574  TIP3      H2              2.3639150248      -20.5746293232       -5.9067371492  WZ2       480             0.0000000000
      4723      1575  TIP3      OH2            20.6741350248      -20.6929393232       -0.7614871492  WZ2       481             0.0000000000
      4724      1575  TIP3      H1             20.6248150248      -21.6481293232       -0.7987271492  WZ2       481             0.0000000000
      4725      1575  TIP3      H2             19.8473650248      -20.4254093232       -0.3601071492  WZ2       481             0.0000000000
      4726      1576  TIP3      OH2            11.6525350248      -21.1190193232       -1.8853471492  WZ2       482             0.0000000000
      4727      1576  TIP3      H1             11.7399950248      -20.2925593232       -1.4104371492  WZ2       482             0.0000000000
      4728      1576  TIP3      H2             10.7890450248      -21.4486393232       -1.6364171492  WZ2       482             0.0000000000
      4729      1577  TIP3      OH2            12.0671150248      -17.3466493232      -12.0792871492  WZ2       483             0.0000000000
      4730      1577  TIP3      H1             11.9917150248      -17.4679293232      -13.0257671492  WZ2       483             0.0000000000
      4731      1577  TIP3      H2             12.0999850248      -16.3973793232      -11.9608271492  WZ2       483             0.0000000000
      4732      1578  TIP3      OH2             5.7204950248      -18.5579493232      -10.2983871492  WZ2       484             0.0000000000
      4733      1578  TIP3      H1              5.8725350248      -18.9059093232       -9.4197371492  WZ2       484             0.0000000000
      4734      1578  TIP3      H2              4.8695350248      -18.9142193232      -10.5536671492  WZ2       484             0.0000000000
      4735      1579  TIP3      OH2            15.1687150248      -18.1926293232      -15.0770471492  WZ2       485             0.0000000000
      4736      1579  TIP3      H1             15.5435550248      -18.9370193232      -15.5477871492  WZ2       485             0.0000000000
      4737      1579  TIP3      H2             15.1730850248      -18.4625693232      -14.1587171492  WZ2       485             0.0000000000
      4738      1580  TIP3      OH2            14.8375250248      -18.2669193232      -12.3278271492  WZ2       486             0.0000000000
      4739      1580  TIP3      H1             13.9025050248      -18.1667293232      -12.1491271492  WZ2       486             0.0000000000
      4740      1580  TIP3      H2             15.1177150248      -18.9763193232      -11.7495071492  WZ2       486             0.0000000000
      4741      1581  TIP3      OH2            17.8261150248      -29.1996893232       -0.2812671492  WZ2       487             0.0000000000
      4742      1581  TIP3      H1             17.4187950248      -28.7191293232       -1.0019371492  WZ2       487             0.0000000000
      4743      1581  TIP3      H2             17.8666850248      -30.1050893232       -0.5891871492  WZ2       487             0.0000000000
      4744      1582  TIP3      OH2             4.9750650248      -22.8157493232       -2.2845971492  WZ2       488             0.0000000000
      4745      1582  TIP3      H1              5.1911950248      -23.1771893232       -1.4250171492  WZ2       488             0.0000000000
      4746      1582  TIP3      H2              4.1195350248      -23.1903693232       -2.4942471492  WZ2       488             0.0000000000
      4747      1583  TIP3      OH2            15.5831350248      -30.8681393232       -2.0610271492  WZ2       491             0.0000000000
      4748      1583  TIP3      H1             15.0690850248      -30.9939193232       -1.2634271492  WZ2       491             0.0000000000
      4749      1583  TIP3      H2             15.4276050248      -29.9558293232       -2.3054071492  WZ2       491             0.0000000000
      4750      1584  TIP3      OH2            16.3456250248      -26.0071393232      -16.2997271492  WZ2       492             0.0000000000
      4751      1584  TIP3      H1             16.3877050248      -26.2297493232      -17.2297271492  WZ2       492             0.0000000000
      4752      1584  TIP3      H2             17.1948350248      -25.6084293232      -16.1097371492  WZ2       492             0.0000000000
      4753      1585  TIP3      OH2             7.6848750248      -29.3802493232       -5.1941571492  WZ2       494             0.0000000000
      4754      1585  TIP3      H1              7.0430850248      -29.4205193232       -4.4851471492  WZ2       494             0.0000000000
      4755      1585  TIP3      H2              7.7220750248      -28.4537793232       -5.4318571492  WZ2       494             0.0000000000
      4756      1586  TIP3      OH2             7.6817850248      -29.1592393232      -10.2821571492  WZ2       495             0.0000000000
      4757      1586  TIP3      H1              6.7890750248      -29.4996293232      -10.3407771492  WZ2       495             0.0000000000
      4758      1586  TIP3      H2              8.1324450248      -29.5361493232      -11.0378371492  WZ2       495             0.0000000000
      4759      1587  TIP3      OH2            13.2173350248      -28.7432093232      -11.4650771492  WZ2       496             0.0000000000
      4760      1587  TIP3      H1             12.8083650248      -27.9283493232      -11.7565971492  WZ2       496             0.0000000000
      4761      1587  TIP3      H2             13.9379550248      -28.8831993232      -12.0793671492  WZ2       496             0.0000000000
      4762      1588  TIP3      OH2            12.3194950248      -28.5675693232        0.0229928508  WZ2       497             0.0000000000
      4763      1588  TIP3      H1             11.7568750248      -29.2724093232        0.3437728508  WZ2       497             0.0000000000
      4764      1588  TIP3      H2             13.1458350248      -28.6883793232        0.4907528508  WZ2       497             0.0000000000
      4765      1589  TIP3      OH2            14.2221050248      -29.2971693232       -8.6511071492  WZ2       498             0.0000000000
      4766      1589  TIP3      H1             14.0265550248      -28.6914893232       -9.3660471492  WZ2       498             0.0000000000
      4767      1589  TIP3      H2             14.4033650248      -30.1306493232       -9.0854771492  WZ2       498             0.0000000000
      4768      1590  TIP3      OH2             5.4349250248      -29.0598993232       -3.3269571492  WZ2       499             0.0000000000
      4769      1590  TIP3      H1              5.3968650248      -28.6597393232       -2.4582471492  WZ2       499             0.0000000000
      4770      1590  TIP3      H2              4.9440350248      -29.8766593232       -3.2366671492  WZ2       499             0.0000000000
      4771      1591  TIP3      OH2             8.8006650248      -31.6856693232      -16.5283571492  WZ2       500             0.0000000000
      4772      1591  TIP3      H1              8.3697350248      -32.1306593232      -15.7986171492  WZ2       500             0.0000000000
      4773      1591  TIP3      H2              8.0825350248      -31.3140393232      -17.0406071492  WZ2       500             0.0000000000
      4774      1592  TIP3      OH2             2.0430050248      -31.9437193232       -9.4764871492  WZ2       501             0.0000000000
      4775      1592  TIP3      H1              2.6737750248      -31.9725093232       -8.7570971492  WZ2       501             0.0000000000
      4776      1592  TIP3      H2              2.4924350248      -32.3688493232      -10.2068971492  WZ2       501             0.0000000000
      4777      1593  TIP3      OH2             3.3172150248      -31.1975193232      -14.0524471492  WZ2       502             0.0000000000
      4778      1593  TIP3      H1              3.7913850248      -30.6065293232      -14.6373571492  WZ2       502             0.0000000000
      4779      1593  TIP3      H2              2.5998550248      -30.6672293232      -13.7054371492  WZ2       502             0.0000000000
      4780      1594  TIP3      OH2            13.4860250248      -27.6590393232       -3.9798671492  WZ2       503             0.0000000000
      4781      1594  TIP3      H1             13.8095050248      -28.2900693232       -4.6228171492  WZ2       503             0.0000000000
      4782      1594  TIP3      H2             13.0459550248      -28.1938193232       -3.3191271492  WZ2       503             0.0000000000
      4783      1595  TIP3      OH2            10.2633150248      -31.7314893232       -9.1957471492  WZ2       504             0.0000000000
      4784      1595  TIP3      H1              9.3524250248      -31.6748093232       -8.9071471492  WZ2       504             0.0000000000
      4785      1595  TIP3      H2             10.7686050248      -31.7919393232       -8.3850271492  WZ2       504             0.0000000000
      4786      1596  TIP3      OH2             5.0916550248      -30.1028593232      -10.3689871492  WZ2       505             0.0000000000
      4787      1596  TIP3      H1              4.2024550248      -30.0033093232      -10.7090271492  WZ2       505             0.0000000000
      4788      1596  TIP3      H2              5.3881450248      -30.9445593232      -10.7151971492  WZ2       505             0.0000000000
      4789      1597  TIP3      OH2             8.7448350248      -30.1025993232      -12.7125271492  WZ2       506             0.0000000000
      4790      1597  TIP3      H1              9.6763850248      -29.9735993232      -12.5342171492  WZ2       506             0.0000000000
      4791      1597  TIP3      H2              8.5298650248      -29.4331693232      -13.3620571492  WZ2       506             0.0000000000
      4792      1598  TIP3      OH2             7.4188550248      -28.9083793232      -15.1459171492  WZ2       508             0.0000000000
      4793      1598  TIP3      H1              6.8763650248      -29.2879993232      -15.8371571492  WZ2       508             0.0000000000
      4794      1598  TIP3      H2              8.2523450248      -28.7139093232      -15.5745071492  WZ2       508             0.0000000000
      4795      1599  TIP3      OH2            17.9560150248      -16.8253193232        0.3451928508  WZ2       509             0.0000000000
      4796      1599  TIP3      H1             18.1558850248      -16.4011293232       -0.4892771492  WZ2       509             0.0000000000
      4797      1599  TIP3      H2             18.6113850248      -16.4814993232        0.9522328508  WZ2       509             0.0000000000
      4798      1600  TIP3      OH2             5.5539950248      -24.3511893232       -0.0467571492  WZ2       510             0.0000000000
      4799      1600  TIP3      H1              6.2862350248      -24.0965993232        0.5146928508  WZ2       510             0.0000000000
      4800      1600  TIP3      H2              4.7738650248      -24.1466493232        0.4687828508  WZ2       510             0.0000000000
      4801      1601  TIP3      OH2            11.5832850248      -28.9441893232       -7.3087871492  WZ2       511             0.0000000000
      4802      1601  TIP3      H1             12.1476250248      -29.4905293232       -7.8558271492  WZ2       511             0.0000000000
      4803      1601  TIP3      H2             11.4356250248      -29.4659993232       -6.5200271492  WZ2       511             0.0000000000
      4804      1602  TIP3      OH2            10.2098750248      -30.5555793232       -4.8947471492  WZ2       513             0.0000000000
      4805      1602  TIP3      H1              9.3744050248      -30.1016293232       -4.7845071492  WZ2       513             0.0000000000
      4806      1602  TIP3      H2             10.7339350248      -30.2797293232       -4.1427571492  WZ2       513             0.0000000000
      4807      1603  TIP3      OH2            10.7541350248      -24.3428093232      -13.2101071492  WZ2       514             0.0000000000
      4808      1603  TIP3      H1             10.0092350248      -24.8502793232      -13.5323171492  WZ2       514             0.0000000000
      4809      1603  TIP3      H2             10.6198550248      -24.2940093232      -12.2636271492  WZ2       514             0.0000000000
      4810      1604  TIP3      OH2            17.9040250248      -25.2099893232       -4.4233471492  WZ2       515             0.0000000000
      4811      1604  TIP3      H1             18.5459050248      -24.7533593232       -4.9671271492  WZ2       515             0.0000000000
      4812      1604  TIP3      H2             17.0737150248      -25.0967493232       -4.8859371492  WZ2       515             0.0000000000
      4813      1605  TIP3      OH2            14.6518150248      -31.5288193232      -15.0108471492  WZ2       516             0.0000000000
      4814      1605  TIP3      H1             13.7132350248      -31.4172593232      -15.1619671492  WZ2       516             0.0000000000
      4815      1605  TIP3      H2             14.9490250248      -30.6721293232      -14.7042771492  WZ2       516             0.0000000000
      4816      1606  TIP3      OH2            12.2733450248      -24.1584793232       -1.9731971492  WZ2       517             0.0000000000
      4817      1606  TIP3      H1             11.9279550248      -24.5402393232       -1.1662371492  WZ2       517             0.0000000000
      4818      1606  TIP3      H2             12.0733550248      -23.2251193232       -1.9019071492  WZ2       517             0.0000000000
      4819      1607  TIP3      OH2            15.3701650248      -29.6615493232      -13.3501071492  WZ2       518             0.0000000000
      4820      1607  TIP3      H1             16.2620650248      -29.7990493232      -13.0309871492  WZ2       518             0.0000000000
      4821      1607  TIP3      H2             15.4265250248      -28.8709393232      -13.8867571492  WZ2       518             0.0000000000
      4822      1608  TIP3      OH2             5.8789650248      -25.0478093232       -7.4403171492  WZ2       519             0.0000000000
      4823      1608  TIP3      H1              6.6236850248      -25.0502393232       -8.0416671492  WZ2       519             0.0000000000
      4824      1608  TIP3      H2              5.9566250248      -25.8714293232       -6.9588071492  WZ2       519             0.0000000000
      4825      1609  TIP3      OH2            12.8795450248      -22.8843793232      -14.1846471492  WZ2       520             0.0000000000
      4826      1609  TIP3      H1             12.5843850248      -22.0575893232      -13.8031671492  WZ2       520             0.0000000000
      4827      1609  TIP3      H2             12.1765450248      -23.5036893232      -13.9885071492  WZ2       520             0.0000000000
      4828      1610  TIP3      OH2             2.8869350248      -26.5871193232       -2.1254671492  WZ2       521             0.0000000000
      4829      1610  TIP3      H1              3.1097950248      -27.0051593232       -1.2937171492  WZ2       521             0.0000000000
      4830      1610  TIP3      H2              2.2849450248      -27.1996193232       -2.5481871492  WZ2       521             0.0000000000
      4831      1611  TIP3      OH2             9.9034250248      -27.0701293232        0.0875028508  WZ2       522             0.0000000000
      4832      1611  TIP3      H1              9.6075050248      -27.2358293232       -0.8075871492  WZ2       522             0.0000000000
      4833      1611  TIP3      H2             10.8349450248      -27.2900993232        0.0768928508  WZ2       522             0.0000000000
      4834      1612  TIP3      OH2            14.5237050248      -21.6969293232       -2.0226971492  WZ2       523             0.0000000000
      4835      1612  TIP3      H1             13.6231350248      -21.5136693232       -2.2903071492  WZ2       523             0.0000000000
      4836      1612  TIP3      H2             14.5578150248      -21.4379993232       -1.1018171492  WZ2       523             0.0000000000
      4837      1613  TIP3      OH2            20.2550350248      -29.4521393232      -13.6554371492  WZ2       524             0.0000000000
      4838      1613  TIP3      H1             19.7006650248      -29.8483393232      -14.3276871492  WZ2       524             0.0000000000
      4839      1613  TIP3      H2             20.3553950248      -28.5416193232      -13.9331071492  WZ2       524             0.0000000000
      4840      1614  TIP3      OH2            20.2182350248      -23.6519693232       -0.8182871492  WZ2       525             0.0000000000
      4841      1614  TIP3      H1             19.3670850248      -23.4135893232       -1.1856471492  WZ2       525             0.0000000000
      4842      1614  TIP3      H2             20.8085750248      -23.6686493232       -1.5715771492  WZ2       525             0.0000000000
      4843      1615  TIP3      OH2            18.5502050248      -20.6660993232      -13.1902271492  WZ2       526             0.0000000000
      4844      1615  TIP3      H1             18.1773150248      -21.4917193232      -12.8811671492  WZ2       526             0.0000000000
      4845      1615  TIP3      H2             18.8275550248      -20.8491593232      -14.0878871492  WZ2       526             0.0000000000
      4846      1616  TIP3      OH2            15.7105950248      -25.8581493232       -6.1690371492  WZ2       527             0.0000000000
      4847      1616  TIP3      H1             14.7822850248      -26.0899593232       -6.1961071492  WZ2       527             0.0000000000
      4848      1616  TIP3      H2             16.1617050248      -26.6351693232       -6.4991571492  WZ2       527             0.0000000000
      4849      1617  TIP3      OH2             8.2539050248      -21.5299893232      -10.0361671492  WZ2       528             0.0000000000
      4850      1617  TIP3      H1              8.7811250248      -20.7565493232      -10.2362871492  WZ2       528             0.0000000000
      4851      1617  TIP3      H2              7.3737550248      -21.3050693232      -10.3377671492  WZ2       528             0.0000000000
      4852      1618  TIP3      OH2             4.0086750248      -26.6675793232      -15.4489271492  WZ2       529             0.0000000000
      4853      1618  TIP3      H1              4.6246650248      -26.0408593232      -15.0694471492  WZ2       529             0.0000000000
      4854      1618  TIP3      H2              3.1469350248      -26.3515993232      -15.1772771492  WZ2       529             0.0000000000
      4855      1619  TIP3      OH2             9.6811350248      -23.8669993232      -10.4597371492  WZ2       530             0.0000000000
      4856      1619  TIP3      H1              9.4401350248      -22.9415593232      -10.4182071492  WZ2       530             0.0000000000
      4857      1619  TIP3      H2              8.9404950248      -24.3258693232      -10.0633471492  WZ2       530             0.0000000000
      4858      1620  TIP3      OH2            10.1957950248      -19.7176393232       -4.1446271492  WZ2       531             0.0000000000
      4859      1620  TIP3      H1             10.5582650248      -18.8630793232       -4.3781871492  WZ2       531             0.0000000000
      4860      1620  TIP3      H2             10.7273150248      -20.0094793232       -3.4039971492  WZ2       531             0.0000000000
      4861      1621  TIP3      OH2             8.3642150248      -18.8452393232      -10.9145171492  WZ2       532             0.0000000000
      4862      1621  TIP3      H1              7.4142650248      -18.7394993232      -10.8631871492  WZ2       532             0.0000000000
      4863      1621  TIP3      H2              8.7160250248      -18.0244993232      -10.5697671492  WZ2       532             0.0000000000
      4864      1622  TIP3      OH2            13.7398750248      -23.6185693232       -4.4440671492  WZ2       533             0.0000000000
      4865      1622  TIP3      H1             13.3140050248      -23.8463993232       -3.6176671492  WZ2       533             0.0000000000
      4866      1622  TIP3      H2             14.3204550248      -24.3573893232       -4.6265371492  WZ2       533             0.0000000000
      4867      1623  TIP3      OH2            15.9427650248      -22.6895193232      -15.3701671492  WZ2       534             0.0000000000
      4868      1623  TIP3      H1             16.2960750248      -23.0695393232      -14.5658171492  WZ2       534             0.0000000000
      4869      1623  TIP3      H2             14.9941150248      -22.7830393232      -15.2832371492  WZ2       534             0.0000000000
      4870      1624  TIP3      OH2            16.3982950248      -19.0666193232       -1.9745871492  WZ2       535             0.0000000000
      4871      1624  TIP3      H1             15.7966150248      -19.6223293232       -2.4699571492  WZ2       535             0.0000000000
      4872      1624  TIP3      H2             16.6796650248      -18.3996393232       -2.6008471492  WZ2       535             0.0000000000
      4873      1625  TIP3      OH2            20.4462050248      -18.2102693232      -15.1691471492  WZ2       536             0.0000000000
      4874      1625  TIP3      H1             21.1899950248      -17.6242193232      -15.3089871492  WZ2       536             0.0000000000
      4875      1625  TIP3      H2             19.7520150248      -17.6416893232      -14.8359071492  WZ2       536             0.0000000000
      4876      1626  TIP3      OH2             4.5208850248      -31.8338493232       -2.5673271492  WZ2       537             0.0000000000
      4877      1626  TIP3      H1              3.6281150248      -31.4953093232       -2.6349271492  WZ2       537             0.0000000000
      4878      1626  TIP3      H2              4.4221650248      -32.6892393232       -2.1492471492  WZ2       537             0.0000000000
      4879      1627  TIP3      OH2            16.8086950248      -24.0173193232      -13.1433771492  WZ2       538             0.0000000000
      4880      1627  TIP3      H1             16.5314550248      -24.7453893232      -12.5872671492  WZ2       538             0.0000000000
      4881      1627  TIP3      H2             17.7359950248      -23.8981193232      -12.9381171492  WZ2       538             0.0000000000
      4882      1628  TIP3      OH2             4.1720850248      -20.0294093232       -4.1323871492  WZ2       539             0.0000000000
      4883      1628  TIP3      H1              4.3891150248      -20.9611693232       -4.1634171492  WZ2       539             0.0000000000
      4884      1628  TIP3      H2              4.4184350248      -19.7549093232       -3.2491071492  WZ2       539             0.0000000000
      4885      1629  TIP3      OH2            10.0335450248      -21.5779093232      -16.9231671492  WZ2       540             0.0000000000
      4886      1629  TIP3      H1             10.2725250248      -22.3260993232      -17.4702771492  WZ2       540             0.0000000000
      4887      1629  TIP3      H2              9.7646750248      -21.9657393232      -16.0903871492  WZ2       540             0.0000000000
      4888      1630  TIP3      OH2             8.9706050248      -22.0075293232      -14.4669071492  WZ2       541             0.0000000000
      4889      1630  TIP3      H1              9.1174050248      -22.5275493232      -13.6768171492  WZ2       541             0.0000000000
      4890      1630  TIP3      H2              8.9677750248      -21.1007693232      -14.1603171492  WZ2       541             0.0000000000
      4891      1631  TIP3      OH2             5.4237150248      -24.7551993232      -13.9563671492  WZ2       542             0.0000000000
      4892      1631  TIP3      H1              4.7376450248      -24.4029493232      -13.3893971492  WZ2       542             0.0000000000
      4893      1631  TIP3      H2              5.9465050248      -23.9922393232      -14.2029371492  WZ2       542             0.0000000000
      4894      1632  TIP3      OH2            13.2552250248      -32.0928193232       -3.6774671492  WZ2       543             0.0000000000
      4895      1632  TIP3      H1             13.9540150248      -32.0189493232       -3.0274971492  WZ2       543             0.0000000000
      4896      1632  TIP3      H2             12.8743650248      -32.9573193232       -3.5231771492  WZ2       543             0.0000000000
      4897      1633  TIP3      OH2            14.0397150248      -32.4406493232      -12.5802371492  WZ2       544             0.0000000000
      4898      1633  TIP3      H1             14.2595450248      -31.9691093232      -13.3836971492  WZ2       544             0.0000000000
      4899      1633  TIP3      H2             14.5981150248      -32.0463893232      -11.9101771492  WZ2       544             0.0000000000
      4900      1634  TIP3      OH2            11.7083250248      -20.3101693232      -13.7174871492  WZ2       545             0.0000000000
      4901      1634  TIP3      H1             10.8919350248      -19.8131993232      -13.6650571492  WZ2       545             0.0000000000
      4902      1634  TIP3      H2             12.2379550248      -19.8348193232      -14.3576071492  WZ2       545             0.0000000000
      4903      1635  TIP3      OH2            11.2397050248      -30.7127693232      -11.7453971492  WZ2       546             0.0000000000
      4904      1635  TIP3      H1             12.0519650248      -30.2084493232      -11.6992271492  WZ2       546             0.0000000000
      4905      1635  TIP3      H2             10.9950050248      -30.8577993232      -10.8314371492  WZ2       546             0.0000000000
      4906      1636  TIP3      OH2            11.7753450248      -29.7264993232       -2.5607371492  WZ2       547             0.0000000000
      4907      1636  TIP3      H1             11.8943750248      -29.1529593232       -1.8036971492  WZ2       547             0.0000000000
      4908      1636  TIP3      H2             12.4308050248      -30.4145593232       -2.4459571492  WZ2       547             0.0000000000
      4909      1637  TIP3      OH2             9.0466350248      -19.2664493232      -13.7357971492  WZ2       549             0.0000000000
      4910      1637  TIP3      H1              9.2075050248      -18.4666993232      -14.2365371492  WZ2       549             0.0000000000
      4911      1637  TIP3      H2              8.8494150248      -18.9598493232      -12.8507371492  WZ2       549             0.0000000000
      4912      1638  TIP3      OH2             7.7810750248      -32.5685293232      -14.1200371492  WZ2       550             0.0000000000
      4913      1638  TIP3      H1              7.6975550248      -31.6802193232      -13.7733971492  WZ2       550             0.0000000000
      4914      1638  TIP3      H2              8.6711050248      -32.8338593232      -13.8883571492  WZ2       550             0.0000000000
      4915      1639  TIP3      OH2            17.9799250248      -31.8194693232       -1.7257671492  WZ2       551             0.0000000000
      4916      1639  TIP3      H1             17.0635050248      -31.5572993232       -1.8133971492  WZ2       551             0.0000000000
      4917      1639  TIP3      H2             18.3154250248      -31.8225693232       -2.6222371492  WZ2       551             0.0000000000
      4918      1640  TIP3      OH2            16.5820250248      -28.0693693232       -7.6300371492  WZ2       552             0.0000000000
      4919      1640  TIP3      H1             15.7844650248      -28.4843493232       -7.9585371492  WZ2       552             0.0000000000
      4920      1640  TIP3      H2             17.0271350248      -28.7599993232       -7.1389871492  WZ2       552             0.0000000000
      4921      1641  TIP3      OH2             6.0396050248      -22.1413093232      -15.0595871492  WZ2       553             0.0000000000
      4922      1641  TIP3      H1              6.6317550248      -21.4418293232      -14.7833471492  WZ2       553             0.0000000000
      4923      1641  TIP3      H2              6.4989050248      -22.5743593232      -15.7791271492  WZ2       553             0.0000000000
      4924      1642  TIP3      OH2             4.3555250248      -29.4770093232      -15.9436471492  WZ2       554             0.0000000000
      4925      1642  TIP3      H1              4.3107850248      -28.5376993232      -15.7649471492  WZ2       554             0.0000000000
      4926      1642  TIP3      H2              3.4678450248      -29.7125193232      -16.2134371492  WZ2       554             0.0000000000
      4927      1643  TIP3      OH2            17.6684850248      -18.8131193232       -6.0076871492  WZ2       555             0.0000000000
      4928      1643  TIP3      H1             17.5129150248      -18.1346793232       -6.6647571492  WZ2       555             0.0000000000
      4929      1643  TIP3      H2             18.6011250248      -18.7411893232       -5.8046271492  WZ2       555             0.0000000000
      4930      1644  TIP3      OH2             4.0940550248      -20.7546393232      -11.1099671492  WZ2       557             0.0000000000
      4931      1644  TIP3      H1              3.2619150248      -20.2823693232      -11.0828271492  WZ2       557             0.0000000000
      4932      1644  TIP3      H2              4.6398850248      -20.2448793232      -11.7086571492  WZ2       557             0.0000000000
      4933      1645  TIP3      OH2             3.3824250248      -18.1422693232        0.2198328508  WZ2       558             0.0000000000
      4934      1645  TIP3      H1              3.9226450248      -18.3588693232        0.9797528508  WZ2       558             0.0000000000
      4935      1645  TIP3      H2              2.9012250248      -18.9476693232        0.0300828508  WZ2       558             0.0000000000
      4936      1646  TIP3      OH2             7.9797650248      -19.2228293232        1.8402528508  WZ2       559             0.0000000000
      4937      1646  TIP3      H1              8.7474850248      -19.6817493232        2.1811728508  WZ2       559             0.0000000000
      4938      1646  TIP3      H2              7.9583850248      -19.4488493232        0.9103728508  WZ2       559             0.0000000000
      4939      1647  TIP3      OH2            12.0717250248      -19.7147693232      -16.7845671492  WZ2       560             0.0000000000
      4940      1647  TIP3      H1             11.4278250248      -20.3459093232      -16.4631971492  WZ2       560             0.0000000000
      4941      1647  TIP3      H2             12.8335550248      -20.2459693232      -17.0162171492  WZ2       560             0.0000000000
      4942      1648  TIP3      OH2            14.5566350248      -20.8427193232        0.5694028508  WZ2       561             0.0000000000
      4943      1648  TIP3      H1             14.2055850248      -21.6994193232        0.8124428508  WZ2       561             0.0000000000
      4944      1648  TIP3      H2             15.2829550248      -20.7000493232        1.1763028508  WZ2       561             0.0000000000
      4945      1649  TIP3      OH2            16.6760150248      -19.8977793232      -16.5507671492  WZ2       562             0.0000000000
      4946      1649  TIP3      H1             16.9590550248      -20.6922593232      -16.0980771492  WZ2       562             0.0000000000
      4947      1649  TIP3      H2             17.4158050248      -19.6646793232      -17.1116571492  WZ2       562             0.0000000000
      4948      1650  TIP3      OH2             3.2893750248      -24.3318593232        1.1742628508  WZ2       563             0.0000000000
      4949      1650  TIP3      H1              3.4334250248      -25.2337893232        0.8879328508  WZ2       563             0.0000000000
      4950      1650  TIP3      H2              2.5171150248      -24.0456493232        0.6864928508  WZ2       563             0.0000000000
      4951      1651  TIP3      OH2             7.6307450248      -23.9882893232      -16.6932771492  WZ2       564             0.0000000000
      4952      1651  TIP3      H1              7.6951550248      -24.7823293232      -16.1626371492  WZ2       564             0.0000000000
      4953      1651  TIP3      H2              8.2836650248      -24.1070093232      -17.3830771492  WZ2       564             0.0000000000
      4954      1652  TIP3      OH2             9.9449850248      -24.3620493232        0.6069028508  WZ2       565             0.0000000000
      4955      1652  TIP3      H1              9.6163650248      -24.0912393232       -0.2503571492  WZ2       565             0.0000000000
      4956      1652  TIP3      H2             10.0968050248      -25.3030693232        0.5194028508  WZ2       565             0.0000000000
      4957      1653  TIP3      OH2            12.9830850248      -22.9411193232      -16.9574771492  WZ2       566             0.0000000000
      4958      1653  TIP3      H1             12.7144950248      -22.7609093232      -16.0565871492  WZ2       566             0.0000000000
      4959      1653  TIP3      H2             12.7766450248      -23.8664993232      -17.0888971492  WZ2       566             0.0000000000
      4960      1654  TIP3      OH2            15.6795050248      -24.4463193232       -2.0098671492  WZ2       567             0.0000000000
      4961      1654  TIP3      H1             16.4249850248      -23.8579493232       -2.1294671492  WZ2       567             0.0000000000
      4962      1654  TIP3      H2             14.9221850248      -23.8643493232       -1.9465571492  WZ2       567             0.0000000000
      4963      1655  TIP3      OH2             4.1220250248      -27.1315293232        0.5941928508  WZ2       568             0.0000000000
      4964      1655  TIP3      H1              4.5301450248      -27.9888693232        0.4732528508  WZ2       568             0.0000000000
      4965      1655  TIP3      H2              3.8617850248      -27.1173993232        1.5152228508  WZ2       568             0.0000000000
      4966      1656  TIP3      OH2             8.7801250248      -26.0156693232      -14.3874771492  WZ2       569             0.0000000000
      4967      1656  TIP3      H1              8.3203250248      -26.4998393232      -13.7016271492  WZ2       569             0.0000000000
      4968      1656  TIP3      H2              9.0349950248      -26.6841293232      -15.0234271492  WZ2       569             0.0000000000
      4969      1657  TIP3      OH2             8.0690550248      -28.1229593232       -2.0315171492  WZ2       570             0.0000000000
      4970      1657  TIP3      H1              7.4506650248      -27.4482993232       -1.7510471492  WZ2       570             0.0000000000
      4971      1657  TIP3      H2              8.4131750248      -27.8015693232       -2.8648971492  WZ2       570             0.0000000000
      4972      1658  TIP3      OH2             9.8511650248      -27.7724893232      -16.1251571492  WZ2       571             0.0000000000
      4973      1658  TIP3      H1              9.6706650248      -27.9273693232      -17.0523271492  WZ2       571             0.0000000000
      4974      1658  TIP3      H2             10.8012150248      -27.6646193232      -16.0803671492  WZ2       571             0.0000000000
      4975      1659  TIP3      OH2            13.0888750248      -25.6514293232        1.2459628508  WZ2       572             0.0000000000
      4976      1659  TIP3      H1             14.0419950248      -25.5675193232        1.2185628508  WZ2       572             0.0000000000
      4977      1659  TIP3      H2             12.9283350248      -26.3632493232        1.8654528508  WZ2       572             0.0000000000
      4978      1660  TIP3      OH2            19.2409950248      -25.4180693232      -16.6793471492  WZ2       573             0.0000000000
      4979      1660  TIP3      H1             18.9674750248      -25.8425193232      -17.4925171492  WZ2       573             0.0000000000
      4980      1660  TIP3      H2             19.2804050248      -24.4866193232      -16.8963071492  WZ2       573             0.0000000000
      4981      1661  TIP3      OH2             8.4084250248      -30.7678793232       -0.9492071492  WZ2       574             0.0000000000
      4982      1661  TIP3      H1              8.5585150248      -31.4967493232       -1.5512371492  WZ2       574             0.0000000000
      4983      1661  TIP3      H2              8.4106650248      -29.9907093232       -1.5079871492  WZ2       574             0.0000000000
      4984      1662  TIP3      OH2             8.8209950248      -32.3982993232       -3.4564671492  WZ2       575             0.0000000000
      4985      1662  TIP3      H1              9.3567450248      -31.9466293232       -4.1085371492  WZ2       575             0.0000000000
      4986      1662  TIP3      H2              7.9689550248      -32.5063193232       -3.8790571492  WZ2       575             0.0000000000
      4987      1663  TIP3      OH2            10.4028350248      -26.9586793232       -3.2169471492  WZ2       576             0.0000000000
      4988      1663  TIP3      H1             11.1533150248      -27.1149293232       -3.7901671492  WZ2       576             0.0000000000
      4989      1663  TIP3      H2             10.0636650248      -26.1070193232       -3.4923971492  WZ2       576             0.0000000000
      4990      1664  TIP3      OH2            14.8184550248      -29.1434993232        1.8115828508  WZ2       577             0.0000000000
      4991      1664  TIP3      H1             15.0105850248      -30.0745593232        1.7000328508  WZ2       577             0.0000000000
      4992      1664  TIP3      H2             15.6760850248      -28.7185493232        1.8011228508  WZ2       577             0.0000000000
      4993      1665  TIP3      OH2            16.1351750248      -26.3549793232       -0.1111471492  WZ2       578             0.0000000000
      4994      1665  TIP3      H1             15.8536750248      -25.6455193232       -0.6887671492  WZ2       578             0.0000000000
      4995      1665  TIP3      H2             17.0776050248      -26.4276793232       -0.2620271492  WZ2       578             0.0000000000
      4996      1666  TIP3      OH2             6.8870550248      -29.5695293232        0.9623528508  WZ2       579             0.0000000000
      4997      1666  TIP3      H1              6.1199550248      -30.1020493232        0.7521128508  WZ2       579             0.0000000000
      4998      1666  TIP3      H2              7.5659550248      -29.8794893232        0.3629828508  WZ2       579             0.0000000000
      4999      1667  TIP3      OH2            10.8905950248      -30.6201893232        0.5387328508  WZ2       581             0.0000000000
      5000      1667  TIP3      H1             10.6551350248      -30.8395193232        1.4402228508  WZ2       581             0.0000000000
      5001      1667  TIP3      H2             10.1072850248      -30.8270693232        0.0289828508  WZ2       581             0.0000000000
      5002      1668  TIP3      OH2            13.6062550248      -31.4928393232       -0.3859171492  WZ2       582             0.0000000000
      5003      1668  TIP3      H1             12.6587950248      -31.4608693232       -0.2535871492  WZ2       582             0.0000000000
      5004      1668  TIP3      H2             13.9189250248      -32.1181293232        0.2679028508  WZ2       582             0.0000000000
      5005      1669  TIP3      OH2             5.0673350248      -31.6491493232        0.6668228508  WZ2       584             0.0000000000
      5006      1669  TIP3      H1              5.2790750248      -32.3555393232        0.0565728508  WZ2       584             0.0000000000
      5007      1669  TIP3      H2              4.9560850248      -32.0865493232        1.5109428508  WZ2       584             0.0000000000
      5008      1670  TIP3      OH2             9.7483350248      -17.0821193232      -15.1237971492  WZ2       587             0.0000000000
      5009      1670  TIP3      H1             10.6814050248      -16.9242493232      -14.9799571492  WZ2       587             0.0000000000
      5010      1670  TIP3      H2              9.4842150248      -16.4068193232      -15.7486471492  WZ2       587             0.0000000000
      5011      1671  TIP3      OH2             3.3168250248      -22.4457393232      -15.6409871492  WZ2       588             0.0000000000
      5012      1671  TIP3      H1              4.2307450248      -22.3668493232      -15.3675971492  WZ2       588             0.0000000000
      5013      1671  TIP3      H2              3.3241350248      -23.1327793232      -16.3074271492  WZ2       588             0.0000000000
      5014      1672  TIP3      OH2             1.9658850248      -17.0528893232      -10.5635971492  WZ2       589             0.0000000000
      5015      1672  TIP3      H1              1.3185950248      -17.5147193232      -11.0964771492  WZ2       589             0.0000000000
      5016      1672  TIP3      H2              2.3203450248      -17.7245593232       -9.9809771492  WZ2       589             0.0000000000
      5017      1673  TIP3      OH2             2.8358050248      -18.9721893232       -8.7589771492  WZ2       590             0.0000000000
      5018      1673  TIP3      H1              2.5014850248      -19.8524593232       -8.5869571492  WZ2       590             0.0000000000
      5019      1673  TIP3      H2              3.0580450248      -18.6266893232       -7.8944171492  WZ2       590             0.0000000000
      5020      1674  TIP3      OH2            20.3842850248      -18.1625493232       -5.7784971492  WZ2       591             0.0000000000
      5021      1674  TIP3      H1             20.3629550248      -17.9777093232       -4.8395571492  WZ2       591             0.0000000000
      5022      1674  TIP3      H2             21.0749050248      -17.5941493232       -6.1193571492  WZ2       591             0.0000000000
      5023      1675  TIP3      OH2            19.9475750248      -18.5954393232       -2.8565871492  WZ2       592             0.0000000000
      5024      1675  TIP3      H1             19.4604450248      -19.3310293232       -3.2278471492  WZ2       592             0.0000000000
      5025      1675  TIP3      H2             20.4968450248      -18.9890493232       -2.1786471492  WZ2       592             0.0000000000
      5026      1676  TIP3      OH2            18.3983050248      -22.8056293232        1.7814428508  WZ2       593             0.0000000000
      5027      1676  TIP3      H1             17.5324150248      -22.9106593232        2.1756728508  WZ2       593             0.0000000000
      5028      1676  TIP3      H2             18.7748950248      -22.0472993232        2.2279128508  WZ2       593             0.0000000000
      5029      1677  TIP3      OH2            19.6992750248      -24.5492593232      -12.7043071492  WZ2       594             0.0000000000
      5030      1677  TIP3      H1             20.5494150248      -24.1281693232      -12.5771471492  WZ2       594             0.0000000000
      5031      1677  TIP3      H2             19.7047850248      -25.2892493232      -12.0971671492  WZ2       594             0.0000000000
      5032      1678  TIP3      OH2            20.0938350248      -26.4955193232      -10.8807371492  WZ2       595             0.0000000000
      5033      1678  TIP3      H1             19.3672950248      -26.9752593232      -10.4829771492  WZ2       595             0.0000000000
      5034      1678  TIP3      H2             20.6751650248      -26.2900493232      -10.1485771492  WZ2       595             0.0000000000
      5035      1679  TIP3      OH2            19.8529550248      -23.7107693232       -5.9329771492  WZ2       596             0.0000000000
      5036      1679  TIP3      H1             20.6863750248      -24.0887693232       -6.2136171492  WZ2       596             0.0000000000
      5037      1679  TIP3      H2             19.9649850248      -22.7676493232       -6.0520671492  WZ2       596             0.0000000000
      5038      1680  TIP3      OH2            18.3391850248      -20.8330193232       -3.6261371492  WZ2       597             0.0000000000
      5039      1680  TIP3      H1             17.6917150248      -20.5078693232       -3.0006171492  WZ2       597             0.0000000000
      5040      1680  TIP3      H2             17.8215850248      -21.2732493232       -4.3003071492  WZ2       597             0.0000000000
      5041      1681  TIP3      OH2            20.3621450248      -26.5946693232      -14.4896071492  WZ2       598             0.0000000000
      5042      1681  TIP3      H1             19.8402550248      -26.2382593232      -15.2085171492  WZ2       598             0.0000000000
      5043      1681  TIP3      H2             20.3290650248      -25.9198893232      -13.8115171492  WZ2       598             0.0000000000
      5044      1682  TIP3      OH2            18.7110450248      -29.3551093232      -15.9388971492  WZ2       599             0.0000000000
      5045      1682  TIP3      H1             18.8074850248      -28.6884093232      -16.6189271492  WZ2       599             0.0000000000
      5046      1682  TIP3      H2             18.5710050248      -30.1704793232      -16.4203471492  WZ2       599             0.0000000000
      5047      1683  TIP3      OH2            17.8805150248      -27.9748693232      -10.3178671492  WZ2       600             0.0000000000
      5048      1683  TIP3      H1             17.7303950248      -28.9200093232      -10.3380871492  WZ2       600             0.0000000000
      5049      1683  TIP3      H2             17.5269650248      -27.6937293232       -9.4739571492  WZ2       600             0.0000000000
      5050      1684  TIP3      OH2             2.9157550248      -25.8966493232       -6.3074871492  WZ2       601             0.0000000000
      5051      1684  TIP3      H1              3.1000450248      -25.9784793232       -7.2431971492  WZ2       601             0.0000000000
      5052      1684  TIP3      H2              3.7650450248      -26.0209493232       -5.8838471492  WZ2       601             0.0000000000
      5053      1685  TIP3      OH2            18.7368050248      -26.0045393232       -0.6790371492  WZ2       602             0.0000000000
      5054      1685  TIP3      H1             19.3195350248      -26.7393093232       -0.4873171492  WZ2       602             0.0000000000
      5055      1685  TIP3      H2             19.3007350248      -25.2325093232       -0.6324571492  WZ2       602             0.0000000000
      5056      1686  TIP3      OH2            20.2335150248      -28.1019593232        0.0055028508  WZ2       603             0.0000000000
      5057      1686  TIP3      H1             19.3701850248      -28.4807493232       -0.1600271492  WZ2       603             0.0000000000
      5058      1686  TIP3      H2             20.8378850248      -28.8404793232       -0.0689171492  WZ2       603             0.0000000000
      5059      1687  TIP3      OH2            17.5909950248      -30.3922893232      -11.8553571492  WZ2       605             0.0000000000
      5060      1687  TIP3      H1             17.8707050248      -31.2992493232      -11.7311871492  WZ2       605             0.0000000000
      5061      1687  TIP3      H2             18.3501650248      -29.9581393232      -12.2444371492  WZ2       605             0.0000000000
      5062      1688  TIP3      OH2            18.2028250248      -29.8105493232       -6.4194671492  WZ2       606             0.0000000000
      5063      1688  TIP3      H1             19.1356250248      -29.5985593232       -6.4538671492  WZ2       606             0.0000000000
      5064      1688  TIP3      H2             17.9675750248      -29.7093393232       -5.4971671492  WZ2       606             0.0000000000
      5065      1689  TIP3      OH2            18.2320150248      -29.0740193232       -3.6435271492  WZ2       607             0.0000000000
      5066      1689  TIP3      H1             17.3891450248      -28.8059793232       -3.2775471492  WZ2       607             0.0000000000
      5067      1689  TIP3      H2             18.6744450248      -28.2518293232       -3.8544171492  WZ2       607             0.0000000000
      5068      1690  TIP3      OH2             2.5132350248      -30.6261493232       -0.1666071492  WZ2       608             0.0000000000
      5069      1690  TIP3      H1              3.4327250248      -30.7483193232        0.0697028508  WZ2       608             0.0000000000
      5070      1690  TIP3      H2              2.0636850248      -31.3761793232        0.2227428508  WZ2       608             0.0000000000
      5071      1691  TIP3      OH2             3.7344850248      -32.3139893232       -7.2753171492  WZ2       611             0.0000000000
      5072      1691  TIP3      H1              4.1796450248      -33.1057393232       -6.9733471492  WZ2       611             0.0000000000
      5073      1691  TIP3      H2              4.2007850248      -31.5974693232       -6.8447571492  WZ2       611             0.0000000000
      5074      1692  TIP3      OH2             2.0385150248      -29.3146893232       -6.2062971492  WZ2       612             0.0000000000
      5075      1692  TIP3      H1              2.5304950248      -29.5356393232       -6.9970971492  WZ2       612             0.0000000000
      5076      1692  TIP3      H2              2.4006050248      -28.4743493232       -5.9253471492  WZ2       612             0.0000000000
      5077      1693  TIP3      OH2            17.1228850248      -18.0726093232      -10.2063171492  WZ2       616             0.0000000000
      5078      1693  TIP3      H1             17.7751750248      -18.4203993232      -10.8144071492  WZ2       616             0.0000000000
      5079      1693  TIP3      H2             17.6332650248      -17.5842893232       -9.5603471492  WZ2       616             0.0000000000
      5080      1694  TIP3      OH2             4.5076350248      -21.1434693232        0.3367728508  WZ2       618             0.0000000000
      5081      1694  TIP3      H1              3.6868850248      -20.9688193232       -0.1237571492  WZ2       618             0.0000000000
      5082      1694  TIP3      H2              4.2554150248      -21.2169993232        1.2572128508  WZ2       618             0.0000000000
      5083      1695  TIP3      OH2             7.4619250248      -20.1693493232       -3.4048271492  WZ2       619             0.0000000000
      5084      1695  TIP3      H1              7.0370350248      -19.3594993232       -3.6873671492  WZ2       619             0.0000000000
      5085      1695  TIP3      H2              8.3662050248      -20.0839393232       -3.7068471492  WZ2       619             0.0000000000
      5086      1696  TIP3      OH2            11.7730650248      -18.7703493232       -0.4454571492  WZ2       620             0.0000000000
      5087      1696  TIP3      H1             11.9578150248      -19.1037393232        0.4325728508  WZ2       620             0.0000000000
      5088      1696  TIP3      H2             12.6195150248      -18.4604893232       -0.7675371492  WZ2       620             0.0000000000
      5089      1697  TIP3      OH2            14.1181050248      -17.4844593232       -1.2013171492  WZ2       621             0.0000000000
      5090      1697  TIP3      H1             14.7949950248      -18.1172293232       -1.4413971492  WZ2       621             0.0000000000
      5091      1697  TIP3      H2             14.4399850248      -17.0834093232       -0.3939871492  WZ2       621             0.0000000000
      5092      1698  TIP3      OH2             4.8635950248      -16.9129593232       -3.3572971492  WZ2       623             0.0000000000
      5093      1698  TIP3      H1              4.1432350248      -16.4728593232       -3.8085271492  WZ2       623             0.0000000000
      5094      1698  TIP3      H2              4.4979950248      -17.1634893232       -2.5088971492  WZ2       623             0.0000000000
      5095      1699  TIP3      OH2             7.3308550248      -17.3125693232       -4.3275771492  WZ2       624             0.0000000000
      5096      1699  TIP3      H1              6.4660750248      -17.2407193232       -3.9235671492  WZ2       624             0.0000000000
      5097      1699  TIP3      H2              7.2757550248      -16.7658393232       -5.1113271492  WZ2       624             0.0000000000
      5098      1700  TIP3      OH2            12.0414150248      -17.4246793232       -5.1519771492  WZ2       625             0.0000000000
      5099      1700  TIP3      H1             11.5848150248      -16.8957093232       -5.8061371492  WZ2       625             0.0000000000
      5100      1700  TIP3      H2             12.2042150248      -16.8215393232       -4.4267471492  WZ2       625             0.0000000000
      5101      1701  TIP3      OH2            14.3690450248      -18.5467193232       -4.2069471492  WZ2       626             0.0000000000
      5102      1701  TIP3      H1             13.4644150248      -18.3816993232       -4.4727371492  WZ2       626             0.0000000000
      5103      1701  TIP3      H2             14.7979050248      -17.6934993232       -4.2726071492  WZ2       626             0.0000000000
      5104      1702  TIP3      OH2            16.9732350248      -16.9768093232       -3.9121671492  WZ2       627             0.0000000000
      5105      1702  TIP3      H1             16.7914350248      -16.0609193232       -4.1226771492  WZ2       627             0.0000000000
      5106      1702  TIP3      H2             17.1500150248      -17.3870993232       -4.7587071492  WZ2       627             0.0000000000
      5107      1703  TIP3      OH2             4.2784050248      -18.2897093232       -6.4471171492  WZ2       628             0.0000000000
      5108      1703  TIP3      H1              4.2600050248      -18.7151993232       -5.5898871492  WZ2       628             0.0000000000
      5109      1703  TIP3      H2              5.0831950248      -18.6082093232       -6.8558971492  WZ2       628             0.0000000000
      5110      1704  TIP3      OH2             6.4197150248      -19.5798393232       -7.7921271492  WZ2       629             0.0000000000
      5111      1704  TIP3      H1              6.2007850248      -20.4960993232       -7.6225271492  WZ2       629             0.0000000000
      5112      1704  TIP3      H2              7.2439350248      -19.4397993232       -7.3259871492  WZ2       629             0.0000000000
      5113      1705  TIP3      OH2             8.9569650248      -19.1099093232       -6.9433271492  WZ2       630             0.0000000000
      5114      1705  TIP3      H1              9.1695350248      -19.9980093232       -7.2302371492  WZ2       630             0.0000000000
      5115      1705  TIP3      H2              9.0214750248      -19.1441393232       -5.9889271492  WZ2       630             0.0000000000
      5116      1706  TIP3      OH2             3.5293750248      -19.0657893232      -13.2758871492  WZ2       639             0.0000000000
      5117      1706  TIP3      H1              2.8443650248      -19.1038993232      -13.9433771492  WZ2       639             0.0000000000
      5118      1706  TIP3      H2              3.5330950248      -18.1530293232      -12.9876771492  WZ2       639             0.0000000000
      5119      1707  TIP3      OH2            12.3937250248      -17.8562993232      -14.8782671492  WZ2       642             0.0000000000
      5120      1707  TIP3      H1             13.2597450248      -17.4895593232      -15.0564471492  WZ2       642             0.0000000000
      5121      1707  TIP3      H2             12.1470050248      -18.2954993232      -15.6921871492  WZ2       642             0.0000000000
      5122      1708  TIP3      OH2            19.1026850248      -18.2932693232      -12.1991571492  WZ2       643             0.0000000000
      5123      1708  TIP3      H1             18.9083950248      -19.0410593232      -12.7641971492  WZ2       643             0.0000000000
      5124      1708  TIP3      H2             19.0636950248      -17.5352593232      -12.7823671492  WZ2       643             0.0000000000
      5125      1709  TIP3      OH2             5.3474950248      -18.1457093232      -16.2506771492  WZ2       646             0.0000000000
      5126      1709  TIP3      H1              5.0799550248      -17.8594193232      -15.3773671492  WZ2       646             0.0000000000
      5127      1709  TIP3      H2              6.1187550248      -18.6917893232      -16.0984271492  WZ2       646             0.0000000000
      5128      1710  TIP3      OH2            18.3203050248      -19.5420293232       -0.0489771492  WZ2       648             0.0000000000
      5129      1710  TIP3      H1             17.5384950248      -19.7282293232       -0.5689171492  WZ2       648             0.0000000000
      5130      1710  TIP3      H2             18.2482950248      -18.6125993232        0.1682728508  WZ2       648             0.0000000000
      5131      1711  TIP3      OH2            24.0279750248      -26.7863093232       -5.0064471492  WZ2       651             0.0000000000
      5132      1711  TIP3      H1             24.0691850248      -27.4119793232       -4.2832071492  WZ2       651             0.0000000000
      5133      1711  TIP3      H2             24.7307450248      -26.1624493232       -4.8244071492  WZ2       651             0.0000000000
      5134      1712  TIP3      OH2            24.9512850248      -22.3364193232       -6.4715371492  WZ2       653             0.0000000000
      5135      1712  TIP3      H1             24.5818050248      -23.1383693232       -6.8411071492  WZ2       653             0.0000000000
      5136      1712  TIP3      H2             25.8923950248      -22.5049293232       -6.4251971492  WZ2       653             0.0000000000
      5137      1713  TIP3      OH2            21.5613350248      -28.6761593232      -11.0786571492  WZ2       654             0.0000000000
      5138      1713  TIP3      H1             21.1136750248      -27.8302893232      -11.0970071492  WZ2       654             0.0000000000
      5139      1713  TIP3      H2             21.0004550248      -29.2557393232      -11.5941471492  WZ2       654             0.0000000000
      5140      1714  TIP3      OH2            22.2719450248      -26.5141993232       -8.9528571492  WZ2       655             0.0000000000
      5141      1714  TIP3      H1             22.4852950248      -27.2840393232       -8.4255571492  WZ2       655             0.0000000000
      5142      1714  TIP3      H2             23.0097050248      -26.4245293232       -9.5560971492  WZ2       655             0.0000000000
      5143      1715  TIP3      OH2            22.9645950248      -29.0759193232       -7.8312371492  WZ2       661             0.0000000000
      5144      1715  TIP3      H1             23.6182550248      -29.6257493232       -7.3992271492  WZ2       661             0.0000000000
      5145      1715  TIP3      H2             22.9885250248      -29.3500193232       -8.7480371492  WZ2       661             0.0000000000
      5146      1716  TIP3      OH2            26.1312050248      -22.9147893232       -3.4447771492  WZ2       667             0.0000000000
      5147      1716  TIP3      H1             26.1259650248      -22.0354393232       -3.8228471492  WZ2       667             0.0000000000
      5148      1716  TIP3      H2             25.2776150248      -22.9983793232       -3.0197871492  WZ2       667             0.0000000000
      5149      1717  TIP3      OH2            22.2522950248      -23.2439993232      -12.6628471492  WZ2       668             0.0000000000
      5150      1717  TIP3      H1             21.9803850248      -23.0148993232      -13.5515571492  WZ2       668             0.0000000000
      5151      1717  TIP3      H2             22.2978650248      -22.4061193232      -12.2023171492  WZ2       668             0.0000000000
      5152      1718  TIP3      OH2            24.6653450248      -26.2056993232       -2.1528771492  WZ2       682             0.0000000000
      5153      1718  TIP3      H1             24.7356650248      -25.5550193232       -1.4543771492  WZ2       682             0.0000000000
      5154      1718  TIP3      H2             23.7745650248      -26.1029493232       -2.4877871492  WZ2       682             0.0000000000
      5155      1719  TIP3      OH2            25.9849450248      -20.3323093232       -0.6180671492  WZ2       684             0.0000000000
      5156      1719  TIP3      H1             25.9924750248      -20.4683393232       -1.5655171492  WZ2       684             0.0000000000
      5157      1719  TIP3      H2             25.0689850248      -20.4494993232       -0.3660671492  WZ2       684             0.0000000000
      5158      1720  TIP3      OH2            21.5820150248      -24.1392893232       -3.3278771492  WZ2       686             0.0000000000
      5159      1720  TIP3      H1             21.0808550248      -24.1673493232       -4.1429071492  WZ2       686             0.0000000000
      5160      1720  TIP3      H2             21.5873850248      -25.0449693232       -3.0181471492  WZ2       686             0.0000000000
      5161      1721  TIP3      OH2            21.3322850248      -21.3589093232       -6.4438571492  WZ2       687             0.0000000000
      5162      1721  TIP3      H1             22.2783450248      -21.5032093232       -6.4629071492  WZ2       687             0.0000000000
      5163      1721  TIP3      H2             21.2199150248      -20.5746293232       -5.9067371492  WZ2       687             0.0000000000
      5164      1722  TIP3      OH2            24.5764950248      -18.5579493232      -10.2983871492  WZ2       690             0.0000000000
      5165      1722  TIP3      H1             24.7285350248      -18.9059093232       -9.4197371492  WZ2       690             0.0000000000
      5166      1722  TIP3      H2             23.7255350248      -18.9142193232      -10.5536671492  WZ2       690             0.0000000000
      5167      1723  TIP3      OH2            23.8310650248      -22.8157493232       -2.2845971492  WZ2       693             0.0000000000
      5168      1723  TIP3      H1             24.0471950248      -23.1771893232       -1.4250171492  WZ2       693             0.0000000000
      5169      1723  TIP3      H2             22.9755350248      -23.1903693232       -2.4942471492  WZ2       693             0.0000000000
      5170      1724  TIP3      OH2            24.2909250248      -29.0598993232       -3.3269571492  WZ2       704             0.0000000000
      5171      1724  TIP3      H1             24.2528650248      -28.6597393232       -2.4582471492  WZ2       704             0.0000000000
      5172      1724  TIP3      H2             23.8000350248      -29.8766593232       -3.2366671492  WZ2       704             0.0000000000
      5173      1725  TIP3      OH2            20.8990050248      -31.9437193232       -9.4764871492  WZ2       706             0.0000000000
      5174      1725  TIP3      H1             21.5297750248      -31.9725093232       -8.7570971492  WZ2       706             0.0000000000
      5175      1725  TIP3      H2             21.3484350248      -32.3688493232      -10.2068971492  WZ2       706             0.0000000000
      5176      1726  TIP3      OH2            22.1732150248      -31.1975193232      -14.0524471492  WZ2       707             0.0000000000
      5177      1726  TIP3      H1             22.6473850248      -30.6065293232      -14.6373571492  WZ2       707             0.0000000000
      5178      1726  TIP3      H2             21.4558550248      -30.6672293232      -13.7054371492  WZ2       707             0.0000000000
      5179      1727  TIP3      OH2            23.9476550248      -30.1028593232      -10.3689871492  WZ2       710             0.0000000000
      5180      1727  TIP3      H1             23.0584550248      -30.0033093232      -10.7090271492  WZ2       710             0.0000000000
      5181      1727  TIP3      H2             24.2441450248      -30.9445593232      -10.7151971492  WZ2       710             0.0000000000
      5182      1728  TIP3      OH2            24.4099950248      -24.3511893232       -0.0467571492  WZ2       714             0.0000000000
      5183      1728  TIP3      H1             25.1422350248      -24.0965993232        0.5146928508  WZ2       714             0.0000000000
      5184      1728  TIP3      H2             23.6298650248      -24.1466493232        0.4687828508  WZ2       714             0.0000000000
      5185      1729  TIP3      OH2            24.7349650248      -25.0478093232       -7.4403171492  WZ2       722             0.0000000000
      5186      1729  TIP3      H1             25.4796850248      -25.0502393232       -8.0416671492  WZ2       722             0.0000000000
      5187      1729  TIP3      H2             24.8126250248      -25.8714293232       -6.9588071492  WZ2       722             0.0000000000
      5188      1730  TIP3      OH2            21.7429350248      -26.5871193232       -2.1254671492  WZ2       724             0.0000000000
      5189      1730  TIP3      H1             21.9657950248      -27.0051593232       -1.2937171492  WZ2       724             0.0000000000
      5190      1730  TIP3      H2             21.1409450248      -27.1996193232       -2.5481871492  WZ2       724             0.0000000000
      5191      1731  TIP3      OH2            27.1099050248      -21.5299893232      -10.0361671492  WZ2       728             0.0000000000
      5192      1731  TIP3      H1             27.6371250248      -20.7565493232      -10.2362871492  WZ2       728             0.0000000000
      5193      1731  TIP3      H2             26.2297550248      -21.3050693232      -10.3377671492  WZ2       728             0.0000000000
      5194      1732  TIP3      OH2            22.8646750248      -26.6675793232      -15.4489271492  WZ2       729             0.0000000000
      5195      1732  TIP3      H1             23.4806650248      -26.0408593232      -15.0694471492  WZ2       729             0.0000000000
      5196      1732  TIP3      H2             22.0029350248      -26.3515993232      -15.1772771492  WZ2       729             0.0000000000
      5197      1733  TIP3      OH2            27.2202150248      -18.8452393232      -10.9145171492  WZ2       732             0.0000000000
      5198      1733  TIP3      H1             26.2702650248      -18.7394993232      -10.8631871492  WZ2       732             0.0000000000
      5199      1733  TIP3      H2             27.5720250248      -18.0244993232      -10.5697671492  WZ2       732             0.0000000000
      5200      1734  TIP3      OH2            23.3768850248      -31.8338493232       -2.5673271492  WZ2       736             0.0000000000
      5201      1734  TIP3      H1             22.4841150248      -31.4953093232       -2.6349271492  WZ2       736             0.0000000000
      5202      1734  TIP3      H2             23.2781650248      -32.6892393232       -2.1492471492  WZ2       736             0.0000000000
      5203      1735  TIP3      OH2            23.0280850248      -20.0294093232       -4.1323871492  WZ2       738             0.0000000000
      5204      1735  TIP3      H1             23.2451150248      -20.9611693232       -4.1634171492  WZ2       738             0.0000000000
      5205      1735  TIP3      H2             23.2744350248      -19.7549093232       -3.2491071492  WZ2       738             0.0000000000
      5206      1736  TIP3      OH2            24.2797150248      -24.7551993232      -13.9563671492  WZ2       741             0.0000000000
      5207      1736  TIP3      H1             23.5936450248      -24.4029493232      -13.3893971492  WZ2       741             0.0000000000
      5208      1736  TIP3      H2             24.8025050248      -23.9922393232      -14.2029371492  WZ2       741             0.0000000000
      5209      1737  TIP3      OH2            24.8956050248      -22.1413093232      -15.0595871492  WZ2       751             0.0000000000
      5210      1737  TIP3      H1             25.4877550248      -21.4418293232      -14.7833471492  WZ2       751             0.0000000000
      5211      1737  TIP3      H2             25.3549050248      -22.5743593232      -15.7791271492  WZ2       751             0.0000000000
      5212      1738  TIP3      OH2            23.2115250248      -29.4770093232      -15.9436471492  WZ2       752             0.0000000000
      5213      1738  TIP3      H1             23.1667850248      -28.5376993232      -15.7649471492  WZ2       752             0.0000000000
      5214      1738  TIP3      H2             22.3238450248      -29.7125193232      -16.2134371492  WZ2       752             0.0000000000
      5215      1739  TIP3      OH2            22.9500550248      -20.7546393232      -11.1099671492  WZ2       754             0.0000000000
      5216      1739  TIP3      H1             22.1179150248      -20.2823693232      -11.0828271492  WZ2       754             0.0000000000
      5217      1739  TIP3      H2             23.4958850248      -20.2448793232      -11.7086571492  WZ2       754             0.0000000000
      5218      1740  TIP3      OH2            22.2384250248      -18.1422693232        0.2198328508  WZ2       755             0.0000000000
      5219      1740  TIP3      H1             22.7786450248      -18.3588693232        0.9797528508  WZ2       755             0.0000000000
      5220      1740  TIP3      H2             21.7572250248      -18.9476693232        0.0300828508  WZ2       755             0.0000000000
      5221      1741  TIP3      OH2            26.8357650248      -19.2228293232        1.8402528508  WZ2       756             0.0000000000
      5222      1741  TIP3      H1             27.6034850248      -19.6817493232        2.1811728508  WZ2       756             0.0000000000
      5223      1741  TIP3      H2             26.8143850248      -19.4488493232        0.9103728508  WZ2       756             0.0000000000
      5224      1742  TIP3      OH2            22.1453750248      -24.3318593232        1.1742628508  WZ2       760             0.0000000000
      5225      1742  TIP3      H1             22.2894250248      -25.2337893232        0.8879328508  WZ2       760             0.0000000000
      5226      1742  TIP3      H2             21.3731150248      -24.0456493232        0.6864928508  WZ2       760             0.0000000000
      5227      1743  TIP3      OH2            22.9780250248      -27.1315293232        0.5941928508  WZ2       765             0.0000000000
      5228      1743  TIP3      H1             23.3861450248      -27.9888693232        0.4732528508  WZ2       765             0.0000000000
      5229      1743  TIP3      H2             22.7177850248      -27.1173993232        1.5152228508  WZ2       765             0.0000000000
      5230      1744  TIP3      OH2            22.1728250248      -22.4457393232      -15.6409871492  WZ2       784             0.0000000000
      5231      1744  TIP3      H1             23.0867450248      -22.3668493232      -15.3675971492  WZ2       784             0.0000000000
      5232      1744  TIP3      H2             22.1801350248      -23.1327793232      -16.3074271492  WZ2       784             0.0000000000
      5233      1745  TIP3      OH2            20.8218850248      -17.0528893232      -10.5635971492  WZ2       785             0.0000000000
      5234      1745  TIP3      H1             20.1745950248      -17.5147193232      -11.0964771492  WZ2       785             0.0000000000
      5235      1745  TIP3      H2             21.1763450248      -17.7245593232       -9.9809771492  WZ2       785             0.0000000000
      5236      1746  TIP3      OH2            21.6918050248      -18.9721893232       -8.7589771492  WZ2       786             0.0000000000
      5237      1746  TIP3      H1             21.3574850248      -19.8524593232       -8.5869571492  WZ2       786             0.0000000000
      5238      1746  TIP3      H2             21.9140450248      -18.6266893232       -7.8944171492  WZ2       786             0.0000000000
      5239      1747  TIP3      OH2            21.7717550248      -25.8966493232       -6.3074871492  WZ2       787             0.0000000000
      5240      1747  TIP3      H1             21.9560450248      -25.9784793232       -7.2431971492  WZ2       787             0.0000000000
      5241      1747  TIP3      H2             22.6210450248      -26.0209493232       -5.8838471492  WZ2       787             0.0000000000
      5242      1748  TIP3      OH2            21.3692350248      -30.6261493232       -0.1666071492  WZ2       788             0.0000000000
      5243      1748  TIP3      H1             22.2887250248      -30.7483193232        0.0697028508  WZ2       788             0.0000000000
      5244      1748  TIP3      H2             20.9196850248      -31.3761793232        0.2227428508  WZ2       788             0.0000000000
      5245      1749  TIP3      OH2            22.5904850248      -32.3139893232       -7.2753171492  WZ2       789             0.0000000000
      5246      1749  TIP3      H1             23.0356450248      -33.1057393232       -6.9733471492  WZ2       789             0.0000000000
      5247      1749  TIP3      H2             23.0567850248      -31.5974693232       -6.8447571492  WZ2       789             0.0000000000
      5248      1750  TIP3      OH2            20.8945150248      -29.3146893232       -6.2062971492  WZ2       790             0.0000000000
      5249      1750  TIP3      H1             21.3864950248      -29.5356393232       -6.9970971492  WZ2       790             0.0000000000
      5250      1750  TIP3      H2             21.2566050248      -28.4743493232       -5.9253471492  WZ2       790             0.0000000000
      5251      1751  TIP3      OH2            23.3636350248      -21.1434693232        0.3367728508  WZ2       793             0.0000000000
      5252      1751  TIP3      H1             22.5428850248      -20.9688193232       -0.1237571492  WZ2       793             0.0000000000
      5253      1751  TIP3      H2             23.1114150248      -21.2169993232        1.2572128508  WZ2       793             0.0000000000
      5254      1752  TIP3      OH2            26.3179250248      -20.1693493232       -3.4048271492  WZ2       794             0.0000000000
      5255      1752  TIP3      H1             25.8930350248      -19.3594993232       -3.6873671492  WZ2       794             0.0000000000
      5256      1752  TIP3      H2             27.2222050248      -20.0839393232       -3.7068471492  WZ2       794             0.0000000000
      5257      1753  TIP3      OH2            23.7195950248      -16.9129593232       -3.3572971492  WZ2       797             0.0000000000
      5258      1753  TIP3      H1             22.9992350248      -16.4728593232       -3.8085271492  WZ2       797             0.0000000000
      5259      1753  TIP3      H2             23.3539950248      -17.1634893232       -2.5088971492  WZ2       797             0.0000000000
      5260      1754  TIP3      OH2            26.1868550248      -17.3125693232       -4.3275771492  WZ2       798             0.0000000000
      5261      1754  TIP3      H1             25.3220750248      -17.2407193232       -3.9235671492  WZ2       798             0.0000000000
      5262      1754  TIP3      H2             26.1317550248      -16.7658393232       -5.1113271492  WZ2       798             0.0000000000
      5263      1755  TIP3      OH2            23.1344050248      -18.2897093232       -6.4471171492  WZ2       801             0.0000000000
      5264      1755  TIP3      H1             23.1160050248      -18.7151993232       -5.5898871492  WZ2       801             0.0000000000
      5265      1755  TIP3      H2             23.9391950248      -18.6082093232       -6.8558971492  WZ2       801             0.0000000000
      5266      1756  TIP3      OH2            25.2757150248      -19.5798393232       -7.7921271492  WZ2       802             0.0000000000
      5267      1756  TIP3      H1             25.0567850248      -20.4960993232       -7.6225271492  WZ2       802             0.0000000000
      5268      1756  TIP3      H2             26.0999350248      -19.4397993232       -7.3259871492  WZ2       802             0.0000000000
      5269      1757  TIP3      OH2            22.3853750248      -19.0657893232      -13.2758871492  WZ2       810             0.0000000000
      5270      1757  TIP3      H1             21.7003650248      -19.1038993232      -13.9433771492  WZ2       810             0.0000000000
      5271      1757  TIP3      H2             22.3890950248      -18.1530293232      -12.9876771492  WZ2       810             0.0000000000
      5272      1758  TIP3      OH2            24.2034950248      -18.1457093232      -16.2506771492  WZ2       816             0.0000000000
      5273      1758  TIP3      H1             23.9359550248      -17.8594193232      -15.3773671492  WZ2       816             0.0000000000
      5274      1758  TIP3      H2             24.9747550248      -18.6917893232      -16.0984271492  WZ2       816             0.0000000000
      5275      1759  TIP3      OH2           -23.8416549752       -6.7995893232      -10.0182571492  WZ2       818             0.0000000000
      5276      1759  TIP3      H1            -23.7525449752       -5.8557693232      -10.1505471492  WZ2       818             0.0000000000
      5277      1759  TIP3      H2            -24.4798949752       -7.0749493232      -10.6763171492  WZ2       818             0.0000000000
      5278      1760  TIP3      OH2           -24.9085249752       -7.5445193232       -6.5994371492  WZ2       819             0.0000000000
      5279      1760  TIP3      H1            -24.9467749752       -8.1908893232       -5.8944771492  WZ2       819             0.0000000000
      5280      1760  TIP3      H2            -25.2308749752       -8.0110793232       -7.3705671492  WZ2       819             0.0000000000
      5281      1761  TIP3      OH2           -32.5400249752       -7.9303093232       -5.0064471492  WZ2       820             0.0000000000
      5282      1761  TIP3      H1            -32.4988149752       -8.5559793232       -4.2832071492  WZ2       820             0.0000000000
      5283      1761  TIP3      H2            -31.8372549752       -7.3064493232       -4.8244071492  WZ2       820             0.0000000000
      5284      1762  TIP3      OH2           -21.2025049752       -4.6054793232       -8.2979271492  WZ2       821             0.0000000000
      5285      1762  TIP3      H1            -21.6432349752       -5.3258793232       -7.8473671492  WZ2       821             0.0000000000
      5286      1762  TIP3      H2            -21.2155349752       -3.8847593232       -7.6681571492  WZ2       821             0.0000000000
      5287      1763  TIP3      OH2           -31.6167149752       -3.4804193232       -6.4715371492  WZ2       822             0.0000000000
      5288      1763  TIP3      H1            -31.9861949752       -4.2823693232       -6.8411071492  WZ2       822             0.0000000000
      5289      1763  TIP3      H2            -30.6756049752       -3.6489293232       -6.4251971492  WZ2       822             0.0000000000
      5290      1764  TIP3      OH2           -35.0066649752       -9.8201593232      -11.0786571492  WZ2       823             0.0000000000
      5291      1764  TIP3      H1            -35.4543249752       -8.9742893232      -11.0970071492  WZ2       823             0.0000000000
      5292      1764  TIP3      H2            -35.5675449752      -10.3997393232      -11.5941471492  WZ2       823             0.0000000000
      5293      1765  TIP3      OH2           -34.2960549752       -7.6581993232       -8.9528571492  WZ2       824             0.0000000000
      5294      1765  TIP3      H1            -34.0827049752       -8.4280393232       -8.4255571492  WZ2       824             0.0000000000
      5295      1765  TIP3      H2            -33.5582949752       -7.5685293232       -9.5560971492  WZ2       824             0.0000000000
      5296      1766  TIP3      OH2           -24.0909549752        0.4986906768       -8.0858871492  WZ2       825             0.0000000000
      5297      1766  TIP3      H1            -23.4713149752       -0.1778393232       -8.3589671492  WZ2       825             0.0000000000
      5298      1766  TIP3      H2            -24.2992149752        0.2807706768       -7.1773971492  WZ2       825             0.0000000000
      5299      1767  TIP3      OH2           -26.5190849752       -5.1123793232       -6.1933371492  WZ2       826             0.0000000000
      5300      1767  TIP3      H1            -26.2152949752       -5.7982393232       -6.7879271492  WZ2       826             0.0000000000
      5301      1767  TIP3      H2            -25.7976849752       -4.9935093232       -5.5755371492  WZ2       826             0.0000000000
      5302      1768  TIP3      OH2           -17.8561049752      -13.5108493232       -5.3327171492  WZ2       827             0.0000000000
      5303      1768  TIP3      H1            -17.8068849752      -12.9007293232       -4.5968071492  WZ2       827             0.0000000000
      5304      1768  TIP3      H2            -17.4305949752      -13.0497593232       -6.0556071492  WZ2       827             0.0000000000
      5305      1769  TIP3      OH2           -23.3783849752      -10.7181393232       -5.8658571492  WZ2       828             0.0000000000
      5306      1769  TIP3      H1            -23.2357949752      -11.6644393232       -5.8456971492  WZ2       828             0.0000000000
      5307      1769  TIP3      H2            -23.4844849752      -10.5111593232       -6.7943671492  WZ2       828             0.0000000000
      5308      1770  TIP3      OH2           -30.2235549752      -12.6164993232       -8.5933771492  WZ2       829             0.0000000000
      5309      1770  TIP3      H1            -30.1804449752      -11.7566493232       -9.0117471492  WZ2       829             0.0000000000
      5310      1770  TIP3      H2            -30.6811449752      -13.1690293232       -9.2270571492  WZ2       829             0.0000000000
      5311      1771  TIP3      OH2           -22.5012849752      -12.4859393232      -10.1925471492  WZ2       830             0.0000000000
      5312      1771  TIP3      H1            -21.8548549752      -12.8146193232       -9.5677871492  WZ2       830             0.0000000000
      5313      1771  TIP3      H2            -21.9913449752      -11.9680393232      -10.8154071492  WZ2       830             0.0000000000
      5314      1772  TIP3      OH2           -33.6034049752      -10.2199193232       -7.8312371492  WZ2       831             0.0000000000
      5315      1772  TIP3      H1            -32.9497449752      -10.7697493232       -7.3992271492  WZ2       831             0.0000000000
      5316      1772  TIP3      H2            -33.5794749752      -10.4940193232       -8.7480371492  WZ2       831             0.0000000000
      5317      1773  TIP3      OH2           -28.4469549752       -8.6697893232       -8.6160871492  WZ2       832             0.0000000000
      5318      1773  TIP3      H1            -27.8308549752       -9.1962493232       -8.1066871492  WZ2       832             0.0000000000
      5319      1773  TIP3      H2            -29.0330749752       -9.3099193232       -9.0197271492  WZ2       832             0.0000000000
      5320      1774  TIP3      OH2           -17.4646449752      -12.0329293232       -3.0967371492  WZ2       833             0.0000000000
      5321      1774  TIP3      H1            -18.1531849752      -11.3748593232       -3.1920771492  WZ2       833             0.0000000000
      5322      1774  TIP3      H2            -17.4491849752      -12.2301393232       -2.1601971492  WZ2       833             0.0000000000
      5323      1775  TIP3      OH2           -31.4133649752      -13.6986593232       -4.5192971492  WZ2       834             0.0000000000
      5324      1775  TIP3      H1            -31.6321949752      -13.1685993232       -5.2856971492  WZ2       834             0.0000000000
      5325      1775  TIP3      H2            -32.0812749752      -13.4721093232       -3.8721571492  WZ2       834             0.0000000000
      5326      1776  TIP3      OH2           -24.0443849752       -4.1985493232      -10.9753871492  WZ2       835             0.0000000000
      5327      1776  TIP3      H1            -24.3398749752       -4.5213193232      -11.8266971492  WZ2       835             0.0000000000
      5328      1776  TIP3      H2            -24.3686049752       -3.2988793232      -10.9341271492  WZ2       835             0.0000000000
      5329      1777  TIP3      OH2           -28.8442249752       -6.0230893232       -4.2319271492  WZ2       836             0.0000000000
      5330      1777  TIP3      H1            -29.5843149752       -5.4249393232       -4.1284071492  WZ2       836             0.0000000000
      5331      1777  TIP3      H2            -28.1302749752       -5.4691293232       -4.5475671492  WZ2       836             0.0000000000
      5332      1778  TIP3      OH2           -20.7374449752      -13.1950093232       -8.2119571492  WZ2       837             0.0000000000
      5333      1778  TIP3      H1            -20.9526449752      -13.9606693232       -7.6793571492  WZ2       837             0.0000000000
      5334      1778  TIP3      H2            -20.0817049752      -12.7225493232       -7.6991071492  WZ2       837             0.0000000000
      5335      1779  TIP3      OH2           -31.8196349752      -11.8064793232       -6.5670771492  WZ2       838             0.0000000000
      5336      1779  TIP3      H1            -31.2060049752      -11.1737193232       -6.1938371492  WZ2       838             0.0000000000
      5337      1779  TIP3      H2            -31.3075649752      -12.2789793232       -7.2233871492  WZ2       838             0.0000000000
      5338      1780  TIP3      OH2           -30.4367949752       -4.0587893232       -3.4447771492  WZ2       839             0.0000000000
      5339      1780  TIP3      H1            -30.4420349752       -3.1794393232       -3.8228471492  WZ2       839             0.0000000000
      5340      1780  TIP3      H2            -31.2903849752       -4.1423793232       -3.0197871492  WZ2       839             0.0000000000
      5341      1781  TIP3      OH2           -34.3157049752       -4.3879993232      -12.6628471492  WZ2       840             0.0000000000
      5342      1781  TIP3      H1            -34.5876149752       -4.1588993232      -13.5515571492  WZ2       840             0.0000000000
      5343      1781  TIP3      H2            -34.2701349752       -3.5501193232      -12.2023171492  WZ2       840             0.0000000000
      5344      1782  TIP3      OH2           -20.6907349752       -2.7664093232       -5.9499971492  WZ2       841             0.0000000000
      5345      1782  TIP3      H1            -21.6323649752       -2.7080193232       -5.7883071492  WZ2       841             0.0000000000
      5346      1782  TIP3      H2            -20.4141249752       -1.8603593232       -6.0870271492  WZ2       841             0.0000000000
      5347      1783  TIP3      OH2           -20.3900349752      -14.4798793232       -4.5326071492  WZ2       842             0.0000000000
      5348      1783  TIP3      H1            -21.1261149752      -13.8691693232       -4.5704771492  WZ2       842             0.0000000000
      5349      1783  TIP3      H2            -19.7066349752      -14.0649793232       -5.0589671492  WZ2       842             0.0000000000
      5350      1784  TIP3      OH2           -27.3868949752      -16.3931493232       -7.0668071492  WZ2       843             0.0000000000
      5351      1784  TIP3      H1            -27.5044749752      -17.3415493232       -7.1209771492  WZ2       843             0.0000000000
      5352      1784  TIP3      H2            -28.2418849752      -16.0605393232       -6.7936971492  WZ2       843             0.0000000000
      5353      1785  TIP3      OH2           -22.4386149752       -0.9850593232       -9.3248371492  WZ2       844             0.0000000000
      5354      1785  TIP3      H1            -22.0133849752       -1.6922693232       -9.8098771492  WZ2       844             0.0000000000
      5355      1785  TIP3      H2            -22.1216149752       -0.1837893232       -9.7416171492  WZ2       844             0.0000000000
      5356      1786  TIP3      OH2           -21.2789649752       -3.0842093232      -10.8161771492  WZ2       845             0.0000000000
      5357      1786  TIP3      H1            -21.5364849752       -3.7741993232      -11.4275871492  WZ2       845             0.0000000000
      5358      1786  TIP3      H2            -21.2078849752       -3.5270893232       -9.9705871492  WZ2       845             0.0000000000
      5359      1787  TIP3      OH2           -19.5929449752       -4.5175393232       -2.3388271492  WZ2       846             0.0000000000
      5360      1787  TIP3      H1            -19.4533149752       -5.1092893232       -3.0781271492  WZ2       846             0.0000000000
      5361      1787  TIP3      H2            -19.4256649752       -3.6449493232       -2.6949471492  WZ2       846             0.0000000000
      5362      1788  TIP3      OH2           -25.1204049752       -7.5555893232      -12.5662271492  WZ2       847             0.0000000000
      5363      1788  TIP3      H1            -25.8318549752       -7.0206193232      -12.9181771492  WZ2       847             0.0000000000
      5364      1788  TIP3      H2            -24.4294449752       -7.5003793232      -13.2263371492  WZ2       847             0.0000000000
      5365      1789  TIP3      OH2           -25.0664849752       -9.0981593232      -15.5277271492  WZ2       848             0.0000000000
      5366      1789  TIP3      H1            -24.3654949752       -9.0754693232      -14.8763271492  WZ2       848             0.0000000000
      5367      1789  TIP3      H2            -24.7641949752       -9.7261893232      -16.1837971492  WZ2       848             0.0000000000
      5368      1790  TIP3      OH2           -17.7510149752       -8.1777393232       -4.2727871492  WZ2       849             0.0000000000
      5369      1790  TIP3      H1            -18.4036049752       -7.4831793232       -4.1836971492  WZ2       849             0.0000000000
      5370      1790  TIP3      H2            -17.2859849752       -7.9676493232       -5.0826271492  WZ2       849             0.0000000000
      5371      1791  TIP3      OH2           -21.7146349752       -7.3462593232      -11.6146371492  WZ2       850             0.0000000000
      5372      1791  TIP3      H1            -22.4465349752       -7.1178893232      -11.0415771492  WZ2       850             0.0000000000
      5373      1791  TIP3      H2            -21.2674149752       -8.0599893232      -11.1598871492  WZ2       850             0.0000000000
      5374      1792  TIP3      OH2           -21.8172849752       -9.1719993232       -2.5469371492  WZ2       851             0.0000000000
      5375      1792  TIP3      H1            -21.7373749752       -8.4085593232       -1.9750871492  WZ2       851             0.0000000000
      5376      1792  TIP3      H2            -22.4185149752       -8.8927593232       -3.2374271492  WZ2       851             0.0000000000
      5377      1793  TIP3      OH2           -30.0692649752       -6.7156393232       -9.7321371492  WZ2       852             0.0000000000
      5378      1793  TIP3      H1            -30.3997449752       -7.0862993232      -10.5504371492  WZ2       852             0.0000000000
      5379      1793  TIP3      H2            -29.4808549752       -7.3862393232       -9.3853071492  WZ2       852             0.0000000000
      5380      1794  TIP3      OH2           -28.7025149752       -3.2875793232       -7.0509171492  WZ2       853             0.0000000000
      5381      1794  TIP3      H1            -28.7973849752       -3.8662693232       -7.8074571492  WZ2       853             0.0000000000
      5382      1794  TIP3      H2            -27.9731549752       -3.6590093232       -6.5546371492  WZ2       853             0.0000000000
      5383      1795  TIP3      OH2           -29.7027149752       -7.9470793232       -6.0986371492  WZ2       854             0.0000000000
      5384      1795  TIP3      H1            -29.1374649752       -7.8256593232       -6.8615171492  WZ2       854             0.0000000000
      5385      1795  TIP3      H2            -29.3838249752       -7.3095793232       -5.4597871492  WZ2       854             0.0000000000
      5386      1796  TIP3      OH2           -23.3934949752       -2.4438893232       -5.3645871492  WZ2       855             0.0000000000
      5387      1796  TIP3      H1            -23.6338349752       -1.7815793232       -4.7166671492  WZ2       855             0.0000000000
      5388      1796  TIP3      H2            -23.5916749752       -3.2783693232       -4.9396271492  WZ2       855             0.0000000000
      5389      1797  TIP3      OH2           -28.8226449752       -3.5478093232       -1.3814471492  WZ2       856             0.0000000000
      5390      1797  TIP3      H1            -29.1338949752       -2.7654893232       -0.9261271492  WZ2       856             0.0000000000
      5391      1797  TIP3      H2            -29.4726249752       -3.7008993232       -2.0672471492  WZ2       856             0.0000000000
      5392      1798  TIP3      OH2           -22.8436849752       -8.1839693232      -13.9295171492  WZ2       857             0.0000000000
      5393      1798  TIP3      H1            -22.2641349752       -8.0339393232      -13.1826271492  WZ2       857             0.0000000000
      5394      1798  TIP3      H2            -22.4296849752       -7.7132293232      -14.6528771492  WZ2       857             0.0000000000
      5395      1799  TIP3      OH2           -31.9026549752       -7.3496993232       -2.1528771492  WZ2       858             0.0000000000
      5396      1799  TIP3      H1            -31.8323349752       -6.6990193232       -1.4543771492  WZ2       858             0.0000000000
      5397      1799  TIP3      H2            -32.7934349752       -7.2469493232       -2.4877871492  WZ2       858             0.0000000000
      5398      1800  TIP3      OH2           -25.1171949752       -1.4471193232      -10.4942071492  WZ2       859             0.0000000000
      5399      1800  TIP3      H1            -24.6434349752       -1.1514893232       -9.7167871492  WZ2       859             0.0000000000
      5400      1800  TIP3      H2            -25.6802649752       -0.7089593232      -10.7272471492  WZ2       859             0.0000000000
      5401      1801  TIP3      OH2           -30.5830549752       -1.4763093232       -0.6180671492  WZ2       860             0.0000000000
      5402      1801  TIP3      H1            -30.5755249752       -1.6123393232       -1.5655171492  WZ2       860             0.0000000000
      5403      1801  TIP3      H2            -31.4990149752       -1.5934993232       -0.3660671492  WZ2       860             0.0000000000
      5404      1802  TIP3      OH2           -19.1448449752      -16.4339293232      -14.1165471492  WZ2       861             0.0000000000
      5405      1802  TIP3      H1            -20.0447749752      -16.2950293232      -13.8214871492  WZ2       861             0.0000000000
      5406      1802  TIP3      H2            -18.8930049752      -15.6024693232      -14.5183771492  WZ2       861             0.0000000000
      5407      1803  TIP3      OH2           -31.0789949752       -7.6462093232      -12.1428571492  WZ2       862             0.0000000000
      5408      1803  TIP3      H1            -31.3708649752       -6.8780393232      -12.6337271492  WZ2       862             0.0000000000
      5409      1803  TIP3      H2            -31.7534749752       -8.3055893232      -12.3057171492  WZ2       862             0.0000000000
      5410      1804  TIP3      OH2           -17.9557049752       -2.0676893232      -15.7401571492  WZ2       863             0.0000000000
      5411      1804  TIP3      H1            -17.8823549752       -1.1286693232      -15.5696271492  WZ2       863             0.0000000000
      5412      1804  TIP3      H2            -17.0501949752       -2.3728293232      -15.7964271492  WZ2       863             0.0000000000
      5413      1805  TIP3      OH2           -34.9859849752       -5.2832893232       -3.3278771492  WZ2       864             0.0000000000
      5414      1805  TIP3      H1            -35.4871449752       -5.3113493232       -4.1429071492  WZ2       864             0.0000000000
      5415      1805  TIP3      H2            -34.9806149752       -6.1889693232       -3.0181471492  WZ2       864             0.0000000000
      5416      1806  TIP3      OH2           -35.2357149752       -2.5029093232       -6.4438571492  WZ2       865             0.0000000000
      5417      1806  TIP3      H1            -34.2896549752       -2.6472093232       -6.4629071492  WZ2       865             0.0000000000
      5418      1806  TIP3      H2            -35.3480849752       -1.7186293232       -5.9067371492  WZ2       865             0.0000000000
      5419      1807  TIP3      OH2           -17.0378649752       -1.8369393232       -0.7614871492  WZ2       866             0.0000000000
      5420      1807  TIP3      H1            -17.0871849752       -2.7921293232       -0.7987271492  WZ2       866             0.0000000000
      5421      1807  TIP3      H2            -17.8646349752       -1.5694093232       -0.3601071492  WZ2       866             0.0000000000
      5422      1808  TIP3      OH2           -26.0594649752       -2.2630193232       -1.8853471492  WZ2       867             0.0000000000
      5423      1808  TIP3      H1            -25.9720049752       -1.4365593232       -1.4104371492  WZ2       867             0.0000000000
      5424      1808  TIP3      H2            -26.9229549752       -2.5926393232       -1.6364171492  WZ2       867             0.0000000000
      5425      1809  TIP3      OH2           -25.6448849752        1.5093506768      -12.0792871492  WZ2       868             0.0000000000
      5426      1809  TIP3      H1            -25.7202849752        1.3880706768      -13.0257671492  WZ2       868             0.0000000000
      5427      1809  TIP3      H2            -25.6120149752        2.4586206768      -11.9608271492  WZ2       868             0.0000000000
      5428      1810  TIP3      OH2           -31.9915049752        0.2980506768      -10.2983871492  WZ2       869             0.0000000000
      5429      1810  TIP3      H1            -31.8394649752       -0.0499093232       -9.4197371492  WZ2       869             0.0000000000
      5430      1810  TIP3      H2            -32.8424649752       -0.0582193232      -10.5536671492  WZ2       869             0.0000000000
      5431      1811  TIP3      OH2           -22.5432849752        0.6633706768      -15.0770471492  WZ2       870             0.0000000000
      5432      1811  TIP3      H1            -22.1684449752       -0.0810193232      -15.5477871492  WZ2       870             0.0000000000
      5433      1811  TIP3      H2            -22.5389149752        0.3934306768      -14.1587171492  WZ2       870             0.0000000000
      5434      1812  TIP3      OH2           -22.8744749752        0.5890806768      -12.3278271492  WZ2       871             0.0000000000
      5435      1812  TIP3      H1            -23.8094949752        0.6892706768      -12.1491271492  WZ2       871             0.0000000000
      5436      1812  TIP3      H2            -22.5942849752       -0.1203193232      -11.7495071492  WZ2       871             0.0000000000
      5437      1813  TIP3      OH2           -19.8858849752      -10.3436893232       -0.2812671492  WZ2       872             0.0000000000
      5438      1813  TIP3      H1            -20.2932049752       -9.8631293232       -1.0019371492  WZ2       872             0.0000000000
      5439      1813  TIP3      H2            -19.8453149752      -11.2490893232       -0.5891871492  WZ2       872             0.0000000000
      5440      1814  TIP3      OH2           -32.7369349752       -3.9597493232       -2.2845971492  WZ2       873             0.0000000000
      5441      1814  TIP3      H1            -32.5208049752       -4.3211893232       -1.4250171492  WZ2       873             0.0000000000
      5442      1814  TIP3      H2            -33.5924649752       -4.3343693232       -2.4942471492  WZ2       873             0.0000000000
      5443      1815  TIP3      OH2           -30.1181349752      -15.4896993232       -6.2891771492  WZ2       874             0.0000000000
      5444      1815  TIP3      H1            -30.9797649752      -15.5768793232       -6.6968871492  WZ2       874             0.0000000000
      5445      1815  TIP3      H2            -30.1405649752      -14.6336893232       -5.8614171492  WZ2       874             0.0000000000
      5446      1816  TIP3      OH2           -25.4553549752      -15.7676593232       -2.9144771492  WZ2       875             0.0000000000
      5447      1816  TIP3      H1            -25.0350449752      -16.1829493232       -2.1614171492  WZ2       875             0.0000000000
      5448      1816  TIP3      H2            -26.3883949752      -15.9463293232       -2.7972771492  WZ2       875             0.0000000000
      5449      1817  TIP3      OH2           -22.1288649752      -12.0121393232       -2.0610271492  WZ2       876             0.0000000000
      5450      1817  TIP3      H1            -22.6429149752      -12.1379193232       -1.2634271492  WZ2       876             0.0000000000
      5451      1817  TIP3      H2            -22.2843949752      -11.0998293232       -2.3054071492  WZ2       876             0.0000000000
      5452      1818  TIP3      OH2           -21.3663749752       -7.1511393232      -16.2997271492  WZ2       877             0.0000000000
      5453      1818  TIP3      H1            -21.3242949752       -7.3737493232      -17.2297271492  WZ2       877             0.0000000000
      5454      1818  TIP3      H2            -20.5171649752       -6.7524293232      -16.1097371492  WZ2       877             0.0000000000
      5455      1819  TIP3      OH2           -25.7936249752      -13.2753193232      -15.6293971492  WZ2       878             0.0000000000
      5456      1819  TIP3      H1            -26.0471449752      -13.2561593232      -14.7065871492  WZ2       878             0.0000000000
      5457      1819  TIP3      H2            -26.0504149752      -14.1467793232      -15.9307771492  WZ2       878             0.0000000000
      5458      1820  TIP3      OH2           -30.0271249752      -10.5242493232       -5.1941571492  WZ2       879             0.0000000000
      5459      1820  TIP3      H1            -30.6689149752      -10.5645193232       -4.4851471492  WZ2       879             0.0000000000
      5460      1820  TIP3      H2            -29.9899249752       -9.5977793232       -5.4318571492  WZ2       879             0.0000000000
      5461      1821  TIP3      OH2           -30.0302149752      -10.3032393232      -10.2821571492  WZ2       880             0.0000000000
      5462      1821  TIP3      H1            -30.9229249752      -10.6436293232      -10.3407771492  WZ2       880             0.0000000000
      5463      1821  TIP3      H2            -29.5795549752      -10.6801493232      -11.0378371492  WZ2       880             0.0000000000
      5464      1822  TIP3      OH2           -24.4946649752       -9.8872093232      -11.4650771492  WZ2       881             0.0000000000
      5465      1822  TIP3      H1            -24.9036349752       -9.0723493232      -11.7565971492  WZ2       881             0.0000000000
      5466      1822  TIP3      H2            -23.7740449752      -10.0271993232      -12.0793671492  WZ2       881             0.0000000000
      5467      1823  TIP3      OH2           -25.3925049752       -9.7115693232        0.0229928508  WZ2       882             0.0000000000
      5468      1823  TIP3      H1            -25.9551249752      -10.4164093232        0.3437728508  WZ2       882             0.0000000000
      5469      1823  TIP3      H2            -24.5661649752       -9.8323793232        0.4907528508  WZ2       882             0.0000000000
      5470      1824  TIP3      OH2           -23.4898949752      -10.4411693232       -8.6511071492  WZ2       883             0.0000000000
      5471      1824  TIP3      H1            -23.6854449752       -9.8354893232       -9.3660471492  WZ2       883             0.0000000000
      5472      1824  TIP3      H2            -23.3086349752      -11.2746493232       -9.0854771492  WZ2       883             0.0000000000
      5473      1825  TIP3      OH2           -32.2770749752      -10.2038993232       -3.3269571492  WZ2       884             0.0000000000
      5474      1825  TIP3      H1            -32.3151349752       -9.8037393232       -2.4582471492  WZ2       884             0.0000000000
      5475      1825  TIP3      H2            -32.7679649752      -11.0206593232       -3.2366671492  WZ2       884             0.0000000000
      5476      1826  TIP3      OH2           -28.9113349752      -12.8296693232      -16.5283571492  WZ2       885             0.0000000000
      5477      1826  TIP3      H1            -29.3422649752      -13.2746593232      -15.7986171492  WZ2       885             0.0000000000
      5478      1826  TIP3      H2            -29.6294649752      -12.4580393232      -17.0406071492  WZ2       885             0.0000000000
      5479      1827  TIP3      OH2           -35.6689949752      -13.0877193232       -9.4764871492  WZ2       886             0.0000000000
      5480      1827  TIP3      H1            -35.0382249752      -13.1165093232       -8.7570971492  WZ2       886             0.0000000000
      5481      1827  TIP3      H2            -35.2195649752      -13.5128493232      -10.2068971492  WZ2       886             0.0000000000
      5482      1828  TIP3      OH2           -34.3947849752      -12.3415193232      -14.0524471492  WZ2       887             0.0000000000
      5483      1828  TIP3      H1            -33.9206149752      -11.7505293232      -14.6373571492  WZ2       887             0.0000000000
      5484      1828  TIP3      H2            -35.1121449752      -11.8112293232      -13.7054371492  WZ2       887             0.0000000000
      5485      1829  TIP3      OH2           -24.2259749752       -8.8030393232       -3.9798671492  WZ2       888             0.0000000000
      5486      1829  TIP3      H1            -23.9024949752       -9.4340693232       -4.6228171492  WZ2       888             0.0000000000
      5487      1829  TIP3      H2            -24.6660449752       -9.3378193232       -3.3191271492  WZ2       888             0.0000000000
      5488      1830  TIP3      OH2           -27.4486849752      -12.8754893232       -9.1957471492  WZ2       889             0.0000000000
      5489      1830  TIP3      H1            -28.3595749752      -12.8188093232       -8.9071471492  WZ2       889             0.0000000000
      5490      1830  TIP3      H2            -26.9433949752      -12.9359393232       -8.3850271492  WZ2       889             0.0000000000
      5491      1831  TIP3      OH2           -32.6203449752      -11.2468593232      -10.3689871492  WZ2       890             0.0000000000
      5492      1831  TIP3      H1            -33.5095449752      -11.1473093232      -10.7090271492  WZ2       890             0.0000000000
      5493      1831  TIP3      H2            -32.3238549752      -12.0885593232      -10.7151971492  WZ2       890             0.0000000000
      5494      1832  TIP3      OH2           -28.9671649752      -11.2465993232      -12.7125271492  WZ2       891             0.0000000000
      5495      1832  TIP3      H1            -28.0356149752      -11.1175993232      -12.5342171492  WZ2       891             0.0000000000
      5496      1832  TIP3      H2            -29.1821349752      -10.5771693232      -13.3620571492  WZ2       891             0.0000000000
      5497      1833  TIP3      OH2           -23.0434949752      -13.6408593232       -5.9315671492  WZ2       892             0.0000000000
      5498      1833  TIP3      H1            -23.7203349752      -13.5095493232       -5.2675971492  WZ2       892             0.0000000000
      5499      1833  TIP3      H2            -23.5290049752      -13.7959093232       -6.7417971492  WZ2       892             0.0000000000
      5500      1834  TIP3      OH2           -30.2931449752      -10.0523793232      -15.1459171492  WZ2       893             0.0000000000
      5501      1834  TIP3      H1            -30.8356349752      -10.4319993232      -15.8371571492  WZ2       893             0.0000000000
      5502      1834  TIP3      H2            -29.4596549752       -9.8579093232      -15.5745071492  WZ2       893             0.0000000000
      5503      1835  TIP3      OH2           -19.7559849752        2.0306806768        0.3451928508  WZ2       894             0.0000000000
      5504      1835  TIP3      H1            -19.5561149752        2.4548706768       -0.4892771492  WZ2       894             0.0000000000
      5505      1835  TIP3      H2            -19.1006149752        2.3745006768        0.9522328508  WZ2       894             0.0000000000
      5506      1836  TIP3      OH2           -32.1580049752       -5.4951893232       -0.0467571492  WZ2       895             0.0000000000
      5507      1836  TIP3      H1            -31.4257649752       -5.2405993232        0.5146928508  WZ2       895             0.0000000000
      5508      1836  TIP3      H2            -32.9381349752       -5.2906493232        0.4687828508  WZ2       895             0.0000000000
      5509      1837  TIP3      OH2           -26.1287149752      -10.0881893232       -7.3087871492  WZ2       896             0.0000000000
      5510      1837  TIP3      H1            -25.5643749752      -10.6345293232       -7.8558271492  WZ2       896             0.0000000000
      5511      1837  TIP3      H2            -26.2763749752      -10.6099993232       -6.5200271492  WZ2       896             0.0000000000
      5512      1838  TIP3      OH2           -31.1267449752      -13.9515793232      -10.8903071492  WZ2       897             0.0000000000
      5513      1838  TIP3      H1            -31.4437949752      -14.8540493232      -10.9257671492  WZ2       897             0.0000000000
      5514      1838  TIP3      H2            -30.3453349752      -13.9498393232      -11.4431471492  WZ2       897             0.0000000000
      5515      1839  TIP3      OH2           -27.5021249752      -11.6995793232       -4.8947471492  WZ2       898             0.0000000000
      5516      1839  TIP3      H1            -28.3375949752      -11.2456293232       -4.7845071492  WZ2       898             0.0000000000
      5517      1839  TIP3      H2            -26.9780649752      -11.4237293232       -4.1427571492  WZ2       898             0.0000000000
      5518      1840  TIP3      OH2           -26.9578649752       -5.4868093232      -13.2101071492  WZ2       899             0.0000000000
      5519      1840  TIP3      H1            -27.7027649752       -5.9942793232      -13.5323171492  WZ2       899             0.0000000000
      5520      1840  TIP3      H2            -27.0921449752       -5.4380093232      -12.2636271492  WZ2       899             0.0000000000
      5521      1841  TIP3      OH2           -19.8079749752       -6.3539893232       -4.4233471492  WZ2       900             0.0000000000
      5522      1841  TIP3      H1            -19.1660949752       -5.8973593232       -4.9671271492  WZ2       900             0.0000000000
      5523      1841  TIP3      H2            -20.6382849752       -6.2407493232       -4.8859371492  WZ2       900             0.0000000000
      5524      1842  TIP3      OH2           -23.0601849752      -12.6728193232      -15.0108471492  WZ2       901             0.0000000000
      5525      1842  TIP3      H1            -23.9987649752      -12.5612593232      -15.1619671492  WZ2       901             0.0000000000
      5526      1842  TIP3      H2            -22.7629749752      -11.8161293232      -14.7042771492  WZ2       901             0.0000000000
      5527      1843  TIP3      OH2           -25.4386549752       -5.3024793232       -1.9731971492  WZ2       902             0.0000000000
      5528      1843  TIP3      H1            -25.7840449752       -5.6842393232       -1.1662371492  WZ2       902             0.0000000000
      5529      1843  TIP3      H2            -25.6386449752       -4.3691193232       -1.9019071492  WZ2       902             0.0000000000
      5530      1844  TIP3      OH2           -22.3418349752      -10.8055493232      -13.3501071492  WZ2       903             0.0000000000
      5531      1844  TIP3      H1            -21.4499349752      -10.9430493232      -13.0309871492  WZ2       903             0.0000000000
      5532      1844  TIP3      H2            -22.2854749752      -10.0149393232      -13.8867571492  WZ2       903             0.0000000000
      5533      1845  TIP3      OH2           -31.8330349752       -6.1918093232       -7.4403171492  WZ2       904             0.0000000000
      5534      1845  TIP3      H1            -31.0883149752       -6.1942393232       -8.0416671492  WZ2       904             0.0000000000
      5535      1845  TIP3      H2            -31.7553749752       -7.0154293232       -6.9588071492  WZ2       904             0.0000000000
      5536      1846  TIP3      OH2           -24.8324549752       -4.0283793232      -14.1846471492  WZ2       905             0.0000000000
      5537      1846  TIP3      H1            -25.1276149752       -3.2015893232      -13.8031671492  WZ2       905             0.0000000000
      5538      1846  TIP3      H2            -25.5354549752       -4.6476893232      -13.9885071492  WZ2       905             0.0000000000
      5539      1847  TIP3      OH2           -34.8250649752       -7.7311193232       -2.1254671492  WZ2       906             0.0000000000
      5540      1847  TIP3      H1            -34.6022049752       -8.1491593232       -1.2937171492  WZ2       906             0.0000000000
      5541      1847  TIP3      H2            -35.4270549752       -8.3436193232       -2.5481871492  WZ2       906             0.0000000000
      5542      1848  TIP3      OH2           -27.8085749752       -8.2141293232        0.0875028508  WZ2       907             0.0000000000
      5543      1848  TIP3      H1            -28.1044949752       -8.3798293232       -0.8075871492  WZ2       907             0.0000000000
      5544      1848  TIP3      H2            -26.8770549752       -8.4340993232        0.0768928508  WZ2       907             0.0000000000
      5545      1849  TIP3      OH2           -23.1882949752       -2.8409293232       -2.0226971492  WZ2       908             0.0000000000
      5546      1849  TIP3      H1            -24.0888649752       -2.6576693232       -2.2903071492  WZ2       908             0.0000000000
      5547      1849  TIP3      H2            -23.1541849752       -2.5819993232       -1.1018171492  WZ2       908             0.0000000000
      5548      1850  TIP3      OH2           -17.4569649752      -10.5961393232      -13.6554371492  WZ2       909             0.0000000000
      5549      1850  TIP3      H1            -18.0113349752      -10.9923393232      -14.3276871492  WZ2       909             0.0000000000
      5550      1850  TIP3      H2            -17.3566049752       -9.6856193232      -13.9331071492  WZ2       909             0.0000000000
      5551      1851  TIP3      OH2           -17.4937649752       -4.7959693232       -0.8182871492  WZ2       910             0.0000000000
      5552      1851  TIP3      H1            -18.3449149752       -4.5575893232       -1.1856471492  WZ2       910             0.0000000000
      5553      1851  TIP3      H2            -16.9034249752       -4.8126493232       -1.5715771492  WZ2       910             0.0000000000
      5554      1852  TIP3      OH2           -19.1617949752       -1.8100993232      -13.1902271492  WZ2       911             0.0000000000
      5555      1852  TIP3      H1            -19.5346849752       -2.6357193232      -12.8811671492  WZ2       911             0.0000000000
      5556      1852  TIP3      H2            -18.8844449752       -1.9931593232      -14.0878871492  WZ2       911             0.0000000000
      5557      1853  TIP3      OH2           -22.0014049752       -7.0021493232       -6.1690371492  WZ2       912             0.0000000000
      5558      1853  TIP3      H1            -22.9297149752       -7.2339593232       -6.1961071492  WZ2       912             0.0000000000
      5559      1853  TIP3      H2            -21.5502949752       -7.7791693232       -6.4991571492  WZ2       912             0.0000000000
      5560      1854  TIP3      OH2           -29.4580949752       -2.6739893232      -10.0361671492  WZ2       913             0.0000000000
      5561      1854  TIP3      H1            -28.9308749752       -1.9005493232      -10.2362871492  WZ2       913             0.0000000000
      5562      1854  TIP3      H2            -30.3382449752       -2.4490693232      -10.3377671492  WZ2       913             0.0000000000
      5563      1855  TIP3      OH2           -33.7033249752       -7.8115793232      -15.4489271492  WZ2       914             0.0000000000
      5564      1855  TIP3      H1            -33.0873349752       -7.1848593232      -15.0694471492  WZ2       914             0.0000000000
      5565      1855  TIP3      H2            -34.5650649752       -7.4955993232      -15.1772771492  WZ2       914             0.0000000000
      5566      1856  TIP3      OH2           -28.0308649752       -5.0109993232      -10.4597371492  WZ2       915             0.0000000000
      5567      1856  TIP3      H1            -28.2718649752       -4.0855593232      -10.4182071492  WZ2       915             0.0000000000
      5568      1856  TIP3      H2            -28.7715049752       -5.4698693232      -10.0633471492  WZ2       915             0.0000000000
      5569      1857  TIP3      OH2           -27.5162049752       -0.8616393232       -4.1446271492  WZ2       916             0.0000000000
      5570      1857  TIP3      H1            -27.1537349752       -0.0070793232       -4.3781871492  WZ2       916             0.0000000000
      5571      1857  TIP3      H2            -26.9846849752       -1.1534793232       -3.4039971492  WZ2       916             0.0000000000
      5572      1858  TIP3      OH2           -29.3477849752        0.0107606768      -10.9145171492  WZ2       917             0.0000000000
      5573      1858  TIP3      H1            -30.2977349752        0.1165006768      -10.8631871492  WZ2       917             0.0000000000
      5574      1858  TIP3      H2            -28.9959749752        0.8315006768      -10.5697671492  WZ2       917             0.0000000000
      5575      1859  TIP3      OH2           -23.9721249752       -4.7625693232       -4.4440671492  WZ2       918             0.0000000000
      5576      1859  TIP3      H1            -24.3979949752       -4.9903993232       -3.6176671492  WZ2       918             0.0000000000
      5577      1859  TIP3      H2            -23.3915449752       -5.5013893232       -4.6265371492  WZ2       918             0.0000000000
      5578      1860  TIP3      OH2           -21.7692349752       -3.8335193232      -15.3701671492  WZ2       919             0.0000000000
      5579      1860  TIP3      H1            -21.4159249752       -4.2135393232      -14.5658171492  WZ2       919             0.0000000000
      5580      1860  TIP3      H2            -22.7178849752       -3.9270393232      -15.2832371492  WZ2       919             0.0000000000
      5581      1861  TIP3      OH2           -21.3137049752       -0.2106193232       -1.9745871492  WZ2       920             0.0000000000
      5582      1861  TIP3      H1            -21.9153849752       -0.7663293232       -2.4699571492  WZ2       920             0.0000000000
      5583      1861  TIP3      H2            -21.0323349752        0.4563606768       -2.6008471492  WZ2       920             0.0000000000
      5584      1862  TIP3      OH2           -17.2657949752        0.6457306768      -15.1691471492  WZ2       921             0.0000000000
      5585      1862  TIP3      H1            -16.5220049752        1.2317806768      -15.3089871492  WZ2       921             0.0000000000
      5586      1862  TIP3      H2            -17.9599849752        1.2143106768      -14.8359071492  WZ2       921             0.0000000000
      5587      1863  TIP3      OH2           -33.1911149752      -12.9778493232       -2.5673271492  WZ2       922             0.0000000000
      5588      1863  TIP3      H1            -34.0838849752      -12.6393093232       -2.6349271492  WZ2       922             0.0000000000
      5589      1863  TIP3      H2            -33.2898349752      -13.8332393232       -2.1492471492  WZ2       922             0.0000000000
      5590      1864  TIP3      OH2           -20.9033049752       -5.1613193232      -13.1433771492  WZ2       923             0.0000000000
      5591      1864  TIP3      H1            -21.1805449752       -5.8893893232      -12.5872671492  WZ2       923             0.0000000000
      5592      1864  TIP3      H2            -19.9760049752       -5.0421193232      -12.9381171492  WZ2       923             0.0000000000
      5593      1865  TIP3      OH2           -33.5399149752       -1.1734093232       -4.1323871492  WZ2       924             0.0000000000
      5594      1865  TIP3      H1            -33.3228849752       -2.1051693232       -4.1634171492  WZ2       924             0.0000000000
      5595      1865  TIP3      H2            -33.2935649752       -0.8989093232       -3.2491071492  WZ2       924             0.0000000000
      5596      1866  TIP3      OH2           -27.6784549752       -2.7219093232      -16.9231671492  WZ2       925             0.0000000000
      5597      1866  TIP3      H1            -27.4394749752       -3.4700993232      -17.4702771492  WZ2       925             0.0000000000
      5598      1866  TIP3      H2            -27.9473249752       -3.1097393232      -16.0903871492  WZ2       925             0.0000000000
      5599      1867  TIP3      OH2           -28.7413949752       -3.1515293232      -14.4669071492  WZ2       926             0.0000000000
      5600      1867  TIP3      H1            -28.5945949752       -3.6715493232      -13.6768171492  WZ2       926             0.0000000000
      5601      1867  TIP3      H2            -28.7442249752       -2.2447693232      -14.1603171492  WZ2       926             0.0000000000
      5602      1868  TIP3      OH2           -32.2882849752       -5.8991993232      -13.9563671492  WZ2       927             0.0000000000
      5603      1868  TIP3      H1            -32.9743549752       -5.5469493232      -13.3893971492  WZ2       927             0.0000000000
      5604      1868  TIP3      H2            -31.7654949752       -5.1362393232      -14.2029371492  WZ2       927             0.0000000000
      5605      1869  TIP3      OH2           -24.4567749752      -13.2368193232       -3.6774671492  WZ2       928             0.0000000000
      5606      1869  TIP3      H1            -23.7579849752      -13.1629493232       -3.0274971492  WZ2       928             0.0000000000
      5607      1869  TIP3      H2            -24.8376349752      -14.1013193232       -3.5231771492  WZ2       928             0.0000000000
      5608      1870  TIP3      OH2           -23.6722849752      -13.5846493232      -12.5802371492  WZ2       929             0.0000000000
      5609      1870  TIP3      H1            -23.4524549752      -13.1131093232      -13.3836971492  WZ2       929             0.0000000000
      5610      1870  TIP3      H2            -23.1138849752      -13.1903893232      -11.9101771492  WZ2       929             0.0000000000
      5611      1871  TIP3      OH2           -26.0036749752       -1.4541693232      -13.7174871492  WZ2       930             0.0000000000
      5612      1871  TIP3      H1            -26.8200649752       -0.9571993232      -13.6650571492  WZ2       930             0.0000000000
      5613      1871  TIP3      H2            -25.4740449752       -0.9788193232      -14.3576071492  WZ2       930             0.0000000000
      5614      1872  TIP3      OH2           -26.4722949752      -11.8567693232      -11.7453971492  WZ2       931             0.0000000000
      5615      1872  TIP3      H1            -25.6600349752      -11.3524493232      -11.6992271492  WZ2       931             0.0000000000
      5616      1872  TIP3      H2            -26.7169949752      -12.0017993232      -10.8314371492  WZ2       931             0.0000000000
      5617      1873  TIP3      OH2           -25.9366549752      -10.8704993232       -2.5607371492  WZ2       932             0.0000000000
      5618      1873  TIP3      H1            -25.8176249752      -10.2969593232       -1.8036971492  WZ2       932             0.0000000000
      5619      1873  TIP3      H2            -25.2811949752      -11.5585593232       -2.4459571492  WZ2       932             0.0000000000
      5620      1874  TIP3      OH2           -25.5886249752      -14.7754693232      -10.8072871492  WZ2       933             0.0000000000
      5621      1874  TIP3      H1            -25.9352749752      -14.1584093232      -10.1628571492  WZ2       933             0.0000000000
      5622      1874  TIP3      H2            -24.9299349752      -14.2748993232      -11.2887371492  WZ2       933             0.0000000000
      5623      1875  TIP3      OH2           -28.6653649752       -0.4104493232      -13.7357971492  WZ2       934             0.0000000000
      5624      1875  TIP3      H1            -28.5044949752        0.3893006768      -14.2365371492  WZ2       934             0.0000000000
      5625      1875  TIP3      H2            -28.8625849752       -0.1038493232      -12.8507371492  WZ2       934             0.0000000000
      5626      1876  TIP3      OH2           -29.9309249752      -13.7125293232      -14.1200371492  WZ2       935             0.0000000000
      5627      1876  TIP3      H1            -30.0144449752      -12.8242193232      -13.7733971492  WZ2       935             0.0000000000
      5628      1876  TIP3      H2            -29.0408949752      -13.9778593232      -13.8883571492  WZ2       935             0.0000000000
      5629      1877  TIP3      OH2           -19.7320749752      -12.9634693232       -1.7257671492  WZ2       936             0.0000000000
      5630      1877  TIP3      H1            -20.6484949752      -12.7012993232       -1.8133971492  WZ2       936             0.0000000000
      5631      1877  TIP3      H2            -19.3965749752      -12.9665693232       -2.6222371492  WZ2       936             0.0000000000
      5632      1878  TIP3      OH2           -21.1299749752       -9.2133693232       -7.6300371492  WZ2       937             0.0000000000
      5633      1878  TIP3      H1            -21.9275349752       -9.6283493232       -7.9585371492  WZ2       937             0.0000000000
      5634      1878  TIP3      H2            -20.6848649752       -9.9039993232       -7.1389871492  WZ2       937             0.0000000000
      5635      1879  TIP3      OH2           -31.6723949752       -3.2853093232      -15.0595871492  WZ2       938             0.0000000000
      5636      1879  TIP3      H1            -31.0802449752       -2.5858293232      -14.7833471492  WZ2       938             0.0000000000
      5637      1879  TIP3      H2            -31.2130949752       -3.7183593232      -15.7791271492  WZ2       938             0.0000000000
      5638      1880  TIP3      OH2           -33.3564749752      -10.6210093232      -15.9436471492  WZ2       939             0.0000000000
      5639      1880  TIP3      H1            -33.4012149752       -9.6816993232      -15.7649471492  WZ2       939             0.0000000000
      5640      1880  TIP3      H2            -34.2441549752      -10.8565193232      -16.2134371492  WZ2       939             0.0000000000
      5641      1881  TIP3      OH2           -20.0435149752        0.0428806768       -6.0076871492  WZ2       940             0.0000000000
      5642      1881  TIP3      H1            -20.1990849752        0.7213206768       -6.6647571492  WZ2       940             0.0000000000
      5643      1881  TIP3      H2            -19.1108749752        0.1148106768       -5.8046271492  WZ2       940             0.0000000000
      5644      1882  TIP3      OH2           -32.5482749752      -15.8393493232       -7.2705471492  WZ2       941             0.0000000000
      5645      1882  TIP3      H1            -32.7772949752      -15.7800993232       -8.1980471492  WZ2       941             0.0000000000
      5646      1882  TIP3      H2            -32.9909349752      -16.6307993232       -6.9641371492  WZ2       941             0.0000000000
      5647      1883  TIP3      OH2           -33.6179449752       -1.8986393232      -11.1099671492  WZ2       942             0.0000000000
      5648      1883  TIP3      H1            -34.4500849752       -1.4263693232      -11.0828271492  WZ2       942             0.0000000000
      5649      1883  TIP3      H2            -33.0721149752       -1.3888793232      -11.7086571492  WZ2       942             0.0000000000
      5650      1884  TIP3      OH2           -34.3295749752        0.7137306768        0.2198328508  WZ2       943             0.0000000000
      5651      1884  TIP3      H1            -33.7893549752        0.4971306768        0.9797528508  WZ2       943             0.0000000000
      5652      1884  TIP3      H2            -34.8107749752       -0.0916693232        0.0300828508  WZ2       943             0.0000000000
      5653      1885  TIP3      OH2           -29.7322349752       -0.3668293232        1.8402528508  WZ2       944             0.0000000000
      5654      1885  TIP3      H1            -28.9645149752       -0.8257493232        2.1811728508  WZ2       944             0.0000000000
      5655      1885  TIP3      H2            -29.7536149752       -0.5928493232        0.9103728508  WZ2       944             0.0000000000
      5656      1886  TIP3      OH2           -25.6402749752       -0.8587693232      -16.7845671492  WZ2       945             0.0000000000
      5657      1886  TIP3      H1            -26.2841749752       -1.4899093232      -16.4631971492  WZ2       945             0.0000000000
      5658      1886  TIP3      H2            -24.8784449752       -1.3899693232      -17.0162171492  WZ2       945             0.0000000000
      5659      1887  TIP3      OH2           -23.1553649752       -1.9867193232        0.5694028508  WZ2       946             0.0000000000
      5660      1887  TIP3      H1            -23.5064149752       -2.8434193232        0.8124428508  WZ2       946             0.0000000000
      5661      1887  TIP3      H2            -22.4290449752       -1.8440493232        1.1763028508  WZ2       946             0.0000000000
      5662      1888  TIP3      OH2           -21.0359849752       -1.0417793232      -16.5507671492  WZ2       947             0.0000000000
      5663      1888  TIP3      H1            -20.7529449752       -1.8362593232      -16.0980771492  WZ2       947             0.0000000000
      5664      1888  TIP3      H2            -20.2961949752       -0.8086793232      -17.1116571492  WZ2       947             0.0000000000
      5665      1889  TIP3      OH2           -34.4226249752       -5.4758593232        1.1742628508  WZ2       948             0.0000000000
      5666      1889  TIP3      H1            -34.2785749752       -6.3777893232        0.8879328508  WZ2       948             0.0000000000
      5667      1889  TIP3      H2            -35.1948849752       -5.1896493232        0.6864928508  WZ2       948             0.0000000000
      5668      1890  TIP3      OH2           -30.0812549752       -5.1322893232      -16.6932771492  WZ2       949             0.0000000000
      5669      1890  TIP3      H1            -30.0168449752       -5.9263293232      -16.1626371492  WZ2       949             0.0000000000
      5670      1890  TIP3      H2            -29.4283349752       -5.2510093232      -17.3830771492  WZ2       949             0.0000000000
      5671      1891  TIP3      OH2           -27.7670149752       -5.5060493232        0.6069028508  WZ2       950             0.0000000000
      5672      1891  TIP3      H1            -28.0956349752       -5.2352393232       -0.2503571492  WZ2       950             0.0000000000
      5673      1891  TIP3      H2            -27.6151949752       -6.4470693232        0.5194028508  WZ2       950             0.0000000000
      5674      1892  TIP3      OH2           -24.7289149752       -4.0851193232      -16.9574771492  WZ2       951             0.0000000000
      5675      1892  TIP3      H1            -24.9975049752       -3.9049093232      -16.0565871492  WZ2       951             0.0000000000
      5676      1892  TIP3      H2            -24.9353549752       -5.0104993232      -17.0888971492  WZ2       951             0.0000000000
      5677      1893  TIP3      OH2           -22.0324949752       -5.5903193232       -2.0098671492  WZ2       952             0.0000000000
      5678      1893  TIP3      H1            -21.2870149752       -5.0019493232       -2.1294671492  WZ2       952             0.0000000000
      5679      1893  TIP3      H2            -22.7898149752       -5.0083493232       -1.9465571492  WZ2       952             0.0000000000
      5680      1894  TIP3      OH2           -33.5899749752       -8.2755293232        0.5941928508  WZ2       953             0.0000000000
      5681      1894  TIP3      H1            -33.1818549752       -9.1328693232        0.4732528508  WZ2       953             0.0000000000
      5682      1894  TIP3      H2            -33.8502149752       -8.2613993232        1.5152228508  WZ2       953             0.0000000000
      5683      1895  TIP3      OH2           -28.9318749752       -7.1596693232      -14.3874771492  WZ2       954             0.0000000000
      5684      1895  TIP3      H1            -29.3916749752       -7.6438393232      -13.7016271492  WZ2       954             0.0000000000
      5685      1895  TIP3      H2            -28.6770049752       -7.8281293232      -15.0234271492  WZ2       954             0.0000000000
      5686      1896  TIP3      OH2           -29.6429449752       -9.2669593232       -2.0315171492  WZ2       955             0.0000000000
      5687      1896  TIP3      H1            -30.2613349752       -8.5922993232       -1.7510471492  WZ2       955             0.0000000000
      5688      1896  TIP3      H2            -29.2988249752       -8.9455693232       -2.8648971492  WZ2       955             0.0000000000
      5689      1897  TIP3      OH2           -27.8608349752       -8.9164893232      -16.1251571492  WZ2       956             0.0000000000
      5690      1897  TIP3      H1            -28.0413349752       -9.0713693232      -17.0523271492  WZ2       956             0.0000000000
      5691      1897  TIP3      H2            -26.9107849752       -8.8086193232      -16.0803671492  WZ2       956             0.0000000000
      5692      1898  TIP3      OH2           -24.6231249752       -6.7954293232        1.2459628508  WZ2       957             0.0000000000
      5693      1898  TIP3      H1            -23.6700049752       -6.7115193232        1.2185628508  WZ2       957             0.0000000000
      5694      1898  TIP3      H2            -24.7836649752       -7.5072493232        1.8654528508  WZ2       957             0.0000000000
      5695      1899  TIP3      OH2           -18.4710049752       -6.5620693232      -16.6793471492  WZ2       958             0.0000000000
      5696      1899  TIP3      H1            -18.7445249752       -6.9865193232      -17.4925171492  WZ2       958             0.0000000000
      5697      1899  TIP3      H2            -18.4315949752       -5.6306193232      -16.8963071492  WZ2       958             0.0000000000
      5698      1900  TIP3      OH2           -29.3035749752      -11.9118793232       -0.9492071492  WZ2       959             0.0000000000
      5699      1900  TIP3      H1            -29.1534849752      -12.6407493232       -1.5512371492  WZ2       959             0.0000000000
      5700      1900  TIP3      H2            -29.3013349752      -11.1347093232       -1.5079871492  WZ2       959             0.0000000000
      5701      1901  TIP3      OH2           -28.8910049752      -13.5422993232       -3.4564671492  WZ2       960             0.0000000000
      5702      1901  TIP3      H1            -28.3552549752      -13.0906293232       -4.1085371492  WZ2       960             0.0000000000
      5703      1901  TIP3      H2            -29.7430449752      -13.6503193232       -3.8790571492  WZ2       960             0.0000000000
      5704      1902  TIP3      OH2           -27.3091649752       -8.1026793232       -3.2169471492  WZ2       961             0.0000000000
      5705      1902  TIP3      H1            -26.5586849752       -8.2589293232       -3.7901671492  WZ2       961             0.0000000000
      5706      1902  TIP3      H2            -27.6483349752       -7.2510193232       -3.4923971492  WZ2       961             0.0000000000
      5707      1903  TIP3      OH2           -22.8935449752      -10.2874993232        1.8115828508  WZ2       962             0.0000000000
      5708      1903  TIP3      H1            -22.7014149752      -11.2185593232        1.7000328508  WZ2       962             0.0000000000
      5709      1903  TIP3      H2            -22.0359149752       -9.8625493232        1.8011228508  WZ2       962             0.0000000000
      5710      1904  TIP3      OH2           -21.5768249752       -7.4989793232       -0.1111471492  WZ2       963             0.0000000000
      5711      1904  TIP3      H1            -21.8583249752       -6.7895193232       -0.6887671492  WZ2       963             0.0000000000
      5712      1904  TIP3      H2            -20.6343949752       -7.5716793232       -0.2620271492  WZ2       963             0.0000000000
      5713      1905  TIP3      OH2           -30.8249449752      -10.7135293232        0.9623528508  WZ2       964             0.0000000000
      5714      1905  TIP3      H1            -31.5920449752      -11.2460493232        0.7521128508  WZ2       964             0.0000000000
      5715      1905  TIP3      H2            -30.1460449752      -11.0234893232        0.3629828508  WZ2       964             0.0000000000
      5716      1906  TIP3      OH2           -28.0854549752      -16.0857293232       -3.0251071492  WZ2       965             0.0000000000
      5717      1906  TIP3      H1            -28.1834949752      -15.1394093232       -3.1304871492  WZ2       965             0.0000000000
      5718      1906  TIP3      H2            -28.8278349752      -16.4583493232       -3.5007571492  WZ2       965             0.0000000000
      5719      1907  TIP3      OH2           -26.8214049752      -11.7641893232        0.5387328508  WZ2       966             0.0000000000
      5720      1907  TIP3      H1            -27.0568649752      -11.9835193232        1.4402228508  WZ2       966             0.0000000000
      5721      1907  TIP3      H2            -27.6047149752      -11.9710693232        0.0289828508  WZ2       966             0.0000000000
      5722      1908  TIP3      OH2           -24.1057449752      -12.6368393232       -0.3859171492  WZ2       967             0.0000000000
      5723      1908  TIP3      H1            -25.0532049752      -12.6048693232       -0.2535871492  WZ2       967             0.0000000000
      5724      1908  TIP3      H2            -23.7930749752      -13.2621293232        0.2679028508  WZ2       967             0.0000000000
      5725      1909  TIP3      OH2           -22.4715949752      -14.0027293232        1.6192728508  WZ2       968             0.0000000000
      5726      1909  TIP3      H1            -22.5684149752      -14.9549993232        1.6134628508  WZ2       968             0.0000000000
      5727      1909  TIP3      H2            -22.7932849752      -13.7340493232        2.4798228508  WZ2       968             0.0000000000
      5728      1910  TIP3      OH2           -32.6446649752      -12.7931493232        0.6668228508  WZ2       969             0.0000000000
      5729      1910  TIP3      H1            -32.4329249752      -13.4995393232        0.0565728508  WZ2       969             0.0000000000
      5730      1910  TIP3      H2            -32.7559149752      -13.2305493232        1.5109428508  WZ2       969             0.0000000000
      5731      1911  TIP3      OH2           -27.8636449752      -16.7919893232       -0.3538271492  WZ2       970             0.0000000000
      5732      1911  TIP3      H1            -27.1518049752      -17.4317693232       -0.3679171492  WZ2       970             0.0000000000
      5733      1911  TIP3      H2            -27.9646049752      -16.5251593232       -1.2675171492  WZ2       970             0.0000000000
      5734      1912  TIP3      OH2           -27.5098949752      -15.1091493232        1.6998028508  WZ2       971             0.0000000000
      5735      1912  TIP3      H1            -27.6416749752      -15.5847693232        0.8796528508  WZ2       971             0.0000000000
      5736      1912  TIP3      H2            -28.1091549752      -14.3647893232        1.6445128508  WZ2       971             0.0000000000
      5737      1913  TIP3      OH2           -27.9636649752        1.7738806768      -15.1237971492  WZ2       972             0.0000000000
      5738      1913  TIP3      H1            -27.0305949752        1.9317506768      -14.9799571492  WZ2       972             0.0000000000
      5739      1913  TIP3      H2            -28.2277849752        2.4491806768      -15.7486471492  WZ2       972             0.0000000000
      5740      1914  TIP3      OH2           -34.3951749752       -3.5897393232      -15.6409871492  WZ2       973             0.0000000000
      5741      1914  TIP3      H1            -33.4812549752       -3.5108493232      -15.3675971492  WZ2       973             0.0000000000
      5742      1914  TIP3      H2            -34.3878649752       -4.2767793232      -16.3074271492  WZ2       973             0.0000000000
      5743      1915  TIP3      OH2           -17.3277149752        0.6934506768       -5.7784971492  WZ2       976             0.0000000000
      5744      1915  TIP3      H1            -17.3490449752        0.8782906768       -4.8395571492  WZ2       976             0.0000000000
      5745      1915  TIP3      H2            -16.6370949752        1.2618506768       -6.1193571492  WZ2       976             0.0000000000
      5746      1916  TIP3      OH2           -17.7644249752        0.2605606768       -2.8565871492  WZ2       977             0.0000000000
      5747      1916  TIP3      H1            -18.2515549752       -0.4750293232       -3.2278471492  WZ2       977             0.0000000000
      5748      1916  TIP3      H2            -17.2151549752       -0.1330493232       -2.1786471492  WZ2       977             0.0000000000
      5749      1917  TIP3      OH2           -19.3136949752       -3.9496293232        1.7814428508  WZ2       978             0.0000000000
      5750      1917  TIP3      H1            -20.1795849752       -4.0546593232        2.1756728508  WZ2       978             0.0000000000
      5751      1917  TIP3      H2            -18.9371049752       -3.1912993232        2.2279128508  WZ2       978             0.0000000000
      5752      1918  TIP3      OH2           -18.0127249752       -5.6932593232      -12.7043071492  WZ2       979             0.0000000000
      5753      1918  TIP3      H1            -17.1625849752       -5.2721693232      -12.5771471492  WZ2       979             0.0000000000
      5754      1918  TIP3      H2            -18.0072149752       -6.4332493232      -12.0971671492  WZ2       979             0.0000000000
      5755      1919  TIP3      OH2           -17.6181649752       -7.6395193232      -10.8807371492  WZ2       980             0.0000000000
      5756      1919  TIP3      H1            -18.3447049752       -8.1192593232      -10.4829771492  WZ2       980             0.0000000000
      5757      1919  TIP3      H2            -17.0368349752       -7.4340493232      -10.1485771492  WZ2       980             0.0000000000
      5758      1920  TIP3      OH2           -17.8590449752       -4.8547693232       -5.9329771492  WZ2       981             0.0000000000
      5759      1920  TIP3      H1            -17.0256249752       -5.2327693232       -6.2136171492  WZ2       981             0.0000000000
      5760      1920  TIP3      H2            -17.7470149752       -3.9116493232       -6.0520671492  WZ2       981             0.0000000000
      5761      1921  TIP3      OH2           -19.3728149752       -1.9770193232       -3.6261371492  WZ2       982             0.0000000000
      5762      1921  TIP3      H1            -20.0202849752       -1.6518693232       -3.0006171492  WZ2       982             0.0000000000
      5763      1921  TIP3      H2            -19.8904149752       -2.4172493232       -4.3003071492  WZ2       982             0.0000000000
      5764      1922  TIP3      OH2           -17.3498549752       -7.7386693232      -14.4896071492  WZ2       983             0.0000000000
      5765      1922  TIP3      H1            -17.8717449752       -7.3822593232      -15.2085171492  WZ2       983             0.0000000000
      5766      1922  TIP3      H2            -17.3829349752       -7.0638893232      -13.8115171492  WZ2       983             0.0000000000
      5767      1923  TIP3      OH2           -19.0009549752      -10.4991093232      -15.9388971492  WZ2       984             0.0000000000
      5768      1923  TIP3      H1            -18.9045149752       -9.8324093232      -16.6189271492  WZ2       984             0.0000000000
      5769      1923  TIP3      H2            -19.1409949752      -11.3144793232      -16.4203471492  WZ2       984             0.0000000000
      5770      1924  TIP3      OH2           -19.8314849752       -9.1188693232      -10.3178671492  WZ2       985             0.0000000000
      5771      1924  TIP3      H1            -19.9816049752      -10.0640093232      -10.3380871492  WZ2       985             0.0000000000
      5772      1924  TIP3      H2            -20.1850349752       -8.8377293232       -9.4739571492  WZ2       985             0.0000000000
      5773      1925  TIP3      OH2           -34.7962449752       -7.0406493232       -6.3074871492  WZ2       986             0.0000000000
      5774      1925  TIP3      H1            -34.6119549752       -7.1224793232       -7.2431971492  WZ2       986             0.0000000000
      5775      1925  TIP3      H2            -33.9469549752       -7.1649493232       -5.8838471492  WZ2       986             0.0000000000
      5776      1926  TIP3      OH2           -18.9751949752       -7.1485393232       -0.6790371492  WZ2       987             0.0000000000
      5777      1926  TIP3      H1            -18.3924649752       -7.8833093232       -0.4873171492  WZ2       987             0.0000000000
      5778      1926  TIP3      H2            -18.4112649752       -6.3765093232       -0.6324571492  WZ2       987             0.0000000000
      5779      1927  TIP3      OH2           -17.4784849752       -9.2459593232        0.0055028508  WZ2       988             0.0000000000
      5780      1927  TIP3      H1            -18.3418149752       -9.6247493232       -0.1600271492  WZ2       988             0.0000000000
      5781      1927  TIP3      H2            -16.8741149752       -9.9844793232       -0.0689171492  WZ2       988             0.0000000000
      5782      1928  TIP3      OH2           -19.7535749752      -13.0911293232      -16.8213471492  WZ2       989             0.0000000000
      5783      1928  TIP3      H1            -19.1429949752      -13.4624493232      -16.1845271492  WZ2       989             0.0000000000
      5784      1928  TIP3      H2            -20.5904249752      -13.5124393232      -16.6253471492  WZ2       989             0.0000000000
      5785      1929  TIP3      OH2           -20.1210049752      -11.5362893232      -11.8553571492  WZ2       990             0.0000000000
      5786      1929  TIP3      H1            -19.8412949752      -12.4432493232      -11.7311871492  WZ2       990             0.0000000000
      5787      1929  TIP3      H2            -19.3618349752      -11.1021393232      -12.2444371492  WZ2       990             0.0000000000
      5788      1930  TIP3      OH2           -19.5091749752      -10.9545493232       -6.4194671492  WZ2       991             0.0000000000
      5789      1930  TIP3      H1            -18.5763749752      -10.7425593232       -6.4538671492  WZ2       991             0.0000000000
      5790      1930  TIP3      H2            -19.7444249752      -10.8533393232       -5.4971671492  WZ2       991             0.0000000000
      5791      1931  TIP3      OH2           -19.4799849752      -10.2180193232       -3.6435271492  WZ2       992             0.0000000000
      5792      1931  TIP3      H1            -20.3228549752       -9.9499793232       -3.2775471492  WZ2       992             0.0000000000
      5793      1931  TIP3      H2            -19.0375549752       -9.3958293232       -3.8544171492  WZ2       992             0.0000000000
      5794      1932  TIP3      OH2           -35.1987649752      -11.7701493232       -0.1666071492  WZ2       993             0.0000000000
      5795      1932  TIP3      H1            -34.2792749752      -11.8923193232        0.0697028508  WZ2       993             0.0000000000
      5796      1932  TIP3      H2            -35.6483149752      -12.5201793232        0.2227428508  WZ2       993             0.0000000000
      5797      1933  TIP3      OH2           -17.1968249752      -16.2379993232        1.7099728508  WZ2       994             0.0000000000
      5798      1933  TIP3      H1            -16.8471249752      -16.8916493232        1.1044428508  WZ2       994             0.0000000000
      5799      1933  TIP3      H2            -17.0498749752      -15.4005893232        1.2702328508  WZ2       994             0.0000000000
      5800      1934  TIP3      OH2           -19.5075249752      -14.2733593232      -11.8071571492  WZ2       995             0.0000000000
      5801      1934  TIP3      H1            -19.3250249752      -14.7222093232      -10.9816571492  WZ2       995             0.0000000000
      5802      1934  TIP3      H2            -20.1072349752      -14.8579193232      -12.2706971492  WZ2       995             0.0000000000
      5803      1935  TIP3      OH2           -33.9775149752      -13.4579893232       -7.2753171492  WZ2       996             0.0000000000
      5804      1935  TIP3      H1            -33.5323549752      -14.2497393232       -6.9733471492  WZ2       996             0.0000000000
      5805      1935  TIP3      H2            -33.5112149752      -12.7414693232       -6.8447571492  WZ2       996             0.0000000000
      5806      1936  TIP3      OH2           -35.6734849752      -10.4586893232       -6.2062971492  WZ2       997             0.0000000000
      5807      1936  TIP3      H1            -35.1815049752      -10.6796393232       -6.9970971492  WZ2       997             0.0000000000
      5808      1936  TIP3      H2            -35.3113949752       -9.6183493232       -5.9253471492  WZ2       997             0.0000000000
      5809      1937  TIP3      OH2           -17.6771049752      -14.1285393232        0.0591028508  WZ2       998             0.0000000000
      5810      1937  TIP3      H1            -18.5945349752      -13.8578293232        0.0234528508  WZ2       998             0.0000000000
      5811      1937  TIP3      H2            -17.5541649752      -14.6636993232       -0.7249271492  WZ2       998             0.0000000000
      5812      1938  TIP3      OH2           -17.6409049752      -14.2055493232      -15.2791271492  WZ2       999             0.0000000000
      5813      1938  TIP3      H1            -17.2286449752      -14.9269793232      -15.7543271492  WZ2       999             0.0000000000
      5814      1938  TIP3      H2            -16.9592549752      -13.5360893232      -15.2206971492  WZ2       999             0.0000000000
      5815      1939  TIP3      OH2           -35.3598349752      -14.2007793232      -12.1520571492  WZ2       1000            0.0000000000
      5816      1939  TIP3      H1            -36.2849949752      -13.9921193232      -12.2815071492  WZ2       1000            0.0000000000
      5817      1939  TIP3      H2            -34.9058449752      -13.7166993232      -12.8418271492  WZ2       1000            0.0000000000
      5818      1940  TIP3      OH2           -20.5891149752        0.7833906768      -10.2063171492  WZ2       1001            0.0000000000
      5819      1940  TIP3      H1            -19.9368249752        0.4356006768      -10.8144071492  WZ2       1001            0.0000000000
      5820      1940  TIP3      H2            -20.0787349752        1.2717106768       -9.5603471492  WZ2       1001            0.0000000000
      5821      1941  TIP3      OH2           -33.2043649752       -2.2874693232        0.3367728508  WZ2       1003            0.0000000000
      5822      1941  TIP3      H1            -34.0251149752       -2.1128193232       -0.1237571492  WZ2       1003            0.0000000000
      5823      1941  TIP3      H2            -33.4565849752       -2.3609993232        1.2572128508  WZ2       1003            0.0000000000
      5824      1942  TIP3      OH2           -30.2500749752       -1.3133493232       -3.4048271492  WZ2       1004            0.0000000000
      5825      1942  TIP3      H1            -30.6749649752       -0.5034993232       -3.6873671492  WZ2       1004            0.0000000000
      5826      1942  TIP3      H2            -29.3457949752       -1.2279393232       -3.7068471492  WZ2       1004            0.0000000000
      5827      1943  TIP3      OH2           -25.9389349752        0.0856506768       -0.4454571492  WZ2       1005            0.0000000000
      5828      1943  TIP3      H1            -25.7541849752       -0.2477393232        0.4325728508  WZ2       1005            0.0000000000
      5829      1943  TIP3      H2            -25.0924849752        0.3955106768       -0.7675371492  WZ2       1005            0.0000000000
      5830      1944  TIP3      OH2           -23.5938949752        1.3715406768       -1.2013171492  WZ2       1006            0.0000000000
      5831      1944  TIP3      H1            -22.9170049752        0.7387706768       -1.4413971492  WZ2       1006            0.0000000000
      5832      1944  TIP3      H2            -23.2720149752        1.7725906768       -0.3939871492  WZ2       1006            0.0000000000
      5833      1945  TIP3      OH2           -18.6765149752      -16.0389093232       -2.1218171492  WZ2       1007            0.0000000000
      5834      1945  TIP3      H1            -19.4891649752      -15.7138793232       -2.5093471492  WZ2       1007            0.0000000000
      5835      1945  TIP3      H2            -18.4436649752      -16.7990593232       -2.6549071492  WZ2       1007            0.0000000000
      5836      1946  TIP3      OH2           -32.8484049752        1.9430406768       -3.3572971492  WZ2       1008            0.0000000000
      5837      1946  TIP3      H1            -33.5687649752        2.3831406768       -3.8085271492  WZ2       1008            0.0000000000
      5838      1946  TIP3      H2            -33.2140049752        1.6925106768       -2.5088971492  WZ2       1008            0.0000000000
      5839      1947  TIP3      OH2           -30.3811449752        1.5434306768       -4.3275771492  WZ2       1009            0.0000000000
      5840      1947  TIP3      H1            -31.2459249752        1.6152806768       -3.9235671492  WZ2       1009            0.0000000000
      5841      1947  TIP3      H2            -30.4362449752        2.0901606768       -5.1113271492  WZ2       1009            0.0000000000
      5842      1948  TIP3      OH2           -25.6705849752        1.4313206768       -5.1519771492  WZ2       1010            0.0000000000
      5843      1948  TIP3      H1            -26.1271849752        1.9602906768       -5.8061371492  WZ2       1010            0.0000000000
      5844      1948  TIP3      H2            -25.5077849752        2.0344606768       -4.4267471492  WZ2       1010            0.0000000000
      5845      1949  TIP3      OH2           -23.3429549752        0.3092806768       -4.2069471492  WZ2       1011            0.0000000000
      5846      1949  TIP3      H1            -24.2475849752        0.4743006768       -4.4727371492  WZ2       1011            0.0000000000
      5847      1949  TIP3      H2            -22.9140949752        1.1625006768       -4.2726071492  WZ2       1011            0.0000000000
      5848      1950  TIP3      OH2           -20.7387649752        1.8791906768       -3.9121671492  WZ2       1012            0.0000000000
      5849      1950  TIP3      H1            -20.9205649752        2.7950806768       -4.1226771492  WZ2       1012            0.0000000000
      5850      1950  TIP3      H2            -20.5619849752        1.4689006768       -4.7587071492  WZ2       1012            0.0000000000
      5851      1951  TIP3      OH2           -33.4335949752        0.5662906768       -6.4471171492  WZ2       1013            0.0000000000
      5852      1951  TIP3      H1            -33.4519949752        0.1408006768       -5.5898871492  WZ2       1013            0.0000000000
      5853      1951  TIP3      H2            -32.6288049752        0.2477906768       -6.8558971492  WZ2       1013            0.0000000000
      5854      1952  TIP3      OH2           -31.2922849752       -0.7238393232       -7.7921271492  WZ2       1014            0.0000000000
      5855      1952  TIP3      H1            -31.5112149752       -1.6400993232       -7.6225271492  WZ2       1014            0.0000000000
      5856      1952  TIP3      H2            -30.4680649752       -0.5837993232       -7.3259871492  WZ2       1014            0.0000000000
      5857      1953  TIP3      OH2           -28.7550349752       -0.2539093232       -6.9433271492  WZ2       1015            0.0000000000
      5858      1953  TIP3      H1            -28.5424649752       -1.1420093232       -7.2302371492  WZ2       1015            0.0000000000
      5859      1953  TIP3      H2            -28.6905249752       -0.2881393232       -5.9889271492  WZ2       1015            0.0000000000
      5860      1954  TIP3      OH2           -25.2466649752      -14.5898493232       -7.7989971492  WZ2       1016            0.0000000000
      5861      1954  TIP3      H1            -25.9209849752      -15.2192893232       -7.5434171492  WZ2       1016            0.0000000000
      5862      1954  TIP3      H2            -24.6827449752      -15.0739593232       -8.4022071492  WZ2       1016            0.0000000000
      5863      1955  TIP3      OH2           -20.1039449752      -16.4824493232       -7.6862871492  WZ2       1017            0.0000000000
      5864      1955  TIP3      H1            -19.5001849752      -15.9349093232       -8.1881871492  WZ2       1017            0.0000000000
      5865      1955  TIP3      H2            -20.9737449752      -16.1634093232       -7.9268771492  WZ2       1017            0.0000000000
      5866      1956  TIP3      OH2           -18.3769049752      -15.3435793232       -9.3531971492  WZ2       1018            0.0000000000
      5867      1956  TIP3      H1            -17.7651549752      -15.8580093232       -9.8798371492  WZ2       1018            0.0000000000
      5868      1956  TIP3      H2            -17.9945649752      -14.4663693232       -9.3297571492  WZ2       1018            0.0000000000
      5869      1957  TIP3      OH2           -32.9199149752      -15.9558193232       -9.9770071492  WZ2       1019            0.0000000000
      5870      1957  TIP3      H1            -33.6969349752      -16.1903293232      -10.4844171492  WZ2       1019            0.0000000000
      5871      1957  TIP3      H2            -32.3895549752      -16.7526093232       -9.9682071492  WZ2       1019            0.0000000000
      5872      1958  TIP3      OH2           -28.3406549752      -16.0291093232      -10.1636971492  WZ2       1021            0.0000000000
      5873      1958  TIP3      H1            -27.4663149752      -15.6406793232      -10.1932671492  WZ2       1021            0.0000000000
      5874      1958  TIP3      H2            -28.4765749752      -16.2443293232       -9.2409771492  WZ2       1021            0.0000000000
      5875      1959  TIP3      OH2           -22.7838149752      -15.9991293232       -8.5145271492  WZ2       1022            0.0000000000
      5876      1959  TIP3      H1            -22.7076549752      -15.9039693232       -9.4639271492  WZ2       1022            0.0000000000
      5877      1959  TIP3      H2            -23.0588949752      -16.9068393232       -8.3856171492  WZ2       1022            0.0000000000
      5878      1960  TIP3      OH2           -21.4305549752      -15.9733493232      -12.8220271492  WZ2       1023            0.0000000000
      5879      1960  TIP3      H1            -22.1334449752      -15.3584293232      -13.0318871492  WZ2       1023            0.0000000000
      5880      1960  TIP3      H2            -21.8754149752      -16.8106793232      -12.6909371492  WZ2       1023            0.0000000000
      5881      1961  TIP3      OH2           -27.1966549752      -13.9487093232      -13.2739371492  WZ2       1026            0.0000000000
      5882      1961  TIP3      H1            -27.0185249752      -14.5953893232      -12.5910771492  WZ2       1026            0.0000000000
      5883      1961  TIP3      H2            -27.2500349752      -13.1149393232      -12.8068271492  WZ2       1026            0.0000000000
      5884      1962  TIP3      OH2           -25.3182749752        0.9997006768      -14.8782671492  WZ2       1027            0.0000000000
      5885      1962  TIP3      H1            -24.4522549752        1.3664406768      -15.0564471492  WZ2       1027            0.0000000000
      5886      1962  TIP3      H2            -25.5649949752        0.5605006768      -15.6921871492  WZ2       1027            0.0000000000
      5887      1963  TIP3      OH2           -18.6093149752        0.5627306768      -12.1991571492  WZ2       1028            0.0000000000
      5888      1963  TIP3      H1            -18.8036049752       -0.1850593232      -12.7641971492  WZ2       1028            0.0000000000
      5889      1963  TIP3      H2            -18.6483049752        1.3207406768      -12.7823671492  WZ2       1028            0.0000000000
      5890      1964  TIP3      OH2           -32.9621149752      -15.4416293232       -0.4593871492  WZ2       1029            0.0000000000
      5891      1964  TIP3      H1            -33.3282949752      -16.2073693232       -0.0169171492  WZ2       1029            0.0000000000
      5892      1964  TIP3      H2            -32.0492649752      -15.4126093232       -0.1728771492  WZ2       1029            0.0000000000
      5893      1965  TIP3      OH2           -30.9890349752      -16.0911893232        1.0763228508  WZ2       1030            0.0000000000
      5894      1965  TIP3      H1            -30.0906749752      -16.3651693232        0.8916628508  WZ2       1030            0.0000000000
      5895      1965  TIP3      H2            -31.3757249752      -16.8335893232        1.5405828508  WZ2       1030            0.0000000000
      5896      1966  TIP3      OH2           -32.3645049752        0.7102906768      -16.2506771492  WZ2       1031            0.0000000000
      5897      1966  TIP3      H1            -32.6320449752        0.9965806768      -15.3773671492  WZ2       1031            0.0000000000
      5898      1966  TIP3      H2            -31.5932449752        0.1642106768      -16.0984271492  WZ2       1031            0.0000000000
      5899      1967  TIP3      OH2           -22.5678049752      -16.7586593232        1.2586028508  WZ2       1032            0.0000000000
      5900      1967  TIP3      H1            -22.4910849752      -17.1845893232        2.1123728508  WZ2       1032            0.0000000000
      5901      1967  TIP3      H2            -21.6741449752      -16.7451893232        0.9159528508  WZ2       1032            0.0000000000
      5902      1968  TIP3      OH2           -19.3916949752       -0.6860293232       -0.0489771492  WZ2       1033            0.0000000000
      5903      1968  TIP3      H1            -20.1735049752       -0.8722293232       -0.5689171492  WZ2       1033            0.0000000000
      5904      1968  TIP3      H2            -19.4637049752        0.2434006768        0.1682728508  WZ2       1033            0.0000000000
      5905      1969  TIP3      OH2            -4.9856549752       -6.7995893232      -10.0182571492  WZ2       1034            0.0000000000
      5906      1969  TIP3      H1             -4.8965449752       -5.8557693232      -10.1505471492  WZ2       1034            0.0000000000
      5907      1969  TIP3      H2             -5.6238949752       -7.0749493232      -10.6763171492  WZ2       1034            0.0000000000
      5908      1970  TIP3      OH2            -6.0525249752       -7.5445193232       -6.5994371492  WZ2       1035            0.0000000000
      5909      1970  TIP3      H1             -6.0907749752       -8.1908893232       -5.8944771492  WZ2       1035            0.0000000000
      5910      1970  TIP3      H2             -6.3748749752       -8.0110793232       -7.3705671492  WZ2       1035            0.0000000000
      5911      1971  TIP3      OH2           -13.6840249752       -7.9303093232       -5.0064471492  WZ2       1036            0.0000000000
      5912      1971  TIP3      H1            -13.6428149752       -8.5559793232       -4.2832071492  WZ2       1036            0.0000000000
      5913      1971  TIP3      H2            -12.9812549752       -7.3064493232       -4.8244071492  WZ2       1036            0.0000000000
      5914      1972  TIP3      OH2            -2.3465049752       -4.6054793232       -8.2979271492  WZ2       1037            0.0000000000
      5915      1972  TIP3      H1             -2.7872349752       -5.3258793232       -7.8473671492  WZ2       1037            0.0000000000
      5916      1972  TIP3      H2             -2.3595349752       -3.8847593232       -7.6681571492  WZ2       1037            0.0000000000
      5917      1973  TIP3      OH2           -12.7607149752       -3.4804193232       -6.4715371492  WZ2       1038            0.0000000000
      5918      1973  TIP3      H1            -13.1301949752       -4.2823693232       -6.8411071492  WZ2       1038            0.0000000000
      5919      1973  TIP3      H2            -11.8196049752       -3.6489293232       -6.4251971492  WZ2       1038            0.0000000000
      5920      1974  TIP3      OH2           -16.1506649752       -9.8201593232      -11.0786571492  WZ2       1039            0.0000000000
      5921      1974  TIP3      H1            -16.5983249752       -8.9742893232      -11.0970071492  WZ2       1039            0.0000000000
      5922      1974  TIP3      H2            -16.7115449752      -10.3997393232      -11.5941471492  WZ2       1039            0.0000000000
      5923      1975  TIP3      OH2           -15.4400549752       -7.6581993232       -8.9528571492  WZ2       1040            0.0000000000
      5924      1975  TIP3      H1            -15.2267049752       -8.4280393232       -8.4255571492  WZ2       1040            0.0000000000
      5925      1975  TIP3      H2            -14.7022949752       -7.5685293232       -9.5560971492  WZ2       1040            0.0000000000
      5926      1976  TIP3      OH2            -5.2349549752        0.4986906768       -8.0858871492  WZ2       1041            0.0000000000
      5927      1976  TIP3      H1             -4.6153149752       -0.1778393232       -8.3589671492  WZ2       1041            0.0000000000
      5928      1976  TIP3      H2             -5.4432149752        0.2807706768       -7.1773971492  WZ2       1041            0.0000000000
      5929      1977  TIP3      OH2            -7.6630849752       -5.1123793232       -6.1933371492  WZ2       1042            0.0000000000
      5930      1977  TIP3      H1             -7.3592949752       -5.7982393232       -6.7879271492  WZ2       1042            0.0000000000
      5931      1977  TIP3      H2             -6.9416849752       -4.9935093232       -5.5755371492  WZ2       1042            0.0000000000
      5932      1978  TIP3      OH2             0.9998950248      -13.5108493232       -5.3327171492  WZ2       1043            0.0000000000
      5933      1978  TIP3      H1              1.0491150248      -12.9007293232       -4.5968071492  WZ2       1043            0.0000000000
      5934      1978  TIP3      H2              1.4254050248      -13.0497593232       -6.0556071492  WZ2       1043            0.0000000000
      5935      1979  TIP3      OH2            -4.5223849752      -10.7181393232       -5.8658571492  WZ2       1044            0.0000000000
      5936      1979  TIP3      H1             -4.3797949752      -11.6644393232       -5.8456971492  WZ2       1044            0.0000000000
      5937      1979  TIP3      H2             -4.6284849752      -10.5111593232       -6.7943671492  WZ2       1044            0.0000000000
      5938      1980  TIP3      OH2           -11.3675549752      -12.6164993232       -8.5933771492  WZ2       1045            0.0000000000
      5939      1980  TIP3      H1            -11.3244449752      -11.7566493232       -9.0117471492  WZ2       1045            0.0000000000
      5940      1980  TIP3      H2            -11.8251449752      -13.1690293232       -9.2270571492  WZ2       1045            0.0000000000
      5941      1981  TIP3      OH2            -3.6452849752      -12.4859393232      -10.1925471492  WZ2       1046            0.0000000000
      5942      1981  TIP3      H1             -2.9988549752      -12.8146193232       -9.5677871492  WZ2       1046            0.0000000000
      5943      1981  TIP3      H2             -3.1353449752      -11.9680393232      -10.8154071492  WZ2       1046            0.0000000000
      5944      1982  TIP3      OH2           -14.7474049752      -10.2199193232       -7.8312371492  WZ2       1047            0.0000000000
      5945      1982  TIP3      H1            -14.0937449752      -10.7697493232       -7.3992271492  WZ2       1047            0.0000000000
      5946      1982  TIP3      H2            -14.7234749752      -10.4940193232       -8.7480371492  WZ2       1047            0.0000000000
      5947      1983  TIP3      OH2            -9.5909549752       -8.6697893232       -8.6160871492  WZ2       1048            0.0000000000
      5948      1983  TIP3      H1             -8.9748549752       -9.1962493232       -8.1066871492  WZ2       1048            0.0000000000
      5949      1983  TIP3      H2            -10.1770749752       -9.3099193232       -9.0197271492  WZ2       1048            0.0000000000
      5950      1984  TIP3      OH2             1.3913550248      -12.0329293232       -3.0967371492  WZ2       1049            0.0000000000
      5951      1984  TIP3      H1              0.7028150248      -11.3748593232       -3.1920771492  WZ2       1049            0.0000000000
      5952      1984  TIP3      H2              1.4068150248      -12.2301393232       -2.1601971492  WZ2       1049            0.0000000000
      5953      1985  TIP3      OH2           -12.5573649752      -13.6986593232       -4.5192971492  WZ2       1050            0.0000000000
      5954      1985  TIP3      H1            -12.7761949752      -13.1685993232       -5.2856971492  WZ2       1050            0.0000000000
      5955      1985  TIP3      H2            -13.2252749752      -13.4721093232       -3.8721571492  WZ2       1050            0.0000000000
      5956      1986  TIP3      OH2            -5.1883849752       -4.1985493232      -10.9753871492  WZ2       1051            0.0000000000
      5957      1986  TIP3      H1             -5.4838749752       -4.5213193232      -11.8266971492  WZ2       1051            0.0000000000
      5958      1986  TIP3      H2             -5.5126049752       -3.2988793232      -10.9341271492  WZ2       1051            0.0000000000
      5959      1987  TIP3      OH2            -9.9882249752       -6.0230893232       -4.2319271492  WZ2       1052            0.0000000000
      5960      1987  TIP3      H1            -10.7283149752       -5.4249393232       -4.1284071492  WZ2       1052            0.0000000000
      5961      1987  TIP3      H2             -9.2742749752       -5.4691293232       -4.5475671492  WZ2       1052            0.0000000000
      5962      1988  TIP3      OH2            -1.8814449752      -13.1950093232       -8.2119571492  WZ2       1053            0.0000000000
      5963      1988  TIP3      H1             -2.0966449752      -13.9606693232       -7.6793571492  WZ2       1053            0.0000000000
      5964      1988  TIP3      H2             -1.2257049752      -12.7225493232       -7.6991071492  WZ2       1053            0.0000000000
      5965      1989  TIP3      OH2           -12.9636349752      -11.8064793232       -6.5670771492  WZ2       1054            0.0000000000
      5966      1989  TIP3      H1            -12.3500049752      -11.1737193232       -6.1938371492  WZ2       1054            0.0000000000
      5967      1989  TIP3      H2            -12.4515649752      -12.2789793232       -7.2233871492  WZ2       1054            0.0000000000
      5968      1990  TIP3      OH2           -11.5807949752       -4.0587893232       -3.4447771492  WZ2       1055            0.0000000000
      5969      1990  TIP3      H1            -11.5860349752       -3.1794393232       -3.8228471492  WZ2       1055            0.0000000000
      5970      1990  TIP3      H2            -12.4343849752       -4.1423793232       -3.0197871492  WZ2       1055            0.0000000000
      5971      1991  TIP3      OH2           -15.4597049752       -4.3879993232      -12.6628471492  WZ2       1056            0.0000000000
      5972      1991  TIP3      H1            -15.7316149752       -4.1588993232      -13.5515571492  WZ2       1056            0.0000000000
      5973      1991  TIP3      H2            -15.4141349752       -3.5501193232      -12.2023171492  WZ2       1056            0.0000000000
      5974      1992  TIP3      OH2            -1.8347349752       -2.7664093232       -5.9499971492  WZ2       1057            0.0000000000
      5975      1992  TIP3      H1             -2.7763649752       -2.7080193232       -5.7883071492  WZ2       1057            0.0000000000
      5976      1992  TIP3      H2             -1.5581249752       -1.8603593232       -6.0870271492  WZ2       1057            0.0000000000
      5977      1993  TIP3      OH2            -1.5340349752      -14.4798793232       -4.5326071492  WZ2       1058            0.0000000000
      5978      1993  TIP3      H1             -2.2701149752      -13.8691693232       -4.5704771492  WZ2       1058            0.0000000000
      5979      1993  TIP3      H2             -0.8506349752      -14.0649793232       -5.0589671492  WZ2       1058            0.0000000000
      5980      1994  TIP3      OH2            -8.5308949752      -16.3931493232       -7.0668071492  WZ2       1059            0.0000000000
      5981      1994  TIP3      H1             -8.6484749752      -17.3415493232       -7.1209771492  WZ2       1059            0.0000000000
      5982      1994  TIP3      H2             -9.3858849752      -16.0605393232       -6.7936971492  WZ2       1059            0.0000000000
      5983      1995  TIP3      OH2            -3.5826149752       -0.9850593232       -9.3248371492  WZ2       1060            0.0000000000
      5984      1995  TIP3      H1             -3.1573849752       -1.6922693232       -9.8098771492  WZ2       1060            0.0000000000
      5985      1995  TIP3      H2             -3.2656149752       -0.1837893232       -9.7416171492  WZ2       1060            0.0000000000
      5986      1996  TIP3      OH2            -2.4229649752       -3.0842093232      -10.8161771492  WZ2       1061            0.0000000000
      5987      1996  TIP3      H1             -2.6804849752       -3.7741993232      -11.4275871492  WZ2       1061            0.0000000000
      5988      1996  TIP3      H2             -2.3518849752       -3.5270893232       -9.9705871492  WZ2       1061            0.0000000000
      5989      1997  TIP3      OH2            -0.7369449752       -4.5175393232       -2.3388271492  WZ2       1062            0.0000000000
      5990      1997  TIP3      H1             -0.5973149752       -5.1092893232       -3.0781271492  WZ2       1062            0.0000000000
      5991      1997  TIP3      H2             -0.5696649752       -3.6449493232       -2.6949471492  WZ2       1062            0.0000000000
      5992      1998  TIP3      OH2            -6.2644049752       -7.5555893232      -12.5662271492  WZ2       1063            0.0000000000
      5993      1998  TIP3      H1             -6.9758549752       -7.0206193232      -12.9181771492  WZ2       1063            0.0000000000
      5994      1998  TIP3      H2             -5.5734449752       -7.5003793232      -13.2263371492  WZ2       1063            0.0000000000
      5995      1999  TIP3      OH2            -6.2104849752       -9.0981593232      -15.5277271492  WZ2       1064            0.0000000000
      5996      1999  TIP3      H1             -5.5094949752       -9.0754693232      -14.8763271492  WZ2       1064            0.0000000000
      5997      1999  TIP3      H2             -5.9081949752       -9.7261893232      -16.1837971492  WZ2       1064            0.0000000000
      5998      2000  TIP3      OH2             1.1049850248       -8.1777393232       -4.2727871492  WZ2       1065            0.0000000000
      5999      2000  TIP3      H1              0.4523950248       -7.4831793232       -4.1836971492  WZ2       1065            0.0000000000
      6000      2000  TIP3      H2              1.5700150248       -7.9676493232       -5.0826271492  WZ2       1065            0.0000000000
      6001      2001  TIP3      OH2            -2.8586349752       -7.3462593232      -11.6146371492  WZ2       1066            0.0000000000
      6002      2001  TIP3      H1             -3.5905349752       -7.1178893232      -11.0415771492  WZ2       1066            0.0000000000
      6003      2001  TIP3      H2             -2.4114149752       -8.0599893232      -11.1598871492  WZ2       1066            0.0000000000
      6004      2002  TIP3      OH2            -2.9612849752       -9.1719993232       -2.5469371492  WZ2       1067            0.0000000000
      6005      2002  TIP3      H1             -2.8813749752       -8.4085593232       -1.9750871492  WZ2       1067            0.0000000000
      6006      2002  TIP3      H2             -3.5625149752       -8.8927593232       -3.2374271492  WZ2       1067            0.0000000000
      6007      2003  TIP3      OH2           -11.2132649752       -6.7156393232       -9.7321371492  WZ2       1068            0.0000000000
      6008      2003  TIP3      H1            -11.5437449752       -7.0862993232      -10.5504371492  WZ2       1068            0.0000000000
      6009      2003  TIP3      H2            -10.6248549752       -7.3862393232       -9.3853071492  WZ2       1068            0.0000000000
      6010      2004  TIP3      OH2            -9.8465149752       -3.2875793232       -7.0509171492  WZ2       1069            0.0000000000
      6011      2004  TIP3      H1             -9.9413849752       -3.8662693232       -7.8074571492  WZ2       1069            0.0000000000
      6012      2004  TIP3      H2             -9.1171549752       -3.6590093232       -6.5546371492  WZ2       1069            0.0000000000
      6013      2005  TIP3      OH2           -10.8467149752       -7.9470793232       -6.0986371492  WZ2       1070            0.0000000000
      6014      2005  TIP3      H1            -10.2814649752       -7.8256593232       -6.8615171492  WZ2       1070            0.0000000000
      6015      2005  TIP3      H2            -10.5278249752       -7.3095793232       -5.4597871492  WZ2       1070            0.0000000000
      6016      2006  TIP3      OH2            -4.5374949752       -2.4438893232       -5.3645871492  WZ2       1071            0.0000000000
      6017      2006  TIP3      H1             -4.7778349752       -1.7815793232       -4.7166671492  WZ2       1071            0.0000000000
      6018      2006  TIP3      H2             -4.7356749752       -3.2783693232       -4.9396271492  WZ2       1071            0.0000000000
      6019      2007  TIP3      OH2            -9.9666449752       -3.5478093232       -1.3814471492  WZ2       1072            0.0000000000
      6020      2007  TIP3      H1            -10.2778949752       -2.7654893232       -0.9261271492  WZ2       1072            0.0000000000
      6021      2007  TIP3      H2            -10.6166249752       -3.7008993232       -2.0672471492  WZ2       1072            0.0000000000
      6022      2008  TIP3      OH2            -3.9876849752       -8.1839693232      -13.9295171492  WZ2       1073            0.0000000000
      6023      2008  TIP3      H1             -3.4081349752       -8.0339393232      -13.1826271492  WZ2       1073            0.0000000000
      6024      2008  TIP3      H2             -3.5736849752       -7.7132293232      -14.6528771492  WZ2       1073            0.0000000000
      6025      2009  TIP3      OH2           -13.0466549752       -7.3496993232       -2.1528771492  WZ2       1074            0.0000000000
      6026      2009  TIP3      H1            -12.9763349752       -6.6990193232       -1.4543771492  WZ2       1074            0.0000000000
      6027      2009  TIP3      H2            -13.9374349752       -7.2469493232       -2.4877871492  WZ2       1074            0.0000000000
      6028      2010  TIP3      OH2            -6.2611949752       -1.4471193232      -10.4942071492  WZ2       1075            0.0000000000
      6029      2010  TIP3      H1             -5.7874349752       -1.1514893232       -9.7167871492  WZ2       1075            0.0000000000
      6030      2010  TIP3      H2             -6.8242649752       -0.7089593232      -10.7272471492  WZ2       1075            0.0000000000
      6031      2011  TIP3      OH2           -11.7270549752       -1.4763093232       -0.6180671492  WZ2       1076            0.0000000000
      6032      2011  TIP3      H1            -11.7195249752       -1.6123393232       -1.5655171492  WZ2       1076            0.0000000000
      6033      2011  TIP3      H2            -12.6430149752       -1.5934993232       -0.3660671492  WZ2       1076            0.0000000000
      6034      2012  TIP3      OH2            -0.2888449752      -16.4339293232      -14.1165471492  WZ2       1077            0.0000000000
      6035      2012  TIP3      H1             -1.1887749752      -16.2950293232      -13.8214871492  WZ2       1077            0.0000000000
      6036      2012  TIP3      H2             -0.0370049752      -15.6024693232      -14.5183771492  WZ2       1077            0.0000000000
      6037      2013  TIP3      OH2           -12.2229949752       -7.6462093232      -12.1428571492  WZ2       1078            0.0000000000
      6038      2013  TIP3      H1            -12.5148649752       -6.8780393232      -12.6337271492  WZ2       1078            0.0000000000
      6039      2013  TIP3      H2            -12.8974749752       -8.3055893232      -12.3057171492  WZ2       1078            0.0000000000
      6040      2014  TIP3      OH2             0.9002950248       -2.0676893232      -15.7401571492  WZ2       1079            0.0000000000
      6041      2014  TIP3      H1              0.9736450248       -1.1286693232      -15.5696271492  WZ2       1079            0.0000000000
      6042      2014  TIP3      H2              1.8058050248       -2.3728293232      -15.7964271492  WZ2       1079            0.0000000000
      6043      2015  TIP3      OH2           -16.1299849752       -5.2832893232       -3.3278771492  WZ2       1080            0.0000000000
      6044      2015  TIP3      H1            -16.6311449752       -5.3113493232       -4.1429071492  WZ2       1080            0.0000000000
      6045      2015  TIP3      H2            -16.1246149752       -6.1889693232       -3.0181471492  WZ2       1080            0.0000000000
      6046      2016  TIP3      OH2           -16.3797149752       -2.5029093232       -6.4438571492  WZ2       1081            0.0000000000
      6047      2016  TIP3      H1            -15.4336549752       -2.6472093232       -6.4629071492  WZ2       1081            0.0000000000
      6048      2016  TIP3      H2            -16.4920849752       -1.7186293232       -5.9067371492  WZ2       1081            0.0000000000
      6049      2017  TIP3      OH2             1.8181350248       -1.8369393232       -0.7614871492  WZ2       1082            0.0000000000
      6050      2017  TIP3      H1              1.7688150248       -2.7921293232       -0.7987271492  WZ2       1082            0.0000000000
      6051      2017  TIP3      H2              0.9913650248       -1.5694093232       -0.3601071492  WZ2       1082            0.0000000000
      6052      2018  TIP3      OH2            -7.2034649752       -2.2630193232       -1.8853471492  WZ2       1083            0.0000000000
      6053      2018  TIP3      H1             -7.1160049752       -1.4365593232       -1.4104371492  WZ2       1083            0.0000000000
      6054      2018  TIP3      H2             -8.0669549752       -2.5926393232       -1.6364171492  WZ2       1083            0.0000000000
      6055      2019  TIP3      OH2            -6.7888849752        1.5093506768      -12.0792871492  WZ2       1084            0.0000000000
      6056      2019  TIP3      H1             -6.8642849752        1.3880706768      -13.0257671492  WZ2       1084            0.0000000000
      6057      2019  TIP3      H2             -6.7560149752        2.4586206768      -11.9608271492  WZ2       1084            0.0000000000
      6058      2020  TIP3      OH2           -13.1355049752        0.2980506768      -10.2983871492  WZ2       1085            0.0000000000
      6059      2020  TIP3      H1            -12.9834649752       -0.0499093232       -9.4197371492  WZ2       1085            0.0000000000
      6060      2020  TIP3      H2            -13.9864649752       -0.0582193232      -10.5536671492  WZ2       1085            0.0000000000
      6061      2021  TIP3      OH2            -3.6872849752        0.6633706768      -15.0770471492  WZ2       1086            0.0000000000
      6062      2021  TIP3      H1             -3.3124449752       -0.0810193232      -15.5477871492  WZ2       1086            0.0000000000
      6063      2021  TIP3      H2             -3.6829149752        0.3934306768      -14.1587171492  WZ2       1086            0.0000000000
      6064      2022  TIP3      OH2            -4.0184749752        0.5890806768      -12.3278271492  WZ2       1087            0.0000000000
      6065      2022  TIP3      H1             -4.9534949752        0.6892706768      -12.1491271492  WZ2       1087            0.0000000000
      6066      2022  TIP3      H2             -3.7382849752       -0.1203193232      -11.7495071492  WZ2       1087            0.0000000000
      6067      2023  TIP3      OH2            -1.0298849752      -10.3436893232       -0.2812671492  WZ2       1088            0.0000000000
      6068      2023  TIP3      H1             -1.4372049752       -9.8631293232       -1.0019371492  WZ2       1088            0.0000000000
      6069      2023  TIP3      H2             -0.9893149752      -11.2490893232       -0.5891871492  WZ2       1088            0.0000000000
      6070      2024  TIP3      OH2           -13.8809349752       -3.9597493232       -2.2845971492  WZ2       1089            0.0000000000
      6071      2024  TIP3      H1            -13.6648049752       -4.3211893232       -1.4250171492  WZ2       1089            0.0000000000
      6072      2024  TIP3      H2            -14.7364649752       -4.3343693232       -2.4942471492  WZ2       1089            0.0000000000
      6073      2025  TIP3      OH2           -11.2621349752      -15.4896993232       -6.2891771492  WZ2       1090            0.0000000000
      6074      2025  TIP3      H1            -12.1237649752      -15.5768793232       -6.6968871492  WZ2       1090            0.0000000000
      6075      2025  TIP3      H2            -11.2845649752      -14.6336893232       -5.8614171492  WZ2       1090            0.0000000000
      6076      2026  TIP3      OH2            -6.5993549752      -15.7676593232       -2.9144771492  WZ2       1091            0.0000000000
      6077      2026  TIP3      H1             -6.1790449752      -16.1829493232       -2.1614171492  WZ2       1091            0.0000000000
      6078      2026  TIP3      H2             -7.5323949752      -15.9463293232       -2.7972771492  WZ2       1091            0.0000000000
      6079      2027  TIP3      OH2            -3.2728649752      -12.0121393232       -2.0610271492  WZ2       1092            0.0000000000
      6080      2027  TIP3      H1             -3.7869149752      -12.1379193232       -1.2634271492  WZ2       1092            0.0000000000
      6081      2027  TIP3      H2             -3.4283949752      -11.0998293232       -2.3054071492  WZ2       1092            0.0000000000
      6082      2028  TIP3      OH2            -2.5103749752       -7.1511393232      -16.2997271492  WZ2       1093            0.0000000000
      6083      2028  TIP3      H1             -2.4682949752       -7.3737493232      -17.2297271492  WZ2       1093            0.0000000000
      6084      2028  TIP3      H2             -1.6611649752       -6.7524293232      -16.1097371492  WZ2       1093            0.0000000000
      6085      2029  TIP3      OH2            -6.9376249752      -13.2753193232      -15.6293971492  WZ2       1094            0.0000000000
      6086      2029  TIP3      H1             -7.1911449752      -13.2561593232      -14.7065871492  WZ2       1094            0.0000000000
      6087      2029  TIP3      H2             -7.1944149752      -14.1467793232      -15.9307771492  WZ2       1094            0.0000000000
      6088      2030  TIP3      OH2           -11.1711249752      -10.5242493232       -5.1941571492  WZ2       1095            0.0000000000
      6089      2030  TIP3      H1            -11.8129149752      -10.5645193232       -4.4851471492  WZ2       1095            0.0000000000
      6090      2030  TIP3      H2            -11.1339249752       -9.5977793232       -5.4318571492  WZ2       1095            0.0000000000
      6091      2031  TIP3      OH2           -11.1742149752      -10.3032393232      -10.2821571492  WZ2       1096            0.0000000000
      6092      2031  TIP3      H1            -12.0669249752      -10.6436293232      -10.3407771492  WZ2       1096            0.0000000000
      6093      2031  TIP3      H2            -10.7235549752      -10.6801493232      -11.0378371492  WZ2       1096            0.0000000000
      6094      2032  TIP3      OH2            -5.6386649752       -9.8872093232      -11.4650771492  WZ2       1097            0.0000000000
      6095      2032  TIP3      H1             -6.0476349752       -9.0723493232      -11.7565971492  WZ2       1097            0.0000000000
      6096      2032  TIP3      H2             -4.9180449752      -10.0271993232      -12.0793671492  WZ2       1097            0.0000000000
      6097      2033  TIP3      OH2            -6.5365049752       -9.7115693232        0.0229928508  WZ2       1098            0.0000000000
      6098      2033  TIP3      H1             -7.0991249752      -10.4164093232        0.3437728508  WZ2       1098            0.0000000000
      6099      2033  TIP3      H2             -5.7101649752       -9.8323793232        0.4907528508  WZ2       1098            0.0000000000
      6100      2034  TIP3      OH2            -4.6338949752      -10.4411693232       -8.6511071492  WZ2       1099            0.0000000000
      6101      2034  TIP3      H1             -4.8294449752       -9.8354893232       -9.3660471492  WZ2       1099            0.0000000000
      6102      2034  TIP3      H2             -4.4526349752      -11.2746493232       -9.0854771492  WZ2       1099            0.0000000000
      6103      2035  TIP3      OH2           -13.4210749752      -10.2038993232       -3.3269571492  WZ2       1100            0.0000000000
      6104      2035  TIP3      H1            -13.4591349752       -9.8037393232       -2.4582471492  WZ2       1100            0.0000000000
      6105      2035  TIP3      H2            -13.9119649752      -11.0206593232       -3.2366671492  WZ2       1100            0.0000000000
      6106      2036  TIP3      OH2           -10.0553349752      -12.8296693232      -16.5283571492  WZ2       1101            0.0000000000
      6107      2036  TIP3      H1            -10.4862649752      -13.2746593232      -15.7986171492  WZ2       1101            0.0000000000
      6108      2036  TIP3      H2            -10.7734649752      -12.4580393232      -17.0406071492  WZ2       1101            0.0000000000
      6109      2037  TIP3      OH2           -16.8129949752      -13.0877193232       -9.4764871492  WZ2       1102            0.0000000000
      6110      2037  TIP3      H1            -16.1822249752      -13.1165093232       -8.7570971492  WZ2       1102            0.0000000000
      6111      2037  TIP3      H2            -16.3635649752      -13.5128493232      -10.2068971492  WZ2       1102            0.0000000000
      6112      2038  TIP3      OH2           -15.5387849752      -12.3415193232      -14.0524471492  WZ2       1103            0.0000000000
      6113      2038  TIP3      H1            -15.0646149752      -11.7505293232      -14.6373571492  WZ2       1103            0.0000000000
      6114      2038  TIP3      H2            -16.2561449752      -11.8112293232      -13.7054371492  WZ2       1103            0.0000000000
      6115      2039  TIP3      OH2            -5.3699749752       -8.8030393232       -3.9798671492  WZ2       1104            0.0000000000
      6116      2039  TIP3      H1             -5.0464949752       -9.4340693232       -4.6228171492  WZ2       1104            0.0000000000
      6117      2039  TIP3      H2             -5.8100449752       -9.3378193232       -3.3191271492  WZ2       1104            0.0000000000
      6118      2040  TIP3      OH2            -8.5926849752      -12.8754893232       -9.1957471492  WZ2       1105            0.0000000000
      6119      2040  TIP3      H1             -9.5035749752      -12.8188093232       -8.9071471492  WZ2       1105            0.0000000000
      6120      2040  TIP3      H2             -8.0873949752      -12.9359393232       -8.3850271492  WZ2       1105            0.0000000000
      6121      2041  TIP3      OH2           -13.7643449752      -11.2468593232      -10.3689871492  WZ2       1106            0.0000000000
      6122      2041  TIP3      H1            -14.6535449752      -11.1473093232      -10.7090271492  WZ2       1106            0.0000000000
      6123      2041  TIP3      H2            -13.4678549752      -12.0885593232      -10.7151971492  WZ2       1106            0.0000000000
      6124      2042  TIP3      OH2           -10.1111649752      -11.2465993232      -12.7125271492  WZ2       1107            0.0000000000
      6125      2042  TIP3      H1             -9.1796149752      -11.1175993232      -12.5342171492  WZ2       1107            0.0000000000
      6126      2042  TIP3      H2            -10.3261349752      -10.5771693232      -13.3620571492  WZ2       1107            0.0000000000
      6127      2043  TIP3      OH2            -4.1874949752      -13.6408593232       -5.9315671492  WZ2       1108            0.0000000000
      6128      2043  TIP3      H1             -4.8643349752      -13.5095493232       -5.2675971492  WZ2       1108            0.0000000000
      6129      2043  TIP3      H2             -4.6730049752      -13.7959093232       -6.7417971492  WZ2       1108            0.0000000000
      6130      2044  TIP3      OH2           -11.4371449752      -10.0523793232      -15.1459171492  WZ2       1109            0.0000000000
      6131      2044  TIP3      H1            -11.9796349752      -10.4319993232      -15.8371571492  WZ2       1109            0.0000000000
      6132      2044  TIP3      H2            -10.6036549752       -9.8579093232      -15.5745071492  WZ2       1109            0.0000000000
      6133      2045  TIP3      OH2            -0.8999849752        2.0306806768        0.3451928508  WZ2       1110            0.0000000000
      6134      2045  TIP3      H1             -0.7001149752        2.4548706768       -0.4892771492  WZ2       1110            0.0000000000
      6135      2045  TIP3      H2             -0.2446149752        2.3745006768        0.9522328508  WZ2       1110            0.0000000000
      6136      2046  TIP3      OH2           -13.3020049752       -5.4951893232       -0.0467571492  WZ2       1111            0.0000000000
      6137      2046  TIP3      H1            -12.5697649752       -5.2405993232        0.5146928508  WZ2       1111            0.0000000000
      6138      2046  TIP3      H2            -14.0821349752       -5.2906493232        0.4687828508  WZ2       1111            0.0000000000
      6139      2047  TIP3      OH2            -7.2727149752      -10.0881893232       -7.3087871492  WZ2       1112            0.0000000000
      6140      2047  TIP3      H1             -6.7083749752      -10.6345293232       -7.8558271492  WZ2       1112            0.0000000000
      6141      2047  TIP3      H2             -7.4203749752      -10.6099993232       -6.5200271492  WZ2       1112            0.0000000000
      6142      2048  TIP3      OH2           -12.2707449752      -13.9515793232      -10.8903071492  WZ2       1113            0.0000000000
      6143      2048  TIP3      H1            -12.5877949752      -14.8540493232      -10.9257671492  WZ2       1113            0.0000000000
      6144      2048  TIP3      H2            -11.4893349752      -13.9498393232      -11.4431471492  WZ2       1113            0.0000000000
      6145      2049  TIP3      OH2            -8.6461249752      -11.6995793232       -4.8947471492  WZ2       1114            0.0000000000
      6146      2049  TIP3      H1             -9.4815949752      -11.2456293232       -4.7845071492  WZ2       1114            0.0000000000
      6147      2049  TIP3      H2             -8.1220649752      -11.4237293232       -4.1427571492  WZ2       1114            0.0000000000
      6148      2050  TIP3      OH2            -8.1018649752       -5.4868093232      -13.2101071492  WZ2       1115            0.0000000000
      6149      2050  TIP3      H1             -8.8467649752       -5.9942793232      -13.5323171492  WZ2       1115            0.0000000000
      6150      2050  TIP3      H2             -8.2361449752       -5.4380093232      -12.2636271492  WZ2       1115            0.0000000000
      6151      2051  TIP3      OH2            -0.9519749752       -6.3539893232       -4.4233471492  WZ2       1116            0.0000000000
      6152      2051  TIP3      H1             -0.3100949752       -5.8973593232       -4.9671271492  WZ2       1116            0.0000000000
      6153      2051  TIP3      H2             -1.7822849752       -6.2407493232       -4.8859371492  WZ2       1116            0.0000000000
      6154      2052  TIP3      OH2            -4.2041849752      -12.6728193232      -15.0108471492  WZ2       1117            0.0000000000
      6155      2052  TIP3      H1             -5.1427649752      -12.5612593232      -15.1619671492  WZ2       1117            0.0000000000
      6156      2052  TIP3      H2             -3.9069749752      -11.8161293232      -14.7042771492  WZ2       1117            0.0000000000
      6157      2053  TIP3      OH2            -6.5826549752       -5.3024793232       -1.9731971492  WZ2       1118            0.0000000000
      6158      2053  TIP3      H1             -6.9280449752       -5.6842393232       -1.1662371492  WZ2       1118            0.0000000000
      6159      2053  TIP3      H2             -6.7826449752       -4.3691193232       -1.9019071492  WZ2       1118            0.0000000000
      6160      2054  TIP3      OH2            -3.4858349752      -10.8055493232      -13.3501071492  WZ2       1119            0.0000000000
      6161      2054  TIP3      H1             -2.5939349752      -10.9430493232      -13.0309871492  WZ2       1119            0.0000000000
      6162      2054  TIP3      H2             -3.4294749752      -10.0149393232      -13.8867571492  WZ2       1119            0.0000000000
      6163      2055  TIP3      OH2           -12.9770349752       -6.1918093232       -7.4403171492  WZ2       1120            0.0000000000
      6164      2055  TIP3      H1            -12.2323149752       -6.1942393232       -8.0416671492  WZ2       1120            0.0000000000
      6165      2055  TIP3      H2            -12.8993749752       -7.0154293232       -6.9588071492  WZ2       1120            0.0000000000
      6166      2056  TIP3      OH2            -5.9764549752       -4.0283793232      -14.1846471492  WZ2       1121            0.0000000000
      6167      2056  TIP3      H1             -6.2716149752       -3.2015893232      -13.8031671492  WZ2       1121            0.0000000000
      6168      2056  TIP3      H2             -6.6794549752       -4.6476893232      -13.9885071492  WZ2       1121            0.0000000000
      6169      2057  TIP3      OH2           -15.9690649752       -7.7311193232       -2.1254671492  WZ2       1122            0.0000000000
      6170      2057  TIP3      H1            -15.7462049752       -8.1491593232       -1.2937171492  WZ2       1122            0.0000000000
      6171      2057  TIP3      H2            -16.5710549752       -8.3436193232       -2.5481871492  WZ2       1122            0.0000000000
      6172      2058  TIP3      OH2            -8.9525749752       -8.2141293232        0.0875028508  WZ2       1123            0.0000000000
      6173      2058  TIP3      H1             -9.2484949752       -8.3798293232       -0.8075871492  WZ2       1123            0.0000000000
      6174      2058  TIP3      H2             -8.0210549752       -8.4340993232        0.0768928508  WZ2       1123            0.0000000000
      6175      2059  TIP3      OH2            -4.3322949752       -2.8409293232       -2.0226971492  WZ2       1124            0.0000000000
      6176      2059  TIP3      H1             -5.2328649752       -2.6576693232       -2.2903071492  WZ2       1124            0.0000000000
      6177      2059  TIP3      H2             -4.2981849752       -2.5819993232       -1.1018171492  WZ2       1124            0.0000000000
      6178      2060  TIP3      OH2             1.3990350248      -10.5961393232      -13.6554371492  WZ2       1125            0.0000000000
      6179      2060  TIP3      H1              0.8446650248      -10.9923393232      -14.3276871492  WZ2       1125            0.0000000000
      6180      2060  TIP3      H2              1.4993950248       -9.6856193232      -13.9331071492  WZ2       1125            0.0000000000
      6181      2061  TIP3      OH2             1.3622350248       -4.7959693232       -0.8182871492  WZ2       1126            0.0000000000
      6182      2061  TIP3      H1              0.5110850248       -4.5575893232       -1.1856471492  WZ2       1126            0.0000000000
      6183      2061  TIP3      H2              1.9525750248       -4.8126493232       -1.5715771492  WZ2       1126            0.0000000000
      6184      2062  TIP3      OH2            -0.3057949752       -1.8100993232      -13.1902271492  WZ2       1127            0.0000000000
      6185      2062  TIP3      H1             -0.6786849752       -2.6357193232      -12.8811671492  WZ2       1127            0.0000000000
      6186      2062  TIP3      H2             -0.0284449752       -1.9931593232      -14.0878871492  WZ2       1127            0.0000000000
      6187      2063  TIP3      OH2            -3.1454049752       -7.0021493232       -6.1690371492  WZ2       1128            0.0000000000
      6188      2063  TIP3      H1             -4.0737149752       -7.2339593232       -6.1961071492  WZ2       1128            0.0000000000
      6189      2063  TIP3      H2             -2.6942949752       -7.7791693232       -6.4991571492  WZ2       1128            0.0000000000
      6190      2064  TIP3      OH2           -10.6020949752       -2.6739893232      -10.0361671492  WZ2       1129            0.0000000000
      6191      2064  TIP3      H1            -10.0748749752       -1.9005493232      -10.2362871492  WZ2       1129            0.0000000000
      6192      2064  TIP3      H2            -11.4822449752       -2.4490693232      -10.3377671492  WZ2       1129            0.0000000000
      6193      2065  TIP3      OH2           -14.8473249752       -7.8115793232      -15.4489271492  WZ2       1130            0.0000000000
      6194      2065  TIP3      H1            -14.2313349752       -7.1848593232      -15.0694471492  WZ2       1130            0.0000000000
      6195      2065  TIP3      H2            -15.7090649752       -7.4955993232      -15.1772771492  WZ2       1130            0.0000000000
      6196      2066  TIP3      OH2            -9.1748649752       -5.0109993232      -10.4597371492  WZ2       1131            0.0000000000
      6197      2066  TIP3      H1             -9.4158649752       -4.0855593232      -10.4182071492  WZ2       1131            0.0000000000
      6198      2066  TIP3      H2             -9.9155049752       -5.4698693232      -10.0633471492  WZ2       1131            0.0000000000
      6199      2067  TIP3      OH2            -8.6602049752       -0.8616393232       -4.1446271492  WZ2       1132            0.0000000000
      6200      2067  TIP3      H1             -8.2977349752       -0.0070793232       -4.3781871492  WZ2       1132            0.0000000000
      6201      2067  TIP3      H2             -8.1286849752       -1.1534793232       -3.4039971492  WZ2       1132            0.0000000000
      6202      2068  TIP3      OH2           -10.4917849752        0.0107606768      -10.9145171492  WZ2       1133            0.0000000000
      6203      2068  TIP3      H1            -11.4417349752        0.1165006768      -10.8631871492  WZ2       1133            0.0000000000
      6204      2068  TIP3      H2            -10.1399749752        0.8315006768      -10.5697671492  WZ2       1133            0.0000000000
      6205      2069  TIP3      OH2            -5.1161249752       -4.7625693232       -4.4440671492  WZ2       1134            0.0000000000
      6206      2069  TIP3      H1             -5.5419949752       -4.9903993232       -3.6176671492  WZ2       1134            0.0000000000
      6207      2069  TIP3      H2             -4.5355449752       -5.5013893232       -4.6265371492  WZ2       1134            0.0000000000
      6208      2070  TIP3      OH2            -2.9132349752       -3.8335193232      -15.3701671492  WZ2       1135            0.0000000000
      6209      2070  TIP3      H1             -2.5599249752       -4.2135393232      -14.5658171492  WZ2       1135            0.0000000000
      6210      2070  TIP3      H2             -3.8618849752       -3.9270393232      -15.2832371492  WZ2       1135            0.0000000000
      6211      2071  TIP3      OH2            -2.4577049752       -0.2106193232       -1.9745871492  WZ2       1136            0.0000000000
      6212      2071  TIP3      H1             -3.0593849752       -0.7663293232       -2.4699571492  WZ2       1136            0.0000000000
      6213      2071  TIP3      H2             -2.1763349752        0.4563606768       -2.6008471492  WZ2       1136            0.0000000000
      6214      2072  TIP3      OH2             1.5902050248        0.6457306768      -15.1691471492  WZ2       1137            0.0000000000
      6215      2072  TIP3      H1              2.3339950248        1.2317806768      -15.3089871492  WZ2       1137            0.0000000000
      6216      2072  TIP3      H2              0.8960150248        1.2143106768      -14.8359071492  WZ2       1137            0.0000000000
      6217      2073  TIP3      OH2           -14.3351149752      -12.9778493232       -2.5673271492  WZ2       1138            0.0000000000
      6218      2073  TIP3      H1            -15.2278849752      -12.6393093232       -2.6349271492  WZ2       1138            0.0000000000
      6219      2073  TIP3      H2            -14.4338349752      -13.8332393232       -2.1492471492  WZ2       1138            0.0000000000
      6220      2074  TIP3      OH2            -2.0473049752       -5.1613193232      -13.1433771492  WZ2       1139            0.0000000000
      6221      2074  TIP3      H1             -2.3245449752       -5.8893893232      -12.5872671492  WZ2       1139            0.0000000000
      6222      2074  TIP3      H2             -1.1200049752       -5.0421193232      -12.9381171492  WZ2       1139            0.0000000000
      6223      2075  TIP3      OH2           -14.6839149752       -1.1734093232       -4.1323871492  WZ2       1140            0.0000000000
      6224      2075  TIP3      H1            -14.4668849752       -2.1051693232       -4.1634171492  WZ2       1140            0.0000000000
      6225      2075  TIP3      H2            -14.4375649752       -0.8989093232       -3.2491071492  WZ2       1140            0.0000000000
      6226      2076  TIP3      OH2            -8.8224549752       -2.7219093232      -16.9231671492  WZ2       1141            0.0000000000
      6227      2076  TIP3      H1             -8.5834749752       -3.4700993232      -17.4702771492  WZ2       1141            0.0000000000
      6228      2076  TIP3      H2             -9.0913249752       -3.1097393232      -16.0903871492  WZ2       1141            0.0000000000
      6229      2077  TIP3      OH2            -9.8853949752       -3.1515293232      -14.4669071492  WZ2       1142            0.0000000000
      6230      2077  TIP3      H1             -9.7385949752       -3.6715493232      -13.6768171492  WZ2       1142            0.0000000000
      6231      2077  TIP3      H2             -9.8882249752       -2.2447693232      -14.1603171492  WZ2       1142            0.0000000000
      6232      2078  TIP3      OH2           -13.4322849752       -5.8991993232      -13.9563671492  WZ2       1143            0.0000000000
      6233      2078  TIP3      H1            -14.1183549752       -5.5469493232      -13.3893971492  WZ2       1143            0.0000000000
      6234      2078  TIP3      H2            -12.9094949752       -5.1362393232      -14.2029371492  WZ2       1143            0.0000000000
      6235      2079  TIP3      OH2            -5.6007749752      -13.2368193232       -3.6774671492  WZ2       1144            0.0000000000
      6236      2079  TIP3      H1             -4.9019849752      -13.1629493232       -3.0274971492  WZ2       1144            0.0000000000
      6237      2079  TIP3      H2             -5.9816349752      -14.1013193232       -3.5231771492  WZ2       1144            0.0000000000
      6238      2080  TIP3      OH2            -4.8162849752      -13.5846493232      -12.5802371492  WZ2       1145            0.0000000000
      6239      2080  TIP3      H1             -4.5964549752      -13.1131093232      -13.3836971492  WZ2       1145            0.0000000000
      6240      2080  TIP3      H2             -4.2578849752      -13.1903893232      -11.9101771492  WZ2       1145            0.0000000000
      6241      2081  TIP3      OH2            -7.1476749752       -1.4541693232      -13.7174871492  WZ2       1146            0.0000000000
      6242      2081  TIP3      H1             -7.9640649752       -0.9571993232      -13.6650571492  WZ2       1146            0.0000000000
      6243      2081  TIP3      H2             -6.6180449752       -0.9788193232      -14.3576071492  WZ2       1146            0.0000000000
      6244      2082  TIP3      OH2            -7.6162949752      -11.8567693232      -11.7453971492  WZ2       1147            0.0000000000
      6245      2082  TIP3      H1             -6.8040349752      -11.3524493232      -11.6992271492  WZ2       1147            0.0000000000
      6246      2082  TIP3      H2             -7.8609949752      -12.0017993232      -10.8314371492  WZ2       1147            0.0000000000
      6247      2083  TIP3      OH2            -7.0806549752      -10.8704993232       -2.5607371492  WZ2       1148            0.0000000000
      6248      2083  TIP3      H1             -6.9616249752      -10.2969593232       -1.8036971492  WZ2       1148            0.0000000000
      6249      2083  TIP3      H2             -6.4251949752      -11.5585593232       -2.4459571492  WZ2       1148            0.0000000000
      6250      2084  TIP3      OH2            -6.7326249752      -14.7754693232      -10.8072871492  WZ2       1149            0.0000000000
      6251      2084  TIP3      H1             -7.0792749752      -14.1584093232      -10.1628571492  WZ2       1149            0.0000000000
      6252      2084  TIP3      H2             -6.0739349752      -14.2748993232      -11.2887371492  WZ2       1149            0.0000000000
      6253      2085  TIP3      OH2            -9.8093649752       -0.4104493232      -13.7357971492  WZ2       1150            0.0000000000
      6254      2085  TIP3      H1             -9.6484949752        0.3893006768      -14.2365371492  WZ2       1150            0.0000000000
      6255      2085  TIP3      H2            -10.0065849752       -0.1038493232      -12.8507371492  WZ2       1150            0.0000000000
      6256      2086  TIP3      OH2           -11.0749249752      -13.7125293232      -14.1200371492  WZ2       1151            0.0000000000
      6257      2086  TIP3      H1            -11.1584449752      -12.8242193232      -13.7733971492  WZ2       1151            0.0000000000
      6258      2086  TIP3      H2            -10.1848949752      -13.9778593232      -13.8883571492  WZ2       1151            0.0000000000
      6259      2087  TIP3      OH2            -0.8760749752      -12.9634693232       -1.7257671492  WZ2       1152            0.0000000000
      6260      2087  TIP3      H1             -1.7924949752      -12.7012993232       -1.8133971492  WZ2       1152            0.0000000000
      6261      2087  TIP3      H2             -0.5405749752      -12.9665693232       -2.6222371492  WZ2       1152            0.0000000000
      6262      2088  TIP3      OH2            -2.2739749752       -9.2133693232       -7.6300371492  WZ2       1153            0.0000000000
      6263      2088  TIP3      H1             -3.0715349752       -9.6283493232       -7.9585371492  WZ2       1153            0.0000000000
      6264      2088  TIP3      H2             -1.8288649752       -9.9039993232       -7.1389871492  WZ2       1153            0.0000000000
      6265      2089  TIP3      OH2           -12.8163949752       -3.2853093232      -15.0595871492  WZ2       1154            0.0000000000
      6266      2089  TIP3      H1            -12.2242449752       -2.5858293232      -14.7833471492  WZ2       1154            0.0000000000
      6267      2089  TIP3      H2            -12.3570949752       -3.7183593232      -15.7791271492  WZ2       1154            0.0000000000
      6268      2090  TIP3      OH2           -14.5004749752      -10.6210093232      -15.9436471492  WZ2       1155            0.0000000000
      6269      2090  TIP3      H1            -14.5452149752       -9.6816993232      -15.7649471492  WZ2       1155            0.0000000000
      6270      2090  TIP3      H2            -15.3881549752      -10.8565193232      -16.2134371492  WZ2       1155            0.0000000000
      6271      2091  TIP3      OH2            -1.1875149752        0.0428806768       -6.0076871492  WZ2       1156            0.0000000000
      6272      2091  TIP3      H1             -1.3430849752        0.7213206768       -6.6647571492  WZ2       1156            0.0000000000
      6273      2091  TIP3      H2             -0.2548749752        0.1148106768       -5.8046271492  WZ2       1156            0.0000000000
      6274      2092  TIP3      OH2           -13.6922749752      -15.8393493232       -7.2705471492  WZ2       1157            0.0000000000
      6275      2092  TIP3      H1            -13.9212949752      -15.7800993232       -8.1980471492  WZ2       1157            0.0000000000
      6276      2092  TIP3      H2            -14.1349349752      -16.6307993232       -6.9641371492  WZ2       1157            0.0000000000
      6277      2093  TIP3      OH2           -14.7619449752       -1.8986393232      -11.1099671492  WZ2       1158            0.0000000000
      6278      2093  TIP3      H1            -15.5940849752       -1.4263693232      -11.0828271492  WZ2       1158            0.0000000000
      6279      2093  TIP3      H2            -14.2161149752       -1.3888793232      -11.7086571492  WZ2       1158            0.0000000000
      6280      2094  TIP3      OH2           -15.4735749752        0.7137306768        0.2198328508  WZ2       1159            0.0000000000
      6281      2094  TIP3      H1            -14.9333549752        0.4971306768        0.9797528508  WZ2       1159            0.0000000000
      6282      2094  TIP3      H2            -15.9547749752       -0.0916693232        0.0300828508  WZ2       1159            0.0000000000
      6283      2095  TIP3      OH2           -10.8762349752       -0.3668293232        1.8402528508  WZ2       1160            0.0000000000
      6284      2095  TIP3      H1            -10.1085149752       -0.8257493232        2.1811728508  WZ2       1160            0.0000000000
      6285      2095  TIP3      H2            -10.8976149752       -0.5928493232        0.9103728508  WZ2       1160            0.0000000000
      6286      2096  TIP3      OH2            -6.7842749752       -0.8587693232      -16.7845671492  WZ2       1161            0.0000000000
      6287      2096  TIP3      H1             -7.4281749752       -1.4899093232      -16.4631971492  WZ2       1161            0.0000000000
      6288      2096  TIP3      H2             -6.0224449752       -1.3899693232      -17.0162171492  WZ2       1161            0.0000000000
      6289      2097  TIP3      OH2            -4.2993649752       -1.9867193232        0.5694028508  WZ2       1162            0.0000000000
      6290      2097  TIP3      H1             -4.6504149752       -2.8434193232        0.8124428508  WZ2       1162            0.0000000000
      6291      2097  TIP3      H2             -3.5730449752       -1.8440493232        1.1763028508  WZ2       1162            0.0000000000
      6292      2098  TIP3      OH2            -2.1799849752       -1.0417793232      -16.5507671492  WZ2       1163            0.0000000000
      6293      2098  TIP3      H1             -1.8969449752       -1.8362593232      -16.0980771492  WZ2       1163            0.0000000000
      6294      2098  TIP3      H2             -1.4401949752       -0.8086793232      -17.1116571492  WZ2       1163            0.0000000000
      6295      2099  TIP3      OH2           -15.5666249752       -5.4758593232        1.1742628508  WZ2       1164            0.0000000000
      6296      2099  TIP3      H1            -15.4225749752       -6.3777893232        0.8879328508  WZ2       1164            0.0000000000
      6297      2099  TIP3      H2            -16.3388849752       -5.1896493232        0.6864928508  WZ2       1164            0.0000000000
      6298      2100  TIP3      OH2           -11.2252549752       -5.1322893232      -16.6932771492  WZ2       1165            0.0000000000
      6299      2100  TIP3      H1            -11.1608449752       -5.9263293232      -16.1626371492  WZ2       1165            0.0000000000
      6300      2100  TIP3      H2            -10.5723349752       -5.2510093232      -17.3830771492  WZ2       1165            0.0000000000
      6301      2101  TIP3      OH2            -8.9110149752       -5.5060493232        0.6069028508  WZ2       1166            0.0000000000
      6302      2101  TIP3      H1             -9.2396349752       -5.2352393232       -0.2503571492  WZ2       1166            0.0000000000
      6303      2101  TIP3      H2             -8.7591949752       -6.4470693232        0.5194028508  WZ2       1166            0.0000000000
      6304      2102  TIP3      OH2            -5.8729149752       -4.0851193232      -16.9574771492  WZ2       1167            0.0000000000
      6305      2102  TIP3      H1             -6.1415049752       -3.9049093232      -16.0565871492  WZ2       1167            0.0000000000
      6306      2102  TIP3      H2             -6.0793549752       -5.0104993232      -17.0888971492  WZ2       1167            0.0000000000
      6307      2103  TIP3      OH2            -3.1764949752       -5.5903193232       -2.0098671492  WZ2       1168            0.0000000000
      6308      2103  TIP3      H1             -2.4310149752       -5.0019493232       -2.1294671492  WZ2       1168            0.0000000000
      6309      2103  TIP3      H2             -3.9338149752       -5.0083493232       -1.9465571492  WZ2       1168            0.0000000000
      6310      2104  TIP3      OH2           -14.7339749752       -8.2755293232        0.5941928508  WZ2       1169            0.0000000000
      6311      2104  TIP3      H1            -14.3258549752       -9.1328693232        0.4732528508  WZ2       1169            0.0000000000
      6312      2104  TIP3      H2            -14.9942149752       -8.2613993232        1.5152228508  WZ2       1169            0.0000000000
      6313      2105  TIP3      OH2           -10.0758749752       -7.1596693232      -14.3874771492  WZ2       1170            0.0000000000
      6314      2105  TIP3      H1            -10.5356749752       -7.6438393232      -13.7016271492  WZ2       1170            0.0000000000
      6315      2105  TIP3      H2             -9.8210049752       -7.8281293232      -15.0234271492  WZ2       1170            0.0000000000
      6316      2106  TIP3      OH2           -10.7869449752       -9.2669593232       -2.0315171492  WZ2       1171            0.0000000000
      6317      2106  TIP3      H1            -11.4053349752       -8.5922993232       -1.7510471492  WZ2       1171            0.0000000000
      6318      2106  TIP3      H2            -10.4428249752       -8.9455693232       -2.8648971492  WZ2       1171            0.0000000000
      6319      2107  TIP3      OH2            -9.0048349752       -8.9164893232      -16.1251571492  WZ2       1172            0.0000000000
      6320      2107  TIP3      H1             -9.1853349752       -9.0713693232      -17.0523271492  WZ2       1172            0.0000000000
      6321      2107  TIP3      H2             -8.0547849752       -8.8086193232      -16.0803671492  WZ2       1172            0.0000000000
      6322      2108  TIP3      OH2            -5.7671249752       -6.7954293232        1.2459628508  WZ2       1173            0.0000000000
      6323      2108  TIP3      H1             -4.8140049752       -6.7115193232        1.2185628508  WZ2       1173            0.0000000000
      6324      2108  TIP3      H2             -5.9276649752       -7.5072493232        1.8654528508  WZ2       1173            0.0000000000
      6325      2109  TIP3      OH2             0.3849950248       -6.5620693232      -16.6793471492  WZ2       1174            0.0000000000
      6326      2109  TIP3      H1              0.1114750248       -6.9865193232      -17.4925171492  WZ2       1174            0.0000000000
      6327      2109  TIP3      H2              0.4244050248       -5.6306193232      -16.8963071492  WZ2       1174            0.0000000000
      6328      2110  TIP3      OH2           -10.4475749752      -11.9118793232       -0.9492071492  WZ2       1175            0.0000000000
      6329      2110  TIP3      H1            -10.2974849752      -12.6407493232       -1.5512371492  WZ2       1175            0.0000000000
      6330      2110  TIP3      H2            -10.4453349752      -11.1347093232       -1.5079871492  WZ2       1175            0.0000000000
      6331      2111  TIP3      OH2           -10.0350049752      -13.5422993232       -3.4564671492  WZ2       1176            0.0000000000
      6332      2111  TIP3      H1             -9.4992549752      -13.0906293232       -4.1085371492  WZ2       1176            0.0000000000
      6333      2111  TIP3      H2            -10.8870449752      -13.6503193232       -3.8790571492  WZ2       1176            0.0000000000
      6334      2112  TIP3      OH2            -8.4531649752       -8.1026793232       -3.2169471492  WZ2       1177            0.0000000000
      6335      2112  TIP3      H1             -7.7026849752       -8.2589293232       -3.7901671492  WZ2       1177            0.0000000000
      6336      2112  TIP3      H2             -8.7923349752       -7.2510193232       -3.4923971492  WZ2       1177            0.0000000000
      6337      2113  TIP3      OH2            -4.0375449752      -10.2874993232        1.8115828508  WZ2       1178            0.0000000000
      6338      2113  TIP3      H1             -3.8454149752      -11.2185593232        1.7000328508  WZ2       1178            0.0000000000
      6339      2113  TIP3      H2             -3.1799149752       -9.8625493232        1.8011228508  WZ2       1178            0.0000000000
      6340      2114  TIP3      OH2            -2.7208249752       -7.4989793232       -0.1111471492  WZ2       1179            0.0000000000
      6341      2114  TIP3      H1             -3.0023249752       -6.7895193232       -0.6887671492  WZ2       1179            0.0000000000
      6342      2114  TIP3      H2             -1.7783949752       -7.5716793232       -0.2620271492  WZ2       1179            0.0000000000
      6343      2115  TIP3      OH2           -11.9689449752      -10.7135293232        0.9623528508  WZ2       1180            0.0000000000
      6344      2115  TIP3      H1            -12.7360449752      -11.2460493232        0.7521128508  WZ2       1180            0.0000000000
      6345      2115  TIP3      H2            -11.2900449752      -11.0234893232        0.3629828508  WZ2       1180            0.0000000000
      6346      2116  TIP3      OH2            -9.2294549752      -16.0857293232       -3.0251071492  WZ2       1181            0.0000000000
      6347      2116  TIP3      H1             -9.3274949752      -15.1394093232       -3.1304871492  WZ2       1181            0.0000000000
      6348      2116  TIP3      H2             -9.9718349752      -16.4583493232       -3.5007571492  WZ2       1181            0.0000000000
      6349      2117  TIP3      OH2            -7.9654049752      -11.7641893232        0.5387328508  WZ2       1182            0.0000000000
      6350      2117  TIP3      H1             -8.2008649752      -11.9835193232        1.4402228508  WZ2       1182            0.0000000000
      6351      2117  TIP3      H2             -8.7487149752      -11.9710693232        0.0289828508  WZ2       1182            0.0000000000
      6352      2118  TIP3      OH2            -5.2497449752      -12.6368393232       -0.3859171492  WZ2       1183            0.0000000000
      6353      2118  TIP3      H1             -6.1972049752      -12.6048693232       -0.2535871492  WZ2       1183            0.0000000000
      6354      2118  TIP3      H2             -4.9370749752      -13.2621293232        0.2679028508  WZ2       1183            0.0000000000
      6355      2119  TIP3      OH2            -3.6155949752      -14.0027293232        1.6192728508  WZ2       1184            0.0000000000
      6356      2119  TIP3      H1             -3.7124149752      -14.9549993232        1.6134628508  WZ2       1184            0.0000000000
      6357      2119  TIP3      H2             -3.9372849752      -13.7340493232        2.4798228508  WZ2       1184            0.0000000000
      6358      2120  TIP3      OH2           -13.7886649752      -12.7931493232        0.6668228508  WZ2       1185            0.0000000000
      6359      2120  TIP3      H1            -13.5769249752      -13.4995393232        0.0565728508  WZ2       1185            0.0000000000
      6360      2120  TIP3      H2            -13.8999149752      -13.2305493232        1.5109428508  WZ2       1185            0.0000000000
      6361      2121  TIP3      OH2            -9.0076449752      -16.7919893232       -0.3538271492  WZ2       1186            0.0000000000
      6362      2121  TIP3      H1             -8.2958049752      -17.4317693232       -0.3679171492  WZ2       1186            0.0000000000
      6363      2121  TIP3      H2             -9.1086049752      -16.5251593232       -1.2675171492  WZ2       1186            0.0000000000
      6364      2122  TIP3      OH2            -8.6538949752      -15.1091493232        1.6998028508  WZ2       1187            0.0000000000
      6365      2122  TIP3      H1             -8.7856749752      -15.5847693232        0.8796528508  WZ2       1187            0.0000000000
      6366      2122  TIP3      H2             -9.2531549752      -14.3647893232        1.6445128508  WZ2       1187            0.0000000000
      6367      2123  TIP3      OH2            -9.1076649752        1.7738806768      -15.1237971492  WZ2       1188            0.0000000000
      6368      2123  TIP3      H1             -8.1745949752        1.9317506768      -14.9799571492  WZ2       1188            0.0000000000
      6369      2123  TIP3      H2             -9.3717849752        2.4491806768      -15.7486471492  WZ2       1188            0.0000000000
      6370      2124  TIP3      OH2           -15.5391749752       -3.5897393232      -15.6409871492  WZ2       1189            0.0000000000
      6371      2124  TIP3      H1            -14.6252549752       -3.5108493232      -15.3675971492  WZ2       1189            0.0000000000
      6372      2124  TIP3      H2            -15.5318649752       -4.2767793232      -16.3074271492  WZ2       1189            0.0000000000
      6373      2125  TIP3      OH2           -16.8901149752        1.8031106768      -10.5635971492  WZ2       1190            0.0000000000
      6374      2125  TIP3      H1            -17.5374049752        1.3412806768      -11.0964771492  WZ2       1190            0.0000000000
      6375      2125  TIP3      H2            -16.5356549752        1.1314406768       -9.9809771492  WZ2       1190            0.0000000000
      6376      2126  TIP3      OH2           -16.0201949752       -0.1161893232       -8.7589771492  WZ2       1191            0.0000000000
      6377      2126  TIP3      H1            -16.3545149752       -0.9964593232       -8.5869571492  WZ2       1191            0.0000000000
      6378      2126  TIP3      H2            -15.7979549752        0.2293106768       -7.8944171492  WZ2       1191            0.0000000000
      6379      2127  TIP3      OH2             1.5282850248        0.6934506768       -5.7784971492  WZ2       1192            0.0000000000
      6380      2127  TIP3      H1              1.5069550248        0.8782906768       -4.8395571492  WZ2       1192            0.0000000000
      6381      2127  TIP3      H2              2.2189050248        1.2618506768       -6.1193571492  WZ2       1192            0.0000000000
      6382      2128  TIP3      OH2             1.0915750248        0.2605606768       -2.8565871492  WZ2       1193            0.0000000000
      6383      2128  TIP3      H1              0.6044450248       -0.4750293232       -3.2278471492  WZ2       1193            0.0000000000
      6384      2128  TIP3      H2              1.6408450248       -0.1330493232       -2.1786471492  WZ2       1193            0.0000000000
      6385      2129  TIP3      OH2            -0.4576949752       -3.9496293232        1.7814428508  WZ2       1194            0.0000000000
      6386      2129  TIP3      H1             -1.3235849752       -4.0546593232        2.1756728508  WZ2       1194            0.0000000000
      6387      2129  TIP3      H2             -0.0811049752       -3.1912993232        2.2279128508  WZ2       1194            0.0000000000
      6388      2130  TIP3      OH2             0.8432750248       -5.6932593232      -12.7043071492  WZ2       1195            0.0000000000
      6389      2130  TIP3      H1              1.6934150248       -5.2721693232      -12.5771471492  WZ2       1195            0.0000000000
      6390      2130  TIP3      H2              0.8487850248       -6.4332493232      -12.0971671492  WZ2       1195            0.0000000000
      6391      2131  TIP3      OH2             1.2378350248       -7.6395193232      -10.8807371492  WZ2       1196            0.0000000000
      6392      2131  TIP3      H1              0.5112950248       -8.1192593232      -10.4829771492  WZ2       1196            0.0000000000
      6393      2131  TIP3      H2              1.8191650248       -7.4340493232      -10.1485771492  WZ2       1196            0.0000000000
      6394      2132  TIP3      OH2             0.9969550248       -4.8547693232       -5.9329771492  WZ2       1197            0.0000000000
      6395      2132  TIP3      H1              1.8303750248       -5.2327693232       -6.2136171492  WZ2       1197            0.0000000000
      6396      2132  TIP3      H2              1.1089850248       -3.9116493232       -6.0520671492  WZ2       1197            0.0000000000
      6397      2133  TIP3      OH2            -0.5168149752       -1.9770193232       -3.6261371492  WZ2       1198            0.0000000000
      6398      2133  TIP3      H1             -1.1642849752       -1.6518693232       -3.0006171492  WZ2       1198            0.0000000000
      6399      2133  TIP3      H2             -1.0344149752       -2.4172493232       -4.3003071492  WZ2       1198            0.0000000000
      6400      2134  TIP3      OH2             1.5061450248       -7.7386693232      -14.4896071492  WZ2       1199            0.0000000000
      6401      2134  TIP3      H1              0.9842550248       -7.3822593232      -15.2085171492  WZ2       1199            0.0000000000
      6402      2134  TIP3      H2              1.4730650248       -7.0638893232      -13.8115171492  WZ2       1199            0.0000000000
      6403      2135  TIP3      OH2            -0.1449549752      -10.4991093232      -15.9388971492  WZ2       1200            0.0000000000
      6404      2135  TIP3      H1             -0.0485149752       -9.8324093232      -16.6189271492  WZ2       1200            0.0000000000
      6405      2135  TIP3      H2             -0.2849949752      -11.3144793232      -16.4203471492  WZ2       1200            0.0000000000
      6406      2136  TIP3      OH2            -0.9754849752       -9.1188693232      -10.3178671492  WZ2       1201            0.0000000000
      6407      2136  TIP3      H1             -1.1256049752      -10.0640093232      -10.3380871492  WZ2       1201            0.0000000000
      6408      2136  TIP3      H2             -1.3290349752       -8.8377293232       -9.4739571492  WZ2       1201            0.0000000000
      6409      2137  TIP3      OH2           -15.9402449752       -7.0406493232       -6.3074871492  WZ2       1202            0.0000000000
      6410      2137  TIP3      H1            -15.7559549752       -7.1224793232       -7.2431971492  WZ2       1202            0.0000000000
      6411      2137  TIP3      H2            -15.0909549752       -7.1649493232       -5.8838471492  WZ2       1202            0.0000000000
      6412      2138  TIP3      OH2            -0.1191949752       -7.1485393232       -0.6790371492  WZ2       1203            0.0000000000
      6413      2138  TIP3      H1              0.4635350248       -7.8833093232       -0.4873171492  WZ2       1203            0.0000000000
      6414      2138  TIP3      H2              0.4447350248       -6.3765093232       -0.6324571492  WZ2       1203            0.0000000000
      6415      2139  TIP3      OH2             1.3775150248       -9.2459593232        0.0055028508  WZ2       1204            0.0000000000
      6416      2139  TIP3      H1              0.5141850248       -9.6247493232       -0.1600271492  WZ2       1204            0.0000000000
      6417      2139  TIP3      H2              1.9818850248       -9.9844793232       -0.0689171492  WZ2       1204            0.0000000000
      6418      2140  TIP3      OH2            -0.8975749752      -13.0911293232      -16.8213471492  WZ2       1205            0.0000000000
      6419      2140  TIP3      H1             -0.2869949752      -13.4624493232      -16.1845271492  WZ2       1205            0.0000000000
      6420      2140  TIP3      H2             -1.7344249752      -13.5124393232      -16.6253471492  WZ2       1205            0.0000000000
      6421      2141  TIP3      OH2            -1.2650049752      -11.5362893232      -11.8553571492  WZ2       1206            0.0000000000
      6422      2141  TIP3      H1             -0.9852949752      -12.4432493232      -11.7311871492  WZ2       1206            0.0000000000
      6423      2141  TIP3      H2             -0.5058349752      -11.1021393232      -12.2444371492  WZ2       1206            0.0000000000
      6424      2142  TIP3      OH2            -0.6531749752      -10.9545493232       -6.4194671492  WZ2       1207            0.0000000000
      6425      2142  TIP3      H1              0.2796250248      -10.7425593232       -6.4538671492  WZ2       1207            0.0000000000
      6426      2142  TIP3      H2             -0.8884249752      -10.8533393232       -5.4971671492  WZ2       1207            0.0000000000
      6427      2143  TIP3      OH2            -0.6239849752      -10.2180193232       -3.6435271492  WZ2       1208            0.0000000000
      6428      2143  TIP3      H1             -1.4668549752       -9.9499793232       -3.2775471492  WZ2       1208            0.0000000000
      6429      2143  TIP3      H2             -0.1815549752       -9.3958293232       -3.8544171492  WZ2       1208            0.0000000000
      6430      2144  TIP3      OH2           -16.3427649752      -11.7701493232       -0.1666071492  WZ2       1209            0.0000000000
      6431      2144  TIP3      H1            -15.4232749752      -11.8923193232        0.0697028508  WZ2       1209            0.0000000000
      6432      2144  TIP3      H2            -16.7923149752      -12.5201793232        0.2227428508  WZ2       1209            0.0000000000
      6433      2145  TIP3      OH2             1.6591750248      -16.2379993232        1.7099728508  WZ2       1210            0.0000000000
      6434      2145  TIP3      H1              2.0088750248      -16.8916493232        1.1044428508  WZ2       1210            0.0000000000
      6435      2145  TIP3      H2              1.8061250248      -15.4005893232        1.2702328508  WZ2       1210            0.0000000000
      6436      2146  TIP3      OH2            -0.6515249752      -14.2733593232      -11.8071571492  WZ2       1211            0.0000000000
      6437      2146  TIP3      H1             -0.4690249752      -14.7222093232      -10.9816571492  WZ2       1211            0.0000000000
      6438      2146  TIP3      H2             -1.2512349752      -14.8579193232      -12.2706971492  WZ2       1211            0.0000000000
      6439      2147  TIP3      OH2           -15.1215149752      -13.4579893232       -7.2753171492  WZ2       1212            0.0000000000
      6440      2147  TIP3      H1            -14.6763549752      -14.2497393232       -6.9733471492  WZ2       1212            0.0000000000
      6441      2147  TIP3      H2            -14.6552149752      -12.7414693232       -6.8447571492  WZ2       1212            0.0000000000
      6442      2148  TIP3      OH2           -16.8174849752      -10.4586893232       -6.2062971492  WZ2       1213            0.0000000000
      6443      2148  TIP3      H1            -16.3255049752      -10.6796393232       -6.9970971492  WZ2       1213            0.0000000000
      6444      2148  TIP3      H2            -16.4553949752       -9.6183493232       -5.9253471492  WZ2       1213            0.0000000000
      6445      2149  TIP3      OH2             1.1788950248      -14.1285393232        0.0591028508  WZ2       1214            0.0000000000
      6446      2149  TIP3      H1              0.2614650248      -13.8578293232        0.0234528508  WZ2       1214            0.0000000000
      6447      2149  TIP3      H2              1.3018350248      -14.6636993232       -0.7249271492  WZ2       1214            0.0000000000
      6448      2150  TIP3      OH2             1.2150950248      -14.2055493232      -15.2791271492  WZ2       1215            0.0000000000
      6449      2150  TIP3      H1              1.6273550248      -14.9269793232      -15.7543271492  WZ2       1215            0.0000000000
      6450      2150  TIP3      H2              1.8967450248      -13.5360893232      -15.2206971492  WZ2       1215            0.0000000000
      6451      2151  TIP3      OH2           -16.5038349752      -14.2007793232      -12.1520571492  WZ2       1216            0.0000000000
      6452      2151  TIP3      H1            -17.4289949752      -13.9921193232      -12.2815071492  WZ2       1216            0.0000000000
      6453      2151  TIP3      H2            -16.0498449752      -13.7166993232      -12.8418271492  WZ2       1216            0.0000000000
      6454      2152  TIP3      OH2            -1.7331149752        0.7833906768      -10.2063171492  WZ2       1217            0.0000000000
      6455      2152  TIP3      H1             -1.0808249752        0.4356006768      -10.8144071492  WZ2       1217            0.0000000000
      6456      2152  TIP3      H2             -1.2227349752        1.2717106768       -9.5603471492  WZ2       1217            0.0000000000
      6457      2153  TIP3      OH2           -16.5402949752      -15.4628793232       -3.8078071492  WZ2       1218            0.0000000000
      6458      2153  TIP3      H1            -17.2052449752      -15.7088493232       -3.1647171492  WZ2       1218            0.0000000000
      6459      2153  TIP3      H2            -16.9831649752      -14.8408393232       -4.3850071492  WZ2       1218            0.0000000000
      6460      2154  TIP3      OH2           -14.3483649752       -2.2874693232        0.3367728508  WZ2       1219            0.0000000000
      6461      2154  TIP3      H1            -15.1691149752       -2.1128193232       -0.1237571492  WZ2       1219            0.0000000000
      6462      2154  TIP3      H2            -14.6005849752       -2.3609993232        1.2572128508  WZ2       1219            0.0000000000
      6463      2155  TIP3      OH2           -11.3940749752       -1.3133493232       -3.4048271492  WZ2       1220            0.0000000000
      6464      2155  TIP3      H1            -11.8189649752       -0.5034993232       -3.6873671492  WZ2       1220            0.0000000000
      6465      2155  TIP3      H2            -10.4897949752       -1.2279393232       -3.7068471492  WZ2       1220            0.0000000000
      6466      2156  TIP3      OH2            -7.0829349752        0.0856506768       -0.4454571492  WZ2       1221            0.0000000000
      6467      2156  TIP3      H1             -6.8981849752       -0.2477393232        0.4325728508  WZ2       1221            0.0000000000
      6468      2156  TIP3      H2             -6.2364849752        0.3955106768       -0.7675371492  WZ2       1221            0.0000000000
      6469      2157  TIP3      OH2            -4.7378949752        1.3715406768       -1.2013171492  WZ2       1222            0.0000000000
      6470      2157  TIP3      H1             -4.0610049752        0.7387706768       -1.4413971492  WZ2       1222            0.0000000000
      6471      2157  TIP3      H2             -4.4160149752        1.7725906768       -0.3939871492  WZ2       1222            0.0000000000
      6472      2158  TIP3      OH2             0.1794850248      -16.0389093232       -2.1218171492  WZ2       1223            0.0000000000
      6473      2158  TIP3      H1             -0.6331649752      -15.7138793232       -2.5093471492  WZ2       1223            0.0000000000
      6474      2158  TIP3      H2              0.4123350248      -16.7990593232       -2.6549071492  WZ2       1223            0.0000000000
      6475      2159  TIP3      OH2           -13.9924049752        1.9430406768       -3.3572971492  WZ2       1224            0.0000000000
      6476      2159  TIP3      H1            -14.7127649752        2.3831406768       -3.8085271492  WZ2       1224            0.0000000000
      6477      2159  TIP3      H2            -14.3580049752        1.6925106768       -2.5088971492  WZ2       1224            0.0000000000
      6478      2160  TIP3      OH2           -11.5251449752        1.5434306768       -4.3275771492  WZ2       1225            0.0000000000
      6479      2160  TIP3      H1            -12.3899249752        1.6152806768       -3.9235671492  WZ2       1225            0.0000000000
      6480      2160  TIP3      H2            -11.5802449752        2.0901606768       -5.1113271492  WZ2       1225            0.0000000000
      6481      2161  TIP3      OH2            -6.8145849752        1.4313206768       -5.1519771492  WZ2       1226            0.0000000000
      6482      2161  TIP3      H1             -7.2711849752        1.9602906768       -5.8061371492  WZ2       1226            0.0000000000
      6483      2161  TIP3      H2             -6.6517849752        2.0344606768       -4.4267471492  WZ2       1226            0.0000000000
      6484      2162  TIP3      OH2            -4.4869549752        0.3092806768       -4.2069471492  WZ2       1227            0.0000000000
      6485      2162  TIP3      H1             -5.3915849752        0.4743006768       -4.4727371492  WZ2       1227            0.0000000000
      6486      2162  TIP3      H2             -4.0580949752        1.1625006768       -4.2726071492  WZ2       1227            0.0000000000
      6487      2163  TIP3      OH2            -1.8827649752        1.8791906768       -3.9121671492  WZ2       1228            0.0000000000
      6488      2163  TIP3      H1             -2.0645649752        2.7950806768       -4.1226771492  WZ2       1228            0.0000000000
      6489      2163  TIP3      H2             -1.7059849752        1.4689006768       -4.7587071492  WZ2       1228            0.0000000000
      6490      2164  TIP3      OH2           -14.5775949752        0.5662906768       -6.4471171492  WZ2       1229            0.0000000000
      6491      2164  TIP3      H1            -14.5959949752        0.1408006768       -5.5898871492  WZ2       1229            0.0000000000
      6492      2164  TIP3      H2            -13.7728049752        0.2477906768       -6.8558971492  WZ2       1229            0.0000000000
      6493      2165  TIP3      OH2           -12.4362849752       -0.7238393232       -7.7921271492  WZ2       1230            0.0000000000
      6494      2165  TIP3      H1            -12.6552149752       -1.6400993232       -7.6225271492  WZ2       1230            0.0000000000
      6495      2165  TIP3      H2            -11.6120649752       -0.5837993232       -7.3259871492  WZ2       1230            0.0000000000
      6496      2166  TIP3      OH2            -9.8990349752       -0.2539093232       -6.9433271492  WZ2       1231            0.0000000000
      6497      2166  TIP3      H1             -9.6864649752       -1.1420093232       -7.2302371492  WZ2       1231            0.0000000000
      6498      2166  TIP3      H2             -9.8345249752       -0.2881393232       -5.9889271492  WZ2       1231            0.0000000000
      6499      2167  TIP3      OH2            -6.3906649752      -14.5898493232       -7.7989971492  WZ2       1232            0.0000000000
      6500      2167  TIP3      H1             -7.0649849752      -15.2192893232       -7.5434171492  WZ2       1232            0.0000000000
      6501      2167  TIP3      H2             -5.8267449752      -15.0739593232       -8.4022071492  WZ2       1232            0.0000000000
      6502      2168  TIP3      OH2            -1.2479449752      -16.4824493232       -7.6862871492  WZ2       1233            0.0000000000
      6503      2168  TIP3      H1             -0.6441849752      -15.9349093232       -8.1881871492  WZ2       1233            0.0000000000
      6504      2168  TIP3      H2             -2.1177449752      -16.1634093232       -7.9268771492  WZ2       1233            0.0000000000
      6505      2169  TIP3      OH2             0.4790950248      -15.3435793232       -9.3531971492  WZ2       1234            0.0000000000
      6506      2169  TIP3      H1              1.0908450248      -15.8580093232       -9.8798371492  WZ2       1234            0.0000000000
      6507      2169  TIP3      H2              0.8614350248      -14.4663693232       -9.3297571492  WZ2       1234            0.0000000000
      6508      2170  TIP3      OH2           -14.0639149752      -15.9558193232       -9.9770071492  WZ2       1235            0.0000000000
      6509      2170  TIP3      H1            -14.8409349752      -16.1903293232      -10.4844171492  WZ2       1235            0.0000000000
      6510      2170  TIP3      H2            -13.5335549752      -16.7526093232       -9.9682071492  WZ2       1235            0.0000000000
      6511      2171  TIP3      OH2           -15.2275749752      -16.1580093232      -14.1733971492  WZ2       1236            0.0000000000
      6512      2171  TIP3      H1            -14.7885049752      -15.5469593232      -14.7650471492  WZ2       1236            0.0000000000
      6513      2171  TIP3      H2            -15.8613349752      -15.6195993232      -13.6993971492  WZ2       1236            0.0000000000
      6514      2172  TIP3      OH2            -9.4846549752      -16.0291093232      -10.1636971492  WZ2       1237            0.0000000000
      6515      2172  TIP3      H1             -8.6103149752      -15.6406793232      -10.1932671492  WZ2       1237            0.0000000000
      6516      2172  TIP3      H2             -9.6205749752      -16.2443293232       -9.2409771492  WZ2       1237            0.0000000000
      6517      2173  TIP3      OH2            -3.9278149752      -15.9991293232       -8.5145271492  WZ2       1238            0.0000000000
      6518      2173  TIP3      H1             -3.8516549752      -15.9039693232       -9.4639271492  WZ2       1238            0.0000000000
      6519      2173  TIP3      H2             -4.2028949752      -16.9068393232       -8.3856171492  WZ2       1238            0.0000000000
      6520      2174  TIP3      OH2            -2.5745549752      -15.9733493232      -12.8220271492  WZ2       1239            0.0000000000
      6521      2174  TIP3      H1             -3.2774449752      -15.3584293232      -13.0318871492  WZ2       1239            0.0000000000
      6522      2174  TIP3      H2             -3.0194149752      -16.8106793232      -12.6909371492  WZ2       1239            0.0000000000
      6523      2175  TIP3      OH2           -15.3266249752       -0.2097893232      -13.2758871492  WZ2       1240            0.0000000000
      6524      2175  TIP3      H1            -16.0116349752       -0.2478993232      -13.9433771492  WZ2       1240            0.0000000000
      6525      2175  TIP3      H2            -15.3229049752        0.7029706768      -12.9876771492  WZ2       1240            0.0000000000
      6526      2176  TIP3      OH2           -13.3666649752      -14.2418593232      -15.7309871492  WZ2       1241            0.0000000000
      6527      2176  TIP3      H1            -12.8753249752      -14.8716193232      -16.2584371492  WZ2       1241            0.0000000000
      6528      2176  TIP3      H2            -12.7430349752      -13.9459193232      -15.0678671492  WZ2       1241            0.0000000000
      6529      2177  TIP3      OH2            -8.3406549752      -13.9487093232      -13.2739371492  WZ2       1242            0.0000000000
      6530      2177  TIP3      H1             -8.1625249752      -14.5953893232      -12.5910771492  WZ2       1242            0.0000000000
      6531      2177  TIP3      H2             -8.3940349752      -13.1149393232      -12.8068271492  WZ2       1242            0.0000000000
      6532      2178  TIP3      OH2            -6.4622749752        0.9997006768      -14.8782671492  WZ2       1243            0.0000000000
      6533      2178  TIP3      H1             -5.5962549752        1.3664406768      -15.0564471492  WZ2       1243            0.0000000000
      6534      2178  TIP3      H2             -6.7089949752        0.5605006768      -15.6921871492  WZ2       1243            0.0000000000
      6535      2179  TIP3      OH2             0.2466850248        0.5627306768      -12.1991571492  WZ2       1244            0.0000000000
      6536      2179  TIP3      H1              0.0523950248       -0.1850593232      -12.7641971492  WZ2       1244            0.0000000000
      6537      2179  TIP3      H2              0.2076950248        1.3207406768      -12.7823671492  WZ2       1244            0.0000000000
      6538      2180  TIP3      OH2           -14.1061149752      -15.4416293232       -0.4593871492  WZ2       1245            0.0000000000
      6539      2180  TIP3      H1            -14.4722949752      -16.2073693232       -0.0169171492  WZ2       1245            0.0000000000
      6540      2180  TIP3      H2            -13.1932649752      -15.4126093232       -0.1728771492  WZ2       1245            0.0000000000
      6541      2181  TIP3      OH2           -12.1330349752      -16.0911893232        1.0763228508  WZ2       1246            0.0000000000
      6542      2181  TIP3      H1            -11.2346749752      -16.3651693232        0.8916628508  WZ2       1246            0.0000000000
      6543      2181  TIP3      H2            -12.5197249752      -16.8335893232        1.5405828508  WZ2       1246            0.0000000000
      6544      2182  TIP3      OH2           -13.5085049752        0.7102906768      -16.2506771492  WZ2       1247            0.0000000000
      6545      2182  TIP3      H1            -13.7760449752        0.9965806768      -15.3773671492  WZ2       1247            0.0000000000
      6546      2182  TIP3      H2            -12.7372449752        0.1642106768      -16.0984271492  WZ2       1247            0.0000000000
      6547      2183  TIP3      OH2            -3.7118049752      -16.7586593232        1.2586028508  WZ2       1248            0.0000000000
      6548      2183  TIP3      H1             -3.6350849752      -17.1845893232        2.1123728508  WZ2       1248            0.0000000000
      6549      2183  TIP3      H2             -2.8181449752      -16.7451893232        0.9159528508  WZ2       1248            0.0000000000
      6550      2184  TIP3      OH2            -0.5356949752       -0.6860293232       -0.0489771492  WZ2       1249            0.0000000000
      6551      2184  TIP3      H1             -1.3175049752       -0.8722293232       -0.5689171492  WZ2       1249            0.0000000000
      6552      2184  TIP3      H2             -0.6077049752        0.2434006768        0.1682728508  WZ2       1249            0.0000000000
      6553      2185  TIP3      OH2            13.8703450248       -6.7995893232      -10.0182571492  WZ2       1250            0.0000000000
      6554      2185  TIP3      H1             13.9594550248       -5.8557693232      -10.1505471492  WZ2       1250            0.0000000000
      6555      2185  TIP3      H2             13.2321050248       -7.0749493232      -10.6763171492  WZ2       1250            0.0000000000
      6556      2186  TIP3      OH2            12.8034750248       -7.5445193232       -6.5994371492  WZ2       1251            0.0000000000
      6557      2186  TIP3      H1             12.7652250248       -8.1908893232       -5.8944771492  WZ2       1251            0.0000000000
      6558      2186  TIP3      H2             12.4811250248       -8.0110793232       -7.3705671492  WZ2       1251            0.0000000000
      6559      2187  TIP3      OH2             5.1719750248       -7.9303093232       -5.0064471492  WZ2       1252            0.0000000000
      6560      2187  TIP3      H1              5.2131850248       -8.5559793232       -4.2832071492  WZ2       1252            0.0000000000
      6561      2187  TIP3      H2              5.8747450248       -7.3064493232       -4.8244071492  WZ2       1252            0.0000000000
      6562      2188  TIP3      OH2            16.5094950248       -4.6054793232       -8.2979271492  WZ2       1253            0.0000000000
      6563      2188  TIP3      H1             16.0687650248       -5.3258793232       -7.8473671492  WZ2       1253            0.0000000000
      6564      2188  TIP3      H2             16.4964650248       -3.8847593232       -7.6681571492  WZ2       1253            0.0000000000
      6565      2189  TIP3      OH2             6.0952850248       -3.4804193232       -6.4715371492  WZ2       1254            0.0000000000
      6566      2189  TIP3      H1              5.7258050248       -4.2823693232       -6.8411071492  WZ2       1254            0.0000000000
      6567      2189  TIP3      H2              7.0363950248       -3.6489293232       -6.4251971492  WZ2       1254            0.0000000000
      6568      2190  TIP3      OH2             2.7053350248       -9.8201593232      -11.0786571492  WZ2       1255            0.0000000000
      6569      2190  TIP3      H1              2.2576750248       -8.9742893232      -11.0970071492  WZ2       1255            0.0000000000
      6570      2190  TIP3      H2              2.1444550248      -10.3997393232      -11.5941471492  WZ2       1255            0.0000000000
      6571      2191  TIP3      OH2             3.4159450248       -7.6581993232       -8.9528571492  WZ2       1256            0.0000000000
      6572      2191  TIP3      H1              3.6292950248       -8.4280393232       -8.4255571492  WZ2       1256            0.0000000000
      6573      2191  TIP3      H2              4.1537050248       -7.5685293232       -9.5560971492  WZ2       1256            0.0000000000
      6574      2192  TIP3      OH2            13.6210450248        0.4986906768       -8.0858871492  WZ2       1257            0.0000000000
      6575      2192  TIP3      H1             14.2406850248       -0.1778393232       -8.3589671492  WZ2       1257            0.0000000000
      6576      2192  TIP3      H2             13.4127850248        0.2807706768       -7.1773971492  WZ2       1257            0.0000000000
      6577      2193  TIP3      OH2            11.1929150248       -5.1123793232       -6.1933371492  WZ2       1258            0.0000000000
      6578      2193  TIP3      H1             11.4967050248       -5.7982393232       -6.7879271492  WZ2       1258            0.0000000000
      6579      2193  TIP3      H2             11.9143150248       -4.9935093232       -5.5755371492  WZ2       1258            0.0000000000
      6580      2194  TIP3      OH2            19.8558950248      -13.5108493232       -5.3327171492  WZ2       1259            0.0000000000
      6581      2194  TIP3      H1             19.9051150248      -12.9007293232       -4.5968071492  WZ2       1259            0.0000000000
      6582      2194  TIP3      H2             20.2814050248      -13.0497593232       -6.0556071492  WZ2       1259            0.0000000000
      6583      2195  TIP3      OH2            14.3336150248      -10.7181393232       -5.8658571492  WZ2       1260            0.0000000000
      6584      2195  TIP3      H1             14.4762050248      -11.6644393232       -5.8456971492  WZ2       1260            0.0000000000
      6585      2195  TIP3      H2             14.2275150248      -10.5111593232       -6.7943671492  WZ2       1260            0.0000000000
      6586      2196  TIP3      OH2             7.4884450248      -12.6164993232       -8.5933771492  WZ2       1261            0.0000000000
      6587      2196  TIP3      H1              7.5315550248      -11.7566493232       -9.0117471492  WZ2       1261            0.0000000000
      6588      2196  TIP3      H2              7.0308550248      -13.1690293232       -9.2270571492  WZ2       1261            0.0000000000
      6589      2197  TIP3      OH2            15.2107150248      -12.4859393232      -10.1925471492  WZ2       1262            0.0000000000
      6590      2197  TIP3      H1             15.8571450248      -12.8146193232       -9.5677871492  WZ2       1262            0.0000000000
      6591      2197  TIP3      H2             15.7206550248      -11.9680393232      -10.8154071492  WZ2       1262            0.0000000000
      6592      2198  TIP3      OH2             4.1085950248      -10.2199193232       -7.8312371492  WZ2       1263            0.0000000000
      6593      2198  TIP3      H1              4.7622550248      -10.7697493232       -7.3992271492  WZ2       1263            0.0000000000
      6594      2198  TIP3      H2              4.1325250248      -10.4940193232       -8.7480371492  WZ2       1263            0.0000000000
      6595      2199  TIP3      OH2             9.2650450248       -8.6697893232       -8.6160871492  WZ2       1264            0.0000000000
      6596      2199  TIP3      H1              9.8811450248       -9.1962493232       -8.1066871492  WZ2       1264            0.0000000000
      6597      2199  TIP3      H2              8.6789250248       -9.3099193232       -9.0197271492  WZ2       1264            0.0000000000
      6598      2200  TIP3      OH2            20.2473550248      -12.0329293232       -3.0967371492  WZ2       1265            0.0000000000
      6599      2200  TIP3      H1             19.5588150248      -11.3748593232       -3.1920771492  WZ2       1265            0.0000000000
      6600      2200  TIP3      H2             20.2628150248      -12.2301393232       -2.1601971492  WZ2       1265            0.0000000000
      6601      2201  TIP3      OH2             6.2986350248      -13.6986593232       -4.5192971492  WZ2       1266            0.0000000000
      6602      2201  TIP3      H1              6.0798050248      -13.1685993232       -5.2856971492  WZ2       1266            0.0000000000
      6603      2201  TIP3      H2              5.6307250248      -13.4721093232       -3.8721571492  WZ2       1266            0.0000000000
      6604      2202  TIP3      OH2            13.6676150248       -4.1985493232      -10.9753871492  WZ2       1267            0.0000000000
      6605      2202  TIP3      H1             13.3721250248       -4.5213193232      -11.8266971492  WZ2       1267            0.0000000000
      6606      2202  TIP3      H2             13.3433950248       -3.2988793232      -10.9341271492  WZ2       1267            0.0000000000
      6607      2203  TIP3      OH2             8.8677750248       -6.0230893232       -4.2319271492  WZ2       1268            0.0000000000
      6608      2203  TIP3      H1              8.1276850248       -5.4249393232       -4.1284071492  WZ2       1268            0.0000000000
      6609      2203  TIP3      H2              9.5817250248       -5.4691293232       -4.5475671492  WZ2       1268            0.0000000000
      6610      2204  TIP3      OH2            16.9745550248      -13.1950093232       -8.2119571492  WZ2       1269            0.0000000000
      6611      2204  TIP3      H1             16.7593550248      -13.9606693232       -7.6793571492  WZ2       1269            0.0000000000
      6612      2204  TIP3      H2             17.6302950248      -12.7225493232       -7.6991071492  WZ2       1269            0.0000000000
      6613      2205  TIP3      OH2             5.8923650248      -11.8064793232       -6.5670771492  WZ2       1270            0.0000000000
      6614      2205  TIP3      H1              6.5059950248      -11.1737193232       -6.1938371492  WZ2       1270            0.0000000000
      6615      2205  TIP3      H2              6.4044350248      -12.2789793232       -7.2233871492  WZ2       1270            0.0000000000
      6616      2206  TIP3      OH2             7.2752050248       -4.0587893232       -3.4447771492  WZ2       1271            0.0000000000
      6617      2206  TIP3      H1              7.2699650248       -3.1794393232       -3.8228471492  WZ2       1271            0.0000000000
      6618      2206  TIP3      H2              6.4216150248       -4.1423793232       -3.0197871492  WZ2       1271            0.0000000000
      6619      2207  TIP3      OH2             3.3962950248       -4.3879993232      -12.6628471492  WZ2       1272            0.0000000000
      6620      2207  TIP3      H1              3.1243850248       -4.1588993232      -13.5515571492  WZ2       1272            0.0000000000
      6621      2207  TIP3      H2              3.4418650248       -3.5501193232      -12.2023171492  WZ2       1272            0.0000000000
      6622      2208  TIP3      OH2            17.0212650248       -2.7664093232       -5.9499971492  WZ2       1273            0.0000000000
      6623      2208  TIP3      H1             16.0796350248       -2.7080193232       -5.7883071492  WZ2       1273            0.0000000000
      6624      2208  TIP3      H2             17.2978750248       -1.8603593232       -6.0870271492  WZ2       1273            0.0000000000
      6625      2209  TIP3      OH2            17.3219650248      -14.4798793232       -4.5326071492  WZ2       1274            0.0000000000
      6626      2209  TIP3      H1             16.5858850248      -13.8691693232       -4.5704771492  WZ2       1274            0.0000000000
      6627      2209  TIP3      H2             18.0053650248      -14.0649793232       -5.0589671492  WZ2       1274            0.0000000000
      6628      2210  TIP3      OH2            10.3251050248      -16.3931493232       -7.0668071492  WZ2       1275            0.0000000000
      6629      2210  TIP3      H1             10.2075250248      -17.3415493232       -7.1209771492  WZ2       1275            0.0000000000
      6630      2210  TIP3      H2              9.4701150248      -16.0605393232       -6.7936971492  WZ2       1275            0.0000000000
      6631      2211  TIP3      OH2            15.2733850248       -0.9850593232       -9.3248371492  WZ2       1276            0.0000000000
      6632      2211  TIP3      H1             15.6986150248       -1.6922693232       -9.8098771492  WZ2       1276            0.0000000000
      6633      2211  TIP3      H2             15.5903850248       -0.1837893232       -9.7416171492  WZ2       1276            0.0000000000
      6634      2212  TIP3      OH2            16.4330350248       -3.0842093232      -10.8161771492  WZ2       1277            0.0000000000
      6635      2212  TIP3      H1             16.1755150248       -3.7741993232      -11.4275871492  WZ2       1277            0.0000000000
      6636      2212  TIP3      H2             16.5041150248       -3.5270893232       -9.9705871492  WZ2       1277            0.0000000000
      6637      2213  TIP3      OH2            18.1190550248       -4.5175393232       -2.3388271492  WZ2       1278            0.0000000000
      6638      2213  TIP3      H1             18.2586850248       -5.1092893232       -3.0781271492  WZ2       1278            0.0000000000
      6639      2213  TIP3      H2             18.2863350248       -3.6449493232       -2.6949471492  WZ2       1278            0.0000000000
      6640      2214  TIP3      OH2            12.5915950248       -7.5555893232      -12.5662271492  WZ2       1279            0.0000000000
      6641      2214  TIP3      H1             11.8801450248       -7.0206193232      -12.9181771492  WZ2       1279            0.0000000000
      6642      2214  TIP3      H2             13.2825550248       -7.5003793232      -13.2263371492  WZ2       1279            0.0000000000
      6643      2215  TIP3      OH2            12.6455150248       -9.0981593232      -15.5277271492  WZ2       1280            0.0000000000
      6644      2215  TIP3      H1             13.3465050248       -9.0754693232      -14.8763271492  WZ2       1280            0.0000000000
      6645      2215  TIP3      H2             12.9478050248       -9.7261893232      -16.1837971492  WZ2       1280            0.0000000000
      6646      2216  TIP3      OH2            19.9609850248       -8.1777393232       -4.2727871492  WZ2       1281            0.0000000000
      6647      2216  TIP3      H1             19.3083950248       -7.4831793232       -4.1836971492  WZ2       1281            0.0000000000
      6648      2216  TIP3      H2             20.4260150248       -7.9676493232       -5.0826271492  WZ2       1281            0.0000000000
      6649      2217  TIP3      OH2            15.9973650248       -7.3462593232      -11.6146371492  WZ2       1282            0.0000000000
      6650      2217  TIP3      H1             15.2654650248       -7.1178893232      -11.0415771492  WZ2       1282            0.0000000000
      6651      2217  TIP3      H2             16.4445850248       -8.0599893232      -11.1598871492  WZ2       1282            0.0000000000
      6652      2218  TIP3      OH2            15.8947150248       -9.1719993232       -2.5469371492  WZ2       1283            0.0000000000
      6653      2218  TIP3      H1             15.9746250248       -8.4085593232       -1.9750871492  WZ2       1283            0.0000000000
      6654      2218  TIP3      H2             15.2934850248       -8.8927593232       -3.2374271492  WZ2       1283            0.0000000000
      6655      2219  TIP3      OH2             7.6427350248       -6.7156393232       -9.7321371492  WZ2       1284            0.0000000000
      6656      2219  TIP3      H1              7.3122550248       -7.0862993232      -10.5504371492  WZ2       1284            0.0000000000
      6657      2219  TIP3      H2              8.2311450248       -7.3862393232       -9.3853071492  WZ2       1284            0.0000000000
      6658      2220  TIP3      OH2             9.0094850248       -3.2875793232       -7.0509171492  WZ2       1285            0.0000000000
      6659      2220  TIP3      H1              8.9146150248       -3.8662693232       -7.8074571492  WZ2       1285            0.0000000000
      6660      2220  TIP3      H2              9.7388450248       -3.6590093232       -6.5546371492  WZ2       1285            0.0000000000
      6661      2221  TIP3      OH2             8.0092850248       -7.9470793232       -6.0986371492  WZ2       1286            0.0000000000
      6662      2221  TIP3      H1              8.5745350248       -7.8256593232       -6.8615171492  WZ2       1286            0.0000000000
      6663      2221  TIP3      H2              8.3281750248       -7.3095793232       -5.4597871492  WZ2       1286            0.0000000000
      6664      2222  TIP3      OH2            14.3185050248       -2.4438893232       -5.3645871492  WZ2       1287            0.0000000000
      6665      2222  TIP3      H1             14.0781650248       -1.7815793232       -4.7166671492  WZ2       1287            0.0000000000
      6666      2222  TIP3      H2             14.1203250248       -3.2783693232       -4.9396271492  WZ2       1287            0.0000000000
      6667      2223  TIP3      OH2             8.8893550248       -3.5478093232       -1.3814471492  WZ2       1288            0.0000000000
      6668      2223  TIP3      H1              8.5781050248       -2.7654893232       -0.9261271492  WZ2       1288            0.0000000000
      6669      2223  TIP3      H2              8.2393750248       -3.7008993232       -2.0672471492  WZ2       1288            0.0000000000
      6670      2224  TIP3      OH2            14.8683150248       -8.1839693232      -13.9295171492  WZ2       1289            0.0000000000
      6671      2224  TIP3      H1             15.4478650248       -8.0339393232      -13.1826271492  WZ2       1289            0.0000000000
      6672      2224  TIP3      H2             15.2823150248       -7.7132293232      -14.6528771492  WZ2       1289            0.0000000000
      6673      2225  TIP3      OH2             5.8093450248       -7.3496993232       -2.1528771492  WZ2       1290            0.0000000000
      6674      2225  TIP3      H1              5.8796650248       -6.6990193232       -1.4543771492  WZ2       1290            0.0000000000
      6675      2225  TIP3      H2              4.9185650248       -7.2469493232       -2.4877871492  WZ2       1290            0.0000000000
      6676      2226  TIP3      OH2            12.5948050248       -1.4471193232      -10.4942071492  WZ2       1291            0.0000000000
      6677      2226  TIP3      H1             13.0685650248       -1.1514893232       -9.7167871492  WZ2       1291            0.0000000000
      6678      2226  TIP3      H2             12.0317350248       -0.7089593232      -10.7272471492  WZ2       1291            0.0000000000
      6679      2227  TIP3      OH2             7.1289450248       -1.4763093232       -0.6180671492  WZ2       1292            0.0000000000
      6680      2227  TIP3      H1              7.1364750248       -1.6123393232       -1.5655171492  WZ2       1292            0.0000000000
      6681      2227  TIP3      H2              6.2129850248       -1.5934993232       -0.3660671492  WZ2       1292            0.0000000000
      6682      2228  TIP3      OH2            18.5671550248      -16.4339293232      -14.1165471492  WZ2       1293            0.0000000000
      6683      2228  TIP3      H1             17.6672250248      -16.2950293232      -13.8214871492  WZ2       1293            0.0000000000
      6684      2228  TIP3      H2             18.8189950248      -15.6024693232      -14.5183771492  WZ2       1293            0.0000000000
      6685      2229  TIP3      OH2             6.6330050248       -7.6462093232      -12.1428571492  WZ2       1294            0.0000000000
      6686      2229  TIP3      H1              6.3411350248       -6.8780393232      -12.6337271492  WZ2       1294            0.0000000000
      6687      2229  TIP3      H2              5.9585250248       -8.3055893232      -12.3057171492  WZ2       1294            0.0000000000
      6688      2230  TIP3      OH2            19.7562950248       -2.0676893232      -15.7401571492  WZ2       1295            0.0000000000
      6689      2230  TIP3      H1             19.8296450248       -1.1286693232      -15.5696271492  WZ2       1295            0.0000000000
      6690      2230  TIP3      H2             20.6618050248       -2.3728293232      -15.7964271492  WZ2       1295            0.0000000000
      6691      2231  TIP3      OH2             2.7260150248       -5.2832893232       -3.3278771492  WZ2       1296            0.0000000000
      6692      2231  TIP3      H1              2.2248550248       -5.3113493232       -4.1429071492  WZ2       1296            0.0000000000
      6693      2231  TIP3      H2              2.7313850248       -6.1889693232       -3.0181471492  WZ2       1296            0.0000000000
      6694      2232  TIP3      OH2             2.4762850248       -2.5029093232       -6.4438571492  WZ2       1297            0.0000000000
      6695      2232  TIP3      H1              3.4223450248       -2.6472093232       -6.4629071492  WZ2       1297            0.0000000000
      6696      2232  TIP3      H2              2.3639150248       -1.7186293232       -5.9067371492  WZ2       1297            0.0000000000
      6697      2233  TIP3      OH2            20.6741350248       -1.8369393232       -0.7614871492  WZ2       1298            0.0000000000
      6698      2233  TIP3      H1             20.6248150248       -2.7921293232       -0.7987271492  WZ2       1298            0.0000000000
      6699      2233  TIP3      H2             19.8473650248       -1.5694093232       -0.3601071492  WZ2       1298            0.0000000000
      6700      2234  TIP3      OH2            11.6525350248       -2.2630193232       -1.8853471492  WZ2       1299            0.0000000000
      6701      2234  TIP3      H1             11.7399950248       -1.4365593232       -1.4104371492  WZ2       1299            0.0000000000
      6702      2234  TIP3      H2             10.7890450248       -2.5926393232       -1.6364171492  WZ2       1299            0.0000000000
      6703      2235  TIP3      OH2            12.0671150248        1.5093506768      -12.0792871492  WZ2       1300            0.0000000000
      6704      2235  TIP3      H1             11.9917150248        1.3880706768      -13.0257671492  WZ2       1300            0.0000000000
      6705      2235  TIP3      H2             12.0999850248        2.4586206768      -11.9608271492  WZ2       1300            0.0000000000
      6706      2236  TIP3      OH2             5.7204950248        0.2980506768      -10.2983871492  WZ2       1301            0.0000000000
      6707      2236  TIP3      H1              5.8725350248       -0.0499093232       -9.4197371492  WZ2       1301            0.0000000000
      6708      2236  TIP3      H2              4.8695350248       -0.0582193232      -10.5536671492  WZ2       1301            0.0000000000
      6709      2237  TIP3      OH2            15.1687150248        0.6633706768      -15.0770471492  WZ2       1302            0.0000000000
      6710      2237  TIP3      H1             15.5435550248       -0.0810193232      -15.5477871492  WZ2       1302            0.0000000000
      6711      2237  TIP3      H2             15.1730850248        0.3934306768      -14.1587171492  WZ2       1302            0.0000000000
      6712      2238  TIP3      OH2            14.8375250248        0.5890806768      -12.3278271492  WZ2       1303            0.0000000000
      6713      2238  TIP3      H1             13.9025050248        0.6892706768      -12.1491271492  WZ2       1303            0.0000000000
      6714      2238  TIP3      H2             15.1177150248       -0.1203193232      -11.7495071492  WZ2       1303            0.0000000000
      6715      2239  TIP3      OH2            17.8261150248      -10.3436893232       -0.2812671492  WZ2       1304            0.0000000000
      6716      2239  TIP3      H1             17.4187950248       -9.8631293232       -1.0019371492  WZ2       1304            0.0000000000
      6717      2239  TIP3      H2             17.8666850248      -11.2490893232       -0.5891871492  WZ2       1304            0.0000000000
      6718      2240  TIP3      OH2             4.9750650248       -3.9597493232       -2.2845971492  WZ2       1305            0.0000000000
      6719      2240  TIP3      H1              5.1911950248       -4.3211893232       -1.4250171492  WZ2       1305            0.0000000000
      6720      2240  TIP3      H2              4.1195350248       -4.3343693232       -2.4942471492  WZ2       1305            0.0000000000
      6721      2241  TIP3      OH2             7.5938650248      -15.4896993232       -6.2891771492  WZ2       1306            0.0000000000
      6722      2241  TIP3      H1              6.7322350248      -15.5768793232       -6.6968871492  WZ2       1306            0.0000000000
      6723      2241  TIP3      H2              7.5714350248      -14.6336893232       -5.8614171492  WZ2       1306            0.0000000000
      6724      2242  TIP3      OH2            12.2566450248      -15.7676593232       -2.9144771492  WZ2       1307            0.0000000000
      6725      2242  TIP3      H1             12.6769550248      -16.1829493232       -2.1614171492  WZ2       1307            0.0000000000
      6726      2242  TIP3      H2             11.3236050248      -15.9463293232       -2.7972771492  WZ2       1307            0.0000000000
      6727      2243  TIP3      OH2            15.5831350248      -12.0121393232       -2.0610271492  WZ2       1308            0.0000000000
      6728      2243  TIP3      H1             15.0690850248      -12.1379193232       -1.2634271492  WZ2       1308            0.0000000000
      6729      2243  TIP3      H2             15.4276050248      -11.0998293232       -2.3054071492  WZ2       1308            0.0000000000
      6730      2244  TIP3      OH2            16.3456250248       -7.1511393232      -16.2997271492  WZ2       1309            0.0000000000
      6731      2244  TIP3      H1             16.3877050248       -7.3737493232      -17.2297271492  WZ2       1309            0.0000000000
      6732      2244  TIP3      H2             17.1948350248       -6.7524293232      -16.1097371492  WZ2       1309            0.0000000000
      6733      2245  TIP3      OH2            11.9183750248      -13.2753193232      -15.6293971492  WZ2       1310            0.0000000000
      6734      2245  TIP3      H1             11.6648550248      -13.2561593232      -14.7065871492  WZ2       1310            0.0000000000
      6735      2245  TIP3      H2             11.6615850248      -14.1467793232      -15.9307771492  WZ2       1310            0.0000000000
      6736      2246  TIP3      OH2             7.6848750248      -10.5242493232       -5.1941571492  WZ2       1311            0.0000000000
      6737      2246  TIP3      H1              7.0430850248      -10.5645193232       -4.4851471492  WZ2       1311            0.0000000000
      6738      2246  TIP3      H2              7.7220750248       -9.5977793232       -5.4318571492  WZ2       1311            0.0000000000
      6739      2247  TIP3      OH2             7.6817850248      -10.3032393232      -10.2821571492  WZ2       1312            0.0000000000
      6740      2247  TIP3      H1              6.7890750248      -10.6436293232      -10.3407771492  WZ2       1312            0.0000000000
      6741      2247  TIP3      H2              8.1324450248      -10.6801493232      -11.0378371492  WZ2       1312            0.0000000000
      6742      2248  TIP3      OH2            13.2173350248       -9.8872093232      -11.4650771492  WZ2       1313            0.0000000000
      6743      2248  TIP3      H1             12.8083650248       -9.0723493232      -11.7565971492  WZ2       1313            0.0000000000
      6744      2248  TIP3      H2             13.9379550248      -10.0271993232      -12.0793671492  WZ2       1313            0.0000000000
      6745      2249  TIP3      OH2            12.3194950248       -9.7115693232        0.0229928508  WZ2       1314            0.0000000000
      6746      2249  TIP3      H1             11.7568750248      -10.4164093232        0.3437728508  WZ2       1314            0.0000000000
      6747      2249  TIP3      H2             13.1458350248       -9.8323793232        0.4907528508  WZ2       1314            0.0000000000
      6748      2250  TIP3      OH2            14.2221050248      -10.4411693232       -8.6511071492  WZ2       1315            0.0000000000
      6749      2250  TIP3      H1             14.0265550248       -9.8354893232       -9.3660471492  WZ2       1315            0.0000000000
      6750      2250  TIP3      H2             14.4033650248      -11.2746493232       -9.0854771492  WZ2       1315            0.0000000000
      6751      2251  TIP3      OH2             5.4349250248      -10.2038993232       -3.3269571492  WZ2       1316            0.0000000000
      6752      2251  TIP3      H1              5.3968650248       -9.8037393232       -2.4582471492  WZ2       1316            0.0000000000
      6753      2251  TIP3      H2              4.9440350248      -11.0206593232       -3.2366671492  WZ2       1316            0.0000000000
      6754      2252  TIP3      OH2             8.8006650248      -12.8296693232      -16.5283571492  WZ2       1317            0.0000000000
      6755      2252  TIP3      H1              8.3697350248      -13.2746593232      -15.7986171492  WZ2       1317            0.0000000000
      6756      2252  TIP3      H2              8.0825350248      -12.4580393232      -17.0406071492  WZ2       1317            0.0000000000
      6757      2253  TIP3      OH2             2.0430050248      -13.0877193232       -9.4764871492  WZ2       1318            0.0000000000
      6758      2253  TIP3      H1              2.6737750248      -13.1165093232       -8.7570971492  WZ2       1318            0.0000000000
      6759      2253  TIP3      H2              2.4924350248      -13.5128493232      -10.2068971492  WZ2       1318            0.0000000000
      6760      2254  TIP3      OH2             3.3172150248      -12.3415193232      -14.0524471492  WZ2       1319            0.0000000000
      6761      2254  TIP3      H1              3.7913850248      -11.7505293232      -14.6373571492  WZ2       1319            0.0000000000
      6762      2254  TIP3      H2              2.5998550248      -11.8112293232      -13.7054371492  WZ2       1319            0.0000000000
      6763      2255  TIP3      OH2            13.4860250248       -8.8030393232       -3.9798671492  WZ2       1320            0.0000000000
      6764      2255  TIP3      H1             13.8095050248       -9.4340693232       -4.6228171492  WZ2       1320            0.0000000000
      6765      2255  TIP3      H2             13.0459550248       -9.3378193232       -3.3191271492  WZ2       1320            0.0000000000
      6766      2256  TIP3      OH2            10.2633150248      -12.8754893232       -9.1957471492  WZ2       1321            0.0000000000
      6767      2256  TIP3      H1              9.3524250248      -12.8188093232       -8.9071471492  WZ2       1321            0.0000000000
      6768      2256  TIP3      H2             10.7686050248      -12.9359393232       -8.3850271492  WZ2       1321            0.0000000000
      6769      2257  TIP3      OH2             5.0916550248      -11.2468593232      -10.3689871492  WZ2       1322            0.0000000000
      6770      2257  TIP3      H1              4.2024550248      -11.1473093232      -10.7090271492  WZ2       1322            0.0000000000
      6771      2257  TIP3      H2              5.3881450248      -12.0885593232      -10.7151971492  WZ2       1322            0.0000000000
      6772      2258  TIP3      OH2             8.7448350248      -11.2465993232      -12.7125271492  WZ2       1323            0.0000000000
      6773      2258  TIP3      H1              9.6763850248      -11.1175993232      -12.5342171492  WZ2       1323            0.0000000000
      6774      2258  TIP3      H2              8.5298650248      -10.5771693232      -13.3620571492  WZ2       1323            0.0000000000
      6775      2259  TIP3      OH2            14.6685050248      -13.6408593232       -5.9315671492  WZ2       1324            0.0000000000
      6776      2259  TIP3      H1             13.9916650248      -13.5095493232       -5.2675971492  WZ2       1324            0.0000000000
      6777      2259  TIP3      H2             14.1829950248      -13.7959093232       -6.7417971492  WZ2       1324            0.0000000000
      6778      2260  TIP3      OH2             7.4188550248      -10.0523793232      -15.1459171492  WZ2       1325            0.0000000000
      6779      2260  TIP3      H1              6.8763650248      -10.4319993232      -15.8371571492  WZ2       1325            0.0000000000
      6780      2260  TIP3      H2              8.2523450248       -9.8579093232      -15.5745071492  WZ2       1325            0.0000000000
      6781      2261  TIP3      OH2            17.9560150248        2.0306806768        0.3451928508  WZ2       1326            0.0000000000
      6782      2261  TIP3      H1             18.1558850248        2.4548706768       -0.4892771492  WZ2       1326            0.0000000000
      6783      2261  TIP3      H2             18.6113850248        2.3745006768        0.9522328508  WZ2       1326            0.0000000000
      6784      2262  TIP3      OH2             5.5539950248       -5.4951893232       -0.0467571492  WZ2       1327            0.0000000000
      6785      2262  TIP3      H1              6.2862350248       -5.2405993232        0.5146928508  WZ2       1327            0.0000000000
      6786      2262  TIP3      H2              4.7738650248       -5.2906493232        0.4687828508  WZ2       1327            0.0000000000
      6787      2263  TIP3      OH2            11.5832850248      -10.0881893232       -7.3087871492  WZ2       1328            0.0000000000
      6788      2263  TIP3      H1             12.1476250248      -10.6345293232       -7.8558271492  WZ2       1328            0.0000000000
      6789      2263  TIP3      H2             11.4356250248      -10.6099993232       -6.5200271492  WZ2       1328            0.0000000000
      6790      2264  TIP3      OH2             6.5852550248      -13.9515793232      -10.8903071492  WZ2       1329            0.0000000000
      6791      2264  TIP3      H1              6.2682050248      -14.8540493232      -10.9257671492  WZ2       1329            0.0000000000
      6792      2264  TIP3      H2              7.3666650248      -13.9498393232      -11.4431471492  WZ2       1329            0.0000000000
      6793      2265  TIP3      OH2            10.2098750248      -11.6995793232       -4.8947471492  WZ2       1330            0.0000000000
      6794      2265  TIP3      H1              9.3744050248      -11.2456293232       -4.7845071492  WZ2       1330            0.0000000000
      6795      2265  TIP3      H2             10.7339350248      -11.4237293232       -4.1427571492  WZ2       1330            0.0000000000
      6796      2266  TIP3      OH2            10.7541350248       -5.4868093232      -13.2101071492  WZ2       1331            0.0000000000
      6797      2266  TIP3      H1             10.0092350248       -5.9942793232      -13.5323171492  WZ2       1331            0.0000000000
      6798      2266  TIP3      H2             10.6198550248       -5.4380093232      -12.2636271492  WZ2       1331            0.0000000000
      6799      2267  TIP3      OH2            17.9040250248       -6.3539893232       -4.4233471492  WZ2       1332            0.0000000000
      6800      2267  TIP3      H1             18.5459050248       -5.8973593232       -4.9671271492  WZ2       1332            0.0000000000
      6801      2267  TIP3      H2             17.0737150248       -6.2407493232       -4.8859371492  WZ2       1332            0.0000000000
      6802      2268  TIP3      OH2            14.6518150248      -12.6728193232      -15.0108471492  WZ2       1333            0.0000000000
      6803      2268  TIP3      H1             13.7132350248      -12.5612593232      -15.1619671492  WZ2       1333            0.0000000000
      6804      2268  TIP3      H2             14.9490250248      -11.8161293232      -14.7042771492  WZ2       1333            0.0000000000
      6805      2269  TIP3      OH2            12.2733450248       -5.3024793232       -1.9731971492  WZ2       1334            0.0000000000
      6806      2269  TIP3      H1             11.9279550248       -5.6842393232       -1.1662371492  WZ2       1334            0.0000000000
      6807      2269  TIP3      H2             12.0733550248       -4.3691193232       -1.9019071492  WZ2       1334            0.0000000000
      6808      2270  TIP3      OH2            15.3701650248      -10.8055493232      -13.3501071492  WZ2       1335            0.0000000000
      6809      2270  TIP3      H1             16.2620650248      -10.9430493232      -13.0309871492  WZ2       1335            0.0000000000
      6810      2270  TIP3      H2             15.4265250248      -10.0149393232      -13.8867571492  WZ2       1335            0.0000000000
      6811      2271  TIP3      OH2             5.8789650248       -6.1918093232       -7.4403171492  WZ2       1336            0.0000000000
      6812      2271  TIP3      H1              6.6236850248       -6.1942393232       -8.0416671492  WZ2       1336            0.0000000000
      6813      2271  TIP3      H2              5.9566250248       -7.0154293232       -6.9588071492  WZ2       1336            0.0000000000
      6814      2272  TIP3      OH2            12.8795450248       -4.0283793232      -14.1846471492  WZ2       1337            0.0000000000
      6815      2272  TIP3      H1             12.5843850248       -3.2015893232      -13.8031671492  WZ2       1337            0.0000000000
      6816      2272  TIP3      H2             12.1765450248       -4.6476893232      -13.9885071492  WZ2       1337            0.0000000000
      6817      2273  TIP3      OH2             2.8869350248       -7.7311193232       -2.1254671492  WZ2       1338            0.0000000000
      6818      2273  TIP3      H1              3.1097950248       -8.1491593232       -1.2937171492  WZ2       1338            0.0000000000
      6819      2273  TIP3      H2              2.2849450248       -8.3436193232       -2.5481871492  WZ2       1338            0.0000000000
      6820      2274  TIP3      OH2             9.9034250248       -8.2141293232        0.0875028508  WZ2       1339            0.0000000000
      6821      2274  TIP3      H1              9.6075050248       -8.3798293232       -0.8075871492  WZ2       1339            0.0000000000
      6822      2274  TIP3      H2             10.8349450248       -8.4340993232        0.0768928508  WZ2       1339            0.0000000000
      6823      2275  TIP3      OH2            14.5237050248       -2.8409293232       -2.0226971492  WZ2       1340            0.0000000000
      6824      2275  TIP3      H1             13.6231350248       -2.6576693232       -2.2903071492  WZ2       1340            0.0000000000
      6825      2275  TIP3      H2             14.5578150248       -2.5819993232       -1.1018171492  WZ2       1340            0.0000000000
      6826      2276  TIP3      OH2            20.2550350248      -10.5961393232      -13.6554371492  WZ2       1341            0.0000000000
      6827      2276  TIP3      H1             19.7006650248      -10.9923393232      -14.3276871492  WZ2       1341            0.0000000000
      6828      2276  TIP3      H2             20.3553950248       -9.6856193232      -13.9331071492  WZ2       1341            0.0000000000
      6829      2277  TIP3      OH2            20.2182350248       -4.7959693232       -0.8182871492  WZ2       1342            0.0000000000
      6830      2277  TIP3      H1             19.3670850248       -4.5575893232       -1.1856471492  WZ2       1342            0.0000000000
      6831      2277  TIP3      H2             20.8085750248       -4.8126493232       -1.5715771492  WZ2       1342            0.0000000000
      6832      2278  TIP3      OH2            18.5502050248       -1.8100993232      -13.1902271492  WZ2       1343            0.0000000000
      6833      2278  TIP3      H1             18.1773150248       -2.6357193232      -12.8811671492  WZ2       1343            0.0000000000
      6834      2278  TIP3      H2             18.8275550248       -1.9931593232      -14.0878871492  WZ2       1343            0.0000000000
      6835      2279  TIP3      OH2            15.7105950248       -7.0021493232       -6.1690371492  WZ2       1344            0.0000000000
      6836      2279  TIP3      H1             14.7822850248       -7.2339593232       -6.1961071492  WZ2       1344            0.0000000000
      6837      2279  TIP3      H2             16.1617050248       -7.7791693232       -6.4991571492  WZ2       1344            0.0000000000
      6838      2280  TIP3      OH2             8.2539050248       -2.6739893232      -10.0361671492  WZ2       1345            0.0000000000
      6839      2280  TIP3      H1              8.7811250248       -1.9005493232      -10.2362871492  WZ2       1345            0.0000000000
      6840      2280  TIP3      H2              7.3737550248       -2.4490693232      -10.3377671492  WZ2       1345            0.0000000000
      6841      2281  TIP3      OH2             4.0086750248       -7.8115793232      -15.4489271492  WZ2       1346            0.0000000000
      6842      2281  TIP3      H1              4.6246650248       -7.1848593232      -15.0694471492  WZ2       1346            0.0000000000
      6843      2281  TIP3      H2              3.1469350248       -7.4955993232      -15.1772771492  WZ2       1346            0.0000000000
      6844      2282  TIP3      OH2             9.6811350248       -5.0109993232      -10.4597371492  WZ2       1347            0.0000000000
      6845      2282  TIP3      H1              9.4401350248       -4.0855593232      -10.4182071492  WZ2       1347            0.0000000000
      6846      2282  TIP3      H2              8.9404950248       -5.4698693232      -10.0633471492  WZ2       1347            0.0000000000
      6847      2283  TIP3      OH2            10.1957950248       -0.8616393232       -4.1446271492  WZ2       1348            0.0000000000
      6848      2283  TIP3      H1             10.5582650248       -0.0070793232       -4.3781871492  WZ2       1348            0.0000000000
      6849      2283  TIP3      H2             10.7273150248       -1.1534793232       -3.4039971492  WZ2       1348            0.0000000000
      6850      2284  TIP3      OH2             8.3642150248        0.0107606768      -10.9145171492  WZ2       1349            0.0000000000
      6851      2284  TIP3      H1              7.4142650248        0.1165006768      -10.8631871492  WZ2       1349            0.0000000000
      6852      2284  TIP3      H2              8.7160250248        0.8315006768      -10.5697671492  WZ2       1349            0.0000000000
      6853      2285  TIP3      OH2            13.7398750248       -4.7625693232       -4.4440671492  WZ2       1350            0.0000000000
      6854      2285  TIP3      H1             13.3140050248       -4.9903993232       -3.6176671492  WZ2       1350            0.0000000000
      6855      2285  TIP3      H2             14.3204550248       -5.5013893232       -4.6265371492  WZ2       1350            0.0000000000
      6856      2286  TIP3      OH2            15.9427650248       -3.8335193232      -15.3701671492  WZ2       1351            0.0000000000
      6857      2286  TIP3      H1             16.2960750248       -4.2135393232      -14.5658171492  WZ2       1351            0.0000000000
      6858      2286  TIP3      H2             14.9941150248       -3.9270393232      -15.2832371492  WZ2       1351            0.0000000000
      6859      2287  TIP3      OH2            16.3982950248       -0.2106193232       -1.9745871492  WZ2       1352            0.0000000000
      6860      2287  TIP3      H1             15.7966150248       -0.7663293232       -2.4699571492  WZ2       1352            0.0000000000
      6861      2287  TIP3      H2             16.6796650248        0.4563606768       -2.6008471492  WZ2       1352            0.0000000000
      6862      2288  TIP3      OH2            20.4462050248        0.6457306768      -15.1691471492  WZ2       1353            0.0000000000
      6863      2288  TIP3      H1             21.1899950248        1.2317806768      -15.3089871492  WZ2       1353            0.0000000000
      6864      2288  TIP3      H2             19.7520150248        1.2143106768      -14.8359071492  WZ2       1353            0.0000000000
      6865      2289  TIP3      OH2             4.5208850248      -12.9778493232       -2.5673271492  WZ2       1354            0.0000000000
      6866      2289  TIP3      H1              3.6281150248      -12.6393093232       -2.6349271492  WZ2       1354            0.0000000000
      6867      2289  TIP3      H2              4.4221650248      -13.8332393232       -2.1492471492  WZ2       1354            0.0000000000
      6868      2290  TIP3      OH2            16.8086950248       -5.1613193232      -13.1433771492  WZ2       1355            0.0000000000
      6869      2290  TIP3      H1             16.5314550248       -5.8893893232      -12.5872671492  WZ2       1355            0.0000000000
      6870      2290  TIP3      H2             17.7359950248       -5.0421193232      -12.9381171492  WZ2       1355            0.0000000000
      6871      2291  TIP3      OH2             4.1720850248       -1.1734093232       -4.1323871492  WZ2       1356            0.0000000000
      6872      2291  TIP3      H1              4.3891150248       -2.1051693232       -4.1634171492  WZ2       1356            0.0000000000
      6873      2291  TIP3      H2              4.4184350248       -0.8989093232       -3.2491071492  WZ2       1356            0.0000000000
      6874      2292  TIP3      OH2            10.0335450248       -2.7219093232      -16.9231671492  WZ2       1357            0.0000000000
      6875      2292  TIP3      H1             10.2725250248       -3.4700993232      -17.4702771492  WZ2       1357            0.0000000000
      6876      2292  TIP3      H2              9.7646750248       -3.1097393232      -16.0903871492  WZ2       1357            0.0000000000
      6877      2293  TIP3      OH2             8.9706050248       -3.1515293232      -14.4669071492  WZ2       1358            0.0000000000
      6878      2293  TIP3      H1              9.1174050248       -3.6715493232      -13.6768171492  WZ2       1358            0.0000000000
      6879      2293  TIP3      H2              8.9677750248       -2.2447693232      -14.1603171492  WZ2       1358            0.0000000000
      6880      2294  TIP3      OH2             5.4237150248       -5.8991993232      -13.9563671492  WZ2       1359            0.0000000000
      6881      2294  TIP3      H1              4.7376450248       -5.5469493232      -13.3893971492  WZ2       1359            0.0000000000
      6882      2294  TIP3      H2              5.9465050248       -5.1362393232      -14.2029371492  WZ2       1359            0.0000000000
      6883      2295  TIP3      OH2            13.2552250248      -13.2368193232       -3.6774671492  WZ2       1360            0.0000000000
      6884      2295  TIP3      H1             13.9540150248      -13.1629493232       -3.0274971492  WZ2       1360            0.0000000000
      6885      2295  TIP3      H2             12.8743650248      -14.1013193232       -3.5231771492  WZ2       1360            0.0000000000
      6886      2296  TIP3      OH2            14.0397150248      -13.5846493232      -12.5802371492  WZ2       1361            0.0000000000
      6887      2296  TIP3      H1             14.2595450248      -13.1131093232      -13.3836971492  WZ2       1361            0.0000000000
      6888      2296  TIP3      H2             14.5981150248      -13.1903893232      -11.9101771492  WZ2       1361            0.0000000000
      6889      2297  TIP3      OH2            11.7083250248       -1.4541693232      -13.7174871492  WZ2       1362            0.0000000000
      6890      2297  TIP3      H1             10.8919350248       -0.9571993232      -13.6650571492  WZ2       1362            0.0000000000
      6891      2297  TIP3      H2             12.2379550248       -0.9788193232      -14.3576071492  WZ2       1362            0.0000000000
      6892      2298  TIP3      OH2            11.2397050248      -11.8567693232      -11.7453971492  WZ2       1363            0.0000000000
      6893      2298  TIP3      H1             12.0519650248      -11.3524493232      -11.6992271492  WZ2       1363            0.0000000000
      6894      2298  TIP3      H2             10.9950050248      -12.0017993232      -10.8314371492  WZ2       1363            0.0000000000
      6895      2299  TIP3      OH2            11.7753450248      -10.8704993232       -2.5607371492  WZ2       1364            0.0000000000
      6896      2299  TIP3      H1             11.8943750248      -10.2969593232       -1.8036971492  WZ2       1364            0.0000000000
      6897      2299  TIP3      H2             12.4308050248      -11.5585593232       -2.4459571492  WZ2       1364            0.0000000000
      6898      2300  TIP3      OH2            12.1233750248      -14.7754693232      -10.8072871492  WZ2       1365            0.0000000000
      6899      2300  TIP3      H1             11.7767250248      -14.1584093232      -10.1628571492  WZ2       1365            0.0000000000
      6900      2300  TIP3      H2             12.7820650248      -14.2748993232      -11.2887371492  WZ2       1365            0.0000000000
      6901      2301  TIP3      OH2             9.0466350248       -0.4104493232      -13.7357971492  WZ2       1366            0.0000000000
      6902      2301  TIP3      H1              9.2075050248        0.3893006768      -14.2365371492  WZ2       1366            0.0000000000
      6903      2301  TIP3      H2              8.8494150248       -0.1038493232      -12.8507371492  WZ2       1366            0.0000000000
      6904      2302  TIP3      OH2             7.7810750248      -13.7125293232      -14.1200371492  WZ2       1367            0.0000000000
      6905      2302  TIP3      H1              7.6975550248      -12.8242193232      -13.7733971492  WZ2       1367            0.0000000000
      6906      2302  TIP3      H2              8.6711050248      -13.9778593232      -13.8883571492  WZ2       1367            0.0000000000
      6907      2303  TIP3      OH2            17.9799250248      -12.9634693232       -1.7257671492  WZ2       1368            0.0000000000
      6908      2303  TIP3      H1             17.0635050248      -12.7012993232       -1.8133971492  WZ2       1368            0.0000000000
      6909      2303  TIP3      H2             18.3154250248      -12.9665693232       -2.6222371492  WZ2       1368            0.0000000000
      6910      2304  TIP3      OH2            16.5820250248       -9.2133693232       -7.6300371492  WZ2       1369            0.0000000000
      6911      2304  TIP3      H1             15.7844650248       -9.6283493232       -7.9585371492  WZ2       1369            0.0000000000
      6912      2304  TIP3      H2             17.0271350248       -9.9039993232       -7.1389871492  WZ2       1369            0.0000000000
      6913      2305  TIP3      OH2             6.0396050248       -3.2853093232      -15.0595871492  WZ2       1370            0.0000000000
      6914      2305  TIP3      H1              6.6317550248       -2.5858293232      -14.7833471492  WZ2       1370            0.0000000000
      6915      2305  TIP3      H2              6.4989050248       -3.7183593232      -15.7791271492  WZ2       1370            0.0000000000
      6916      2306  TIP3      OH2             4.3555250248      -10.6210093232      -15.9436471492  WZ2       1371            0.0000000000
      6917      2306  TIP3      H1              4.3107850248       -9.6816993232      -15.7649471492  WZ2       1371            0.0000000000
      6918      2306  TIP3      H2              3.4678450248      -10.8565193232      -16.2134371492  WZ2       1371            0.0000000000
      6919      2307  TIP3      OH2            17.6684850248        0.0428806768       -6.0076871492  WZ2       1372            0.0000000000
      6920      2307  TIP3      H1             17.5129150248        0.7213206768       -6.6647571492  WZ2       1372            0.0000000000
      6921      2307  TIP3      H2             18.6011250248        0.1148106768       -5.8046271492  WZ2       1372            0.0000000000
      6922      2308  TIP3      OH2             5.1637250248      -15.8393493232       -7.2705471492  WZ2       1373            0.0000000000
      6923      2308  TIP3      H1              4.9347050248      -15.7800993232       -8.1980471492  WZ2       1373            0.0000000000
      6924      2308  TIP3      H2              4.7210650248      -16.6307993232       -6.9641371492  WZ2       1373            0.0000000000
      6925      2309  TIP3      OH2             4.0940550248       -1.8986393232      -11.1099671492  WZ2       1374            0.0000000000
      6926      2309  TIP3      H1              3.2619150248       -1.4263693232      -11.0828271492  WZ2       1374            0.0000000000
      6927      2309  TIP3      H2              4.6398850248       -1.3888793232      -11.7086571492  WZ2       1374            0.0000000000
      6928      2310  TIP3      OH2             3.3824250248        0.7137306768        0.2198328508  WZ2       1375            0.0000000000
      6929      2310  TIP3      H1              3.9226450248        0.4971306768        0.9797528508  WZ2       1375            0.0000000000
      6930      2310  TIP3      H2              2.9012250248       -0.0916693232        0.0300828508  WZ2       1375            0.0000000000
      6931      2311  TIP3      OH2             7.9797650248       -0.3668293232        1.8402528508  WZ2       1376            0.0000000000
      6932      2311  TIP3      H1              8.7474850248       -0.8257493232        2.1811728508  WZ2       1376            0.0000000000
      6933      2311  TIP3      H2              7.9583850248       -0.5928493232        0.9103728508  WZ2       1376            0.0000000000
      6934      2312  TIP3      OH2            12.0717250248       -0.8587693232      -16.7845671492  WZ2       1377            0.0000000000
      6935      2312  TIP3      H1             11.4278250248       -1.4899093232      -16.4631971492  WZ2       1377            0.0000000000
      6936      2312  TIP3      H2             12.8335550248       -1.3899693232      -17.0162171492  WZ2       1377            0.0000000000
      6937      2313  TIP3      OH2            14.5566350248       -1.9867193232        0.5694028508  WZ2       1378            0.0000000000
      6938      2313  TIP3      H1             14.2055850248       -2.8434193232        0.8124428508  WZ2       1378            0.0000000000
      6939      2313  TIP3      H2             15.2829550248       -1.8440493232        1.1763028508  WZ2       1378            0.0000000000
      6940      2314  TIP3      OH2            16.6760150248       -1.0417793232      -16.5507671492  WZ2       1379            0.0000000000
      6941      2314  TIP3      H1             16.9590550248       -1.8362593232      -16.0980771492  WZ2       1379            0.0000000000
      6942      2314  TIP3      H2             17.4158050248       -0.8086793232      -17.1116571492  WZ2       1379            0.0000000000
      6943      2315  TIP3      OH2             3.2893750248       -5.4758593232        1.1742628508  WZ2       1380            0.0000000000
      6944      2315  TIP3      H1              3.4334250248       -6.3777893232        0.8879328508  WZ2       1380            0.0000000000
      6945      2315  TIP3      H2              2.5171150248       -5.1896493232        0.6864928508  WZ2       1380            0.0000000000
      6946      2316  TIP3      OH2             7.6307450248       -5.1322893232      -16.6932771492  WZ2       1381            0.0000000000
      6947      2316  TIP3      H1              7.6951550248       -5.9263293232      -16.1626371492  WZ2       1381            0.0000000000
      6948      2316  TIP3      H2              8.2836650248       -5.2510093232      -17.3830771492  WZ2       1381            0.0000000000
      6949      2317  TIP3      OH2             9.9449850248       -5.5060493232        0.6069028508  WZ2       1382            0.0000000000
      6950      2317  TIP3      H1              9.6163650248       -5.2352393232       -0.2503571492  WZ2       1382            0.0000000000
      6951      2317  TIP3      H2             10.0968050248       -6.4470693232        0.5194028508  WZ2       1382            0.0000000000
      6952      2318  TIP3      OH2            12.9830850248       -4.0851193232      -16.9574771492  WZ2       1383            0.0000000000
      6953      2318  TIP3      H1             12.7144950248       -3.9049093232      -16.0565871492  WZ2       1383            0.0000000000
      6954      2318  TIP3      H2             12.7766450248       -5.0104993232      -17.0888971492  WZ2       1383            0.0000000000
      6955      2319  TIP3      OH2            15.6795050248       -5.5903193232       -2.0098671492  WZ2       1384            0.0000000000
      6956      2319  TIP3      H1             16.4249850248       -5.0019493232       -2.1294671492  WZ2       1384            0.0000000000
      6957      2319  TIP3      H2             14.9221850248       -5.0083493232       -1.9465571492  WZ2       1384            0.0000000000
      6958      2320  TIP3      OH2             4.1220250248       -8.2755293232        0.5941928508  WZ2       1385            0.0000000000
      6959      2320  TIP3      H1              4.5301450248       -9.1328693232        0.4732528508  WZ2       1385            0.0000000000
      6960      2320  TIP3      H2              3.8617850248       -8.2613993232        1.5152228508  WZ2       1385            0.0000000000
      6961      2321  TIP3      OH2             8.7801250248       -7.1596693232      -14.3874771492  WZ2       1386            0.0000000000
      6962      2321  TIP3      H1              8.3203250248       -7.6438393232      -13.7016271492  WZ2       1386            0.0000000000
      6963      2321  TIP3      H2              9.0349950248       -7.8281293232      -15.0234271492  WZ2       1386            0.0000000000
      6964      2322  TIP3      OH2             8.0690550248       -9.2669593232       -2.0315171492  WZ2       1387            0.0000000000
      6965      2322  TIP3      H1              7.4506650248       -8.5922993232       -1.7510471492  WZ2       1387            0.0000000000
      6966      2322  TIP3      H2              8.4131750248       -8.9455693232       -2.8648971492  WZ2       1387            0.0000000000
      6967      2323  TIP3      OH2             9.8511650248       -8.9164893232      -16.1251571492  WZ2       1388            0.0000000000
      6968      2323  TIP3      H1              9.6706650248       -9.0713693232      -17.0523271492  WZ2       1388            0.0000000000
      6969      2323  TIP3      H2             10.8012150248       -8.8086193232      -16.0803671492  WZ2       1388            0.0000000000
      6970      2324  TIP3      OH2            13.0888750248       -6.7954293232        1.2459628508  WZ2       1389            0.0000000000
      6971      2324  TIP3      H1             14.0419950248       -6.7115193232        1.2185628508  WZ2       1389            0.0000000000
      6972      2324  TIP3      H2             12.9283350248       -7.5072493232        1.8654528508  WZ2       1389            0.0000000000
      6973      2325  TIP3      OH2            19.2409950248       -6.5620693232      -16.6793471492  WZ2       1390            0.0000000000
      6974      2325  TIP3      H1             18.9674750248       -6.9865193232      -17.4925171492  WZ2       1390            0.0000000000
      6975      2325  TIP3      H2             19.2804050248       -5.6306193232      -16.8963071492  WZ2       1390            0.0000000000
      6976      2326  TIP3      OH2             8.4084250248      -11.9118793232       -0.9492071492  WZ2       1391            0.0000000000
      6977      2326  TIP3      H1              8.5585150248      -12.6407493232       -1.5512371492  WZ2       1391            0.0000000000
      6978      2326  TIP3      H2              8.4106650248      -11.1347093232       -1.5079871492  WZ2       1391            0.0000000000
      6979      2327  TIP3      OH2             8.8209950248      -13.5422993232       -3.4564671492  WZ2       1392            0.0000000000
      6980      2327  TIP3      H1              9.3567450248      -13.0906293232       -4.1085371492  WZ2       1392            0.0000000000
      6981      2327  TIP3      H2              7.9689550248      -13.6503193232       -3.8790571492  WZ2       1392            0.0000000000
      6982      2328  TIP3      OH2            10.4028350248       -8.1026793232       -3.2169471492  WZ2       1393            0.0000000000
      6983      2328  TIP3      H1             11.1533150248       -8.2589293232       -3.7901671492  WZ2       1393            0.0000000000
      6984      2328  TIP3      H2             10.0636650248       -7.2510193232       -3.4923971492  WZ2       1393            0.0000000000
      6985      2329  TIP3      OH2            14.8184550248      -10.2874993232        1.8115828508  WZ2       1394            0.0000000000
      6986      2329  TIP3      H1             15.0105850248      -11.2185593232        1.7000328508  WZ2       1394            0.0000000000
      6987      2329  TIP3      H2             15.6760850248       -9.8625493232        1.8011228508  WZ2       1394            0.0000000000
      6988      2330  TIP3      OH2            16.1351750248       -7.4989793232       -0.1111471492  WZ2       1395            0.0000000000
      6989      2330  TIP3      H1             15.8536750248       -6.7895193232       -0.6887671492  WZ2       1395            0.0000000000
      6990      2330  TIP3      H2             17.0776050248       -7.5716793232       -0.2620271492  WZ2       1395            0.0000000000
      6991      2331  TIP3      OH2             6.8870550248      -10.7135293232        0.9623528508  WZ2       1396            0.0000000000
      6992      2331  TIP3      H1              6.1199550248      -11.2460493232        0.7521128508  WZ2       1396            0.0000000000
      6993      2331  TIP3      H2              7.5659550248      -11.0234893232        0.3629828508  WZ2       1396            0.0000000000
      6994      2332  TIP3      OH2             9.6265450248      -16.0857293232       -3.0251071492  WZ2       1397            0.0000000000
      6995      2332  TIP3      H1              9.5285050248      -15.1394093232       -3.1304871492  WZ2       1397            0.0000000000
      6996      2332  TIP3      H2              8.8841650248      -16.4583493232       -3.5007571492  WZ2       1397            0.0000000000
      6997      2333  TIP3      OH2            10.8905950248      -11.7641893232        0.5387328508  WZ2       1398            0.0000000000
      6998      2333  TIP3      H1             10.6551350248      -11.9835193232        1.4402228508  WZ2       1398            0.0000000000
      6999      2333  TIP3      H2             10.1072850248      -11.9710693232        0.0289828508  WZ2       1398            0.0000000000
      7000      2334  TIP3      OH2            13.6062550248      -12.6368393232       -0.3859171492  WZ2       1399            0.0000000000
      7001      2334  TIP3      H1             12.6587950248      -12.6048693232       -0.2535871492  WZ2       1399            0.0000000000
      7002      2334  TIP3      H2             13.9189250248      -13.2621293232        0.2679028508  WZ2       1399            0.0000000000
      7003      2335  TIP3      OH2            15.2404050248      -14.0027293232        1.6192728508  WZ2       1400            0.0000000000
      7004      2335  TIP3      H1             15.1435850248      -14.9549993232        1.6134628508  WZ2       1400            0.0000000000
      7005      2335  TIP3      H2             14.9187150248      -13.7340493232        2.4798228508  WZ2       1400            0.0000000000
      7006      2336  TIP3      OH2             5.0673350248      -12.7931493232        0.6668228508  WZ2       1401            0.0000000000
      7007      2336  TIP3      H1              5.2790750248      -13.4995393232        0.0565728508  WZ2       1401            0.0000000000
      7008      2336  TIP3      H2              4.9560850248      -13.2305493232        1.5109428508  WZ2       1401            0.0000000000
      7009      2337  TIP3      OH2             9.8483550248      -16.7919893232       -0.3538271492  WZ2       1402            0.0000000000
      7010      2337  TIP3      H1             10.5601950248      -17.4317693232       -0.3679171492  WZ2       1402            0.0000000000
      7011      2337  TIP3      H2              9.7473950248      -16.5251593232       -1.2675171492  WZ2       1402            0.0000000000
      7012      2338  TIP3      OH2            10.2021050248      -15.1091493232        1.6998028508  WZ2       1403            0.0000000000
      7013      2338  TIP3      H1             10.0703250248      -15.5847693232        0.8796528508  WZ2       1403            0.0000000000
      7014      2338  TIP3      H2              9.6028450248      -14.3647893232        1.6445128508  WZ2       1403            0.0000000000
      7015      2339  TIP3      OH2             9.7483350248        1.7738806768      -15.1237971492  WZ2       1404            0.0000000000
      7016      2339  TIP3      H1             10.6814050248        1.9317506768      -14.9799571492  WZ2       1404            0.0000000000
      7017      2339  TIP3      H2              9.4842150248        2.4491806768      -15.7486471492  WZ2       1404            0.0000000000
      7018      2340  TIP3      OH2             3.3168250248       -3.5897393232      -15.6409871492  WZ2       1405            0.0000000000
      7019      2340  TIP3      H1              4.2307450248       -3.5108493232      -15.3675971492  WZ2       1405            0.0000000000
      7020      2340  TIP3      H2              3.3241350248       -4.2767793232      -16.3074271492  WZ2       1405            0.0000000000
      7021      2341  TIP3      OH2             1.9658850248        1.8031106768      -10.5635971492  WZ2       1406            0.0000000000
      7022      2341  TIP3      H1              1.3185950248        1.3412806768      -11.0964771492  WZ2       1406            0.0000000000
      7023      2341  TIP3      H2              2.3203450248        1.1314406768       -9.9809771492  WZ2       1406            0.0000000000
      7024      2342  TIP3      OH2             2.8358050248       -0.1161893232       -8.7589771492  WZ2       1407            0.0000000000
      7025      2342  TIP3      H1              2.5014850248       -0.9964593232       -8.5869571492  WZ2       1407            0.0000000000
      7026      2342  TIP3      H2              3.0580450248        0.2293106768       -7.8944171492  WZ2       1407            0.0000000000
      7027      2343  TIP3      OH2            20.3842850248        0.6934506768       -5.7784971492  WZ2       1408            0.0000000000
      7028      2343  TIP3      H1             20.3629550248        0.8782906768       -4.8395571492  WZ2       1408            0.0000000000
      7029      2343  TIP3      H2             21.0749050248        1.2618506768       -6.1193571492  WZ2       1408            0.0000000000
      7030      2344  TIP3      OH2            19.9475750248        0.2605606768       -2.8565871492  WZ2       1409            0.0000000000
      7031      2344  TIP3      H1             19.4604450248       -0.4750293232       -3.2278471492  WZ2       1409            0.0000000000
      7032      2344  TIP3      H2             20.4968450248       -0.1330493232       -2.1786471492  WZ2       1409            0.0000000000
      7033      2345  TIP3      OH2            18.3983050248       -3.9496293232        1.7814428508  WZ2       1410            0.0000000000
      7034      2345  TIP3      H1             17.5324150248       -4.0546593232        2.1756728508  WZ2       1410            0.0000000000
      7035      2345  TIP3      H2             18.7748950248       -3.1912993232        2.2279128508  WZ2       1410            0.0000000000
      7036      2346  TIP3      OH2            19.6992750248       -5.6932593232      -12.7043071492  WZ2       1411            0.0000000000
      7037      2346  TIP3      H1             20.5494150248       -5.2721693232      -12.5771471492  WZ2       1411            0.0000000000
      7038      2346  TIP3      H2             19.7047850248       -6.4332493232      -12.0971671492  WZ2       1411            0.0000000000
      7039      2347  TIP3      OH2            20.0938350248       -7.6395193232      -10.8807371492  WZ2       1412            0.0000000000
      7040      2347  TIP3      H1             19.3672950248       -8.1192593232      -10.4829771492  WZ2       1412            0.0000000000
      7041      2347  TIP3      H2             20.6751650248       -7.4340493232      -10.1485771492  WZ2       1412            0.0000000000
      7042      2348  TIP3      OH2            19.8529550248       -4.8547693232       -5.9329771492  WZ2       1413            0.0000000000
      7043      2348  TIP3      H1             20.6863750248       -5.2327693232       -6.2136171492  WZ2       1413            0.0000000000
      7044      2348  TIP3      H2             19.9649850248       -3.9116493232       -6.0520671492  WZ2       1413            0.0000000000
      7045      2349  TIP3      OH2            18.3391850248       -1.9770193232       -3.6261371492  WZ2       1414            0.0000000000
      7046      2349  TIP3      H1             17.6917150248       -1.6518693232       -3.0006171492  WZ2       1414            0.0000000000
      7047      2349  TIP3      H2             17.8215850248       -2.4172493232       -4.3003071492  WZ2       1414            0.0000000000
      7048      2350  TIP3      OH2            20.3621450248       -7.7386693232      -14.4896071492  WZ2       1415            0.0000000000
      7049      2350  TIP3      H1             19.8402550248       -7.3822593232      -15.2085171492  WZ2       1415            0.0000000000
      7050      2350  TIP3      H2             20.3290650248       -7.0638893232      -13.8115171492  WZ2       1415            0.0000000000
      7051      2351  TIP3      OH2            18.7110450248      -10.4991093232      -15.9388971492  WZ2       1416            0.0000000000
      7052      2351  TIP3      H1             18.8074850248       -9.8324093232      -16.6189271492  WZ2       1416            0.0000000000
      7053      2351  TIP3      H2             18.5710050248      -11.3144793232      -16.4203471492  WZ2       1416            0.0000000000
      7054      2352  TIP3      OH2            17.8805150248       -9.1188693232      -10.3178671492  WZ2       1417            0.0000000000
      7055      2352  TIP3      H1             17.7303950248      -10.0640093232      -10.3380871492  WZ2       1417            0.0000000000
      7056      2352  TIP3      H2             17.5269650248       -8.8377293232       -9.4739571492  WZ2       1417            0.0000000000
      7057      2353  TIP3      OH2             2.9157550248       -7.0406493232       -6.3074871492  WZ2       1418            0.0000000000
      7058      2353  TIP3      H1              3.1000450248       -7.1224793232       -7.2431971492  WZ2       1418            0.0000000000
      7059      2353  TIP3      H2              3.7650450248       -7.1649493232       -5.8838471492  WZ2       1418            0.0000000000
      7060      2354  TIP3      OH2            18.7368050248       -7.1485393232       -0.6790371492  WZ2       1419            0.0000000000
      7061      2354  TIP3      H1             19.3195350248       -7.8833093232       -0.4873171492  WZ2       1419            0.0000000000
      7062      2354  TIP3      H2             19.3007350248       -6.3765093232       -0.6324571492  WZ2       1419            0.0000000000
      7063      2355  TIP3      OH2            20.2335150248       -9.2459593232        0.0055028508  WZ2       1420            0.0000000000
      7064      2355  TIP3      H1             19.3701850248       -9.6247493232       -0.1600271492  WZ2       1420            0.0000000000
      7065      2355  TIP3      H2             20.8378850248       -9.9844793232       -0.0689171492  WZ2       1420            0.0000000000
      7066      2356  TIP3      OH2            17.9584250248      -13.0911293232      -16.8213471492  WZ2       1421            0.0000000000
      7067      2356  TIP3      H1             18.5690050248      -13.4624493232      -16.1845271492  WZ2       1421            0.0000000000
      7068      2356  TIP3      H2             17.1215750248      -13.5124393232      -16.6253471492  WZ2       1421            0.0000000000
      7069      2357  TIP3      OH2            17.5909950248      -11.5362893232      -11.8553571492  WZ2       1422            0.0000000000
      7070      2357  TIP3      H1             17.8707050248      -12.4432493232      -11.7311871492  WZ2       1422            0.0000000000
      7071      2357  TIP3      H2             18.3501650248      -11.1021393232      -12.2444371492  WZ2       1422            0.0000000000
      7072      2358  TIP3      OH2            18.2028250248      -10.9545493232       -6.4194671492  WZ2       1423            0.0000000000
      7073      2358  TIP3      H1             19.1356250248      -10.7425593232       -6.4538671492  WZ2       1423            0.0000000000
      7074      2358  TIP3      H2             17.9675750248      -10.8533393232       -5.4971671492  WZ2       1423            0.0000000000
      7075      2359  TIP3      OH2            18.2320150248      -10.2180193232       -3.6435271492  WZ2       1424            0.0000000000
      7076      2359  TIP3      H1             17.3891450248       -9.9499793232       -3.2775471492  WZ2       1424            0.0000000000
      7077      2359  TIP3      H2             18.6744450248       -9.3958293232       -3.8544171492  WZ2       1424            0.0000000000
      7078      2360  TIP3      OH2             2.5132350248      -11.7701493232       -0.1666071492  WZ2       1425            0.0000000000
      7079      2360  TIP3      H1              3.4327250248      -11.8923193232        0.0697028508  WZ2       1425            0.0000000000
      7080      2360  TIP3      H2              2.0636850248      -12.5201793232        0.2227428508  WZ2       1425            0.0000000000
      7081      2361  TIP3      OH2            20.5151750248      -16.2379993232        1.7099728508  WZ2       1426            0.0000000000
      7082      2361  TIP3      H1             20.8648750248      -16.8916493232        1.1044428508  WZ2       1426            0.0000000000
      7083      2361  TIP3      H2             20.6621250248      -15.4005893232        1.2702328508  WZ2       1426            0.0000000000
      7084      2362  TIP3      OH2            18.2044750248      -14.2733593232      -11.8071571492  WZ2       1427            0.0000000000
      7085      2362  TIP3      H1             18.3869750248      -14.7222093232      -10.9816571492  WZ2       1427            0.0000000000
      7086      2362  TIP3      H2             17.6047650248      -14.8579193232      -12.2706971492  WZ2       1427            0.0000000000
      7087      2363  TIP3      OH2             3.7344850248      -13.4579893232       -7.2753171492  WZ2       1428            0.0000000000
      7088      2363  TIP3      H1              4.1796450248      -14.2497393232       -6.9733471492  WZ2       1428            0.0000000000
      7089      2363  TIP3      H2              4.2007850248      -12.7414693232       -6.8447571492  WZ2       1428            0.0000000000
      7090      2364  TIP3      OH2             2.0385150248      -10.4586893232       -6.2062971492  WZ2       1429            0.0000000000
      7091      2364  TIP3      H1              2.5304950248      -10.6796393232       -6.9970971492  WZ2       1429            0.0000000000
      7092      2364  TIP3      H2              2.4006050248       -9.6183493232       -5.9253471492  WZ2       1429            0.0000000000
      7093      2365  TIP3      OH2            20.0348950248      -14.1285393232        0.0591028508  WZ2       1430            0.0000000000
      7094      2365  TIP3      H1             19.1174650248      -13.8578293232        0.0234528508  WZ2       1430            0.0000000000
      7095      2365  TIP3      H2             20.1578350248      -14.6636993232       -0.7249271492  WZ2       1430            0.0000000000
      7096      2366  TIP3      OH2            20.0710950248      -14.2055493232      -15.2791271492  WZ2       1431            0.0000000000
      7097      2366  TIP3      H1             20.4833550248      -14.9269793232      -15.7543271492  WZ2       1431            0.0000000000
      7098      2366  TIP3      H2             20.7527450248      -13.5360893232      -15.2206971492  WZ2       1431            0.0000000000
      7099      2367  TIP3      OH2             2.3521650248      -14.2007793232      -12.1520571492  WZ2       1432            0.0000000000
      7100      2367  TIP3      H1              1.4270050248      -13.9921193232      -12.2815071492  WZ2       1432            0.0000000000
      7101      2367  TIP3      H2              2.8061550248      -13.7166993232      -12.8418271492  WZ2       1432            0.0000000000
      7102      2368  TIP3      OH2            17.1228850248        0.7833906768      -10.2063171492  WZ2       1433            0.0000000000
      7103      2368  TIP3      H1             17.7751750248        0.4356006768      -10.8144071492  WZ2       1433            0.0000000000
      7104      2368  TIP3      H2             17.6332650248        1.2717106768       -9.5603471492  WZ2       1433            0.0000000000
      7105      2369  TIP3      OH2             2.3157050248      -15.4628793232       -3.8078071492  WZ2       1434            0.0000000000
      7106      2369  TIP3      H1              1.6507550248      -15.7088493232       -3.1647171492  WZ2       1434            0.0000000000
      7107      2369  TIP3      H2              1.8728350248      -14.8408393232       -4.3850071492  WZ2       1434            0.0000000000
      7108      2370  TIP3      OH2             4.5076350248       -2.2874693232        0.3367728508  WZ2       1435            0.0000000000
      7109      2370  TIP3      H1              3.6868850248       -2.1128193232       -0.1237571492  WZ2       1435            0.0000000000
      7110      2370  TIP3      H2              4.2554150248       -2.3609993232        1.2572128508  WZ2       1435            0.0000000000
      7111      2371  TIP3      OH2             7.4619250248       -1.3133493232       -3.4048271492  WZ2       1436            0.0000000000
      7112      2371  TIP3      H1              7.0370350248       -0.5034993232       -3.6873671492  WZ2       1436            0.0000000000
      7113      2371  TIP3      H2              8.3662050248       -1.2279393232       -3.7068471492  WZ2       1436            0.0000000000
      7114      2372  TIP3      OH2            11.7730650248        0.0856506768       -0.4454571492  WZ2       1437            0.0000000000
      7115      2372  TIP3      H1             11.9578150248       -0.2477393232        0.4325728508  WZ2       1437            0.0000000000
      7116      2372  TIP3      H2             12.6195150248        0.3955106768       -0.7675371492  WZ2       1437            0.0000000000
      7117      2373  TIP3      OH2            14.1181050248        1.3715406768       -1.2013171492  WZ2       1438            0.0000000000
      7118      2373  TIP3      H1             14.7949950248        0.7387706768       -1.4413971492  WZ2       1438            0.0000000000
      7119      2373  TIP3      H2             14.4399850248        1.7725906768       -0.3939871492  WZ2       1438            0.0000000000
      7120      2374  TIP3      OH2            19.0354850248      -16.0389093232       -2.1218171492  WZ2       1439            0.0000000000
      7121      2374  TIP3      H1             18.2228350248      -15.7138793232       -2.5093471492  WZ2       1439            0.0000000000
      7122      2374  TIP3      H2             19.2683350248      -16.7990593232       -2.6549071492  WZ2       1439            0.0000000000
      7123      2375  TIP3      OH2             4.8635950248        1.9430406768       -3.3572971492  WZ2       1440            0.0000000000
      7124      2375  TIP3      H1              4.1432350248        2.3831406768       -3.8085271492  WZ2       1440            0.0000000000
      7125      2375  TIP3      H2              4.4979950248        1.6925106768       -2.5088971492  WZ2       1440            0.0000000000
      7126      2376  TIP3      OH2             7.3308550248        1.5434306768       -4.3275771492  WZ2       1441            0.0000000000
      7127      2376  TIP3      H1              6.4660750248        1.6152806768       -3.9235671492  WZ2       1441            0.0000000000
      7128      2376  TIP3      H2              7.2757550248        2.0901606768       -5.1113271492  WZ2       1441            0.0000000000
      7129      2377  TIP3      OH2            12.0414150248        1.4313206768       -5.1519771492  WZ2       1442            0.0000000000
      7130      2377  TIP3      H1             11.5848150248        1.9602906768       -5.8061371492  WZ2       1442            0.0000000000
      7131      2377  TIP3      H2             12.2042150248        2.0344606768       -4.4267471492  WZ2       1442            0.0000000000
      7132      2378  TIP3      OH2            14.3690450248        0.3092806768       -4.2069471492  WZ2       1443            0.0000000000
      7133      2378  TIP3      H1             13.4644150248        0.4743006768       -4.4727371492  WZ2       1443            0.0000000000
      7134      2378  TIP3      H2             14.7979050248        1.1625006768       -4.2726071492  WZ2       1443            0.0000000000
      7135      2379  TIP3      OH2            16.9732350248        1.8791906768       -3.9121671492  WZ2       1444            0.0000000000
      7136      2379  TIP3      H1             16.7914350248        2.7950806768       -4.1226771492  WZ2       1444            0.0000000000
      7137      2379  TIP3      H2             17.1500150248        1.4689006768       -4.7587071492  WZ2       1444            0.0000000000
      7138      2380  TIP3      OH2             4.2784050248        0.5662906768       -6.4471171492  WZ2       1445            0.0000000000
      7139      2380  TIP3      H1              4.2600050248        0.1408006768       -5.5898871492  WZ2       1445            0.0000000000
      7140      2380  TIP3      H2              5.0831950248        0.2477906768       -6.8558971492  WZ2       1445            0.0000000000
      7141      2381  TIP3      OH2             6.4197150248       -0.7238393232       -7.7921271492  WZ2       1446            0.0000000000
      7142      2381  TIP3      H1              6.2007850248       -1.6400993232       -7.6225271492  WZ2       1446            0.0000000000
      7143      2381  TIP3      H2              7.2439350248       -0.5837993232       -7.3259871492  WZ2       1446            0.0000000000
      7144      2382  TIP3      OH2             8.9569650248       -0.2539093232       -6.9433271492  WZ2       1447            0.0000000000
      7145      2382  TIP3      H1              9.1695350248       -1.1420093232       -7.2302371492  WZ2       1447            0.0000000000
      7146      2382  TIP3      H2              9.0214750248       -0.2881393232       -5.9889271492  WZ2       1447            0.0000000000
      7147      2383  TIP3      OH2            12.4653350248      -14.5898493232       -7.7989971492  WZ2       1448            0.0000000000
      7148      2383  TIP3      H1             11.7910150248      -15.2192893232       -7.5434171492  WZ2       1448            0.0000000000
      7149      2383  TIP3      H2             13.0292550248      -15.0739593232       -8.4022071492  WZ2       1448            0.0000000000
      7150      2384  TIP3      OH2            17.6080550248      -16.4824493232       -7.6862871492  WZ2       1449            0.0000000000
      7151      2384  TIP3      H1             18.2118150248      -15.9349093232       -8.1881871492  WZ2       1449            0.0000000000
      7152      2384  TIP3      H2             16.7382550248      -16.1634093232       -7.9268771492  WZ2       1449            0.0000000000
      7153      2385  TIP3      OH2            19.3350950248      -15.3435793232       -9.3531971492  WZ2       1450            0.0000000000
      7154      2385  TIP3      H1             19.9468450248      -15.8580093232       -9.8798371492  WZ2       1450            0.0000000000
      7155      2385  TIP3      H2             19.7174350248      -14.4663693232       -9.3297571492  WZ2       1450            0.0000000000
      7156      2386  TIP3      OH2             4.7920850248      -15.9558193232       -9.9770071492  WZ2       1451            0.0000000000
      7157      2386  TIP3      H1              4.0150650248      -16.1903293232      -10.4844171492  WZ2       1451            0.0000000000
      7158      2386  TIP3      H2              5.3224450248      -16.7526093232       -9.9682071492  WZ2       1451            0.0000000000
      7159      2387  TIP3      OH2             3.6284250248      -16.1580093232      -14.1733971492  WZ2       1452            0.0000000000
      7160      2387  TIP3      H1              4.0674950248      -15.5469593232      -14.7650471492  WZ2       1452            0.0000000000
      7161      2387  TIP3      H2              2.9946650248      -15.6195993232      -13.6993971492  WZ2       1452            0.0000000000
      7162      2388  TIP3      OH2             9.3713450248      -16.0291093232      -10.1636971492  WZ2       1453            0.0000000000
      7163      2388  TIP3      H1             10.2456850248      -15.6406793232      -10.1932671492  WZ2       1453            0.0000000000
      7164      2388  TIP3      H2              9.2354250248      -16.2443293232       -9.2409771492  WZ2       1453            0.0000000000
      7165      2389  TIP3      OH2            14.9281850248      -15.9991293232       -8.5145271492  WZ2       1454            0.0000000000
      7166      2389  TIP3      H1             15.0043450248      -15.9039693232       -9.4639271492  WZ2       1454            0.0000000000
      7167      2389  TIP3      H2             14.6531050248      -16.9068393232       -8.3856171492  WZ2       1454            0.0000000000
      7168      2390  TIP3      OH2            16.2814450248      -15.9733493232      -12.8220271492  WZ2       1455            0.0000000000
      7169      2390  TIP3      H1             15.5785550248      -15.3584293232      -13.0318871492  WZ2       1455            0.0000000000
      7170      2390  TIP3      H2             15.8365850248      -16.8106793232      -12.6909371492  WZ2       1455            0.0000000000
      7171      2391  TIP3      OH2             3.5293750248       -0.2097893232      -13.2758871492  WZ2       1456            0.0000000000
      7172      2391  TIP3      H1              2.8443650248       -0.2478993232      -13.9433771492  WZ2       1456            0.0000000000
      7173      2391  TIP3      H2              3.5330950248        0.7029706768      -12.9876771492  WZ2       1456            0.0000000000
      7174      2392  TIP3      OH2             5.4893350248      -14.2418593232      -15.7309871492  WZ2       1457            0.0000000000
      7175      2392  TIP3      H1              5.9806750248      -14.8716193232      -16.2584371492  WZ2       1457            0.0000000000
      7176      2392  TIP3      H2              6.1129650248      -13.9459193232      -15.0678671492  WZ2       1457            0.0000000000
      7177      2393  TIP3      OH2            10.5153450248      -13.9487093232      -13.2739371492  WZ2       1458            0.0000000000
      7178      2393  TIP3      H1             10.6934750248      -14.5953893232      -12.5910771492  WZ2       1458            0.0000000000
      7179      2393  TIP3      H2             10.4619650248      -13.1149393232      -12.8068271492  WZ2       1458            0.0000000000
      7180      2394  TIP3      OH2            12.3937250248        0.9997006768      -14.8782671492  WZ2       1459            0.0000000000
      7181      2394  TIP3      H1             13.2597450248        1.3664406768      -15.0564471492  WZ2       1459            0.0000000000
      7182      2394  TIP3      H2             12.1470050248        0.5605006768      -15.6921871492  WZ2       1459            0.0000000000
      7183      2395  TIP3      OH2            19.1026850248        0.5627306768      -12.1991571492  WZ2       1460            0.0000000000
      7184      2395  TIP3      H1             18.9083950248       -0.1850593232      -12.7641971492  WZ2       1460            0.0000000000
      7185      2395  TIP3      H2             19.0636950248        1.3207406768      -12.7823671492  WZ2       1460            0.0000000000
      7186      2396  TIP3      OH2             4.7498850248      -15.4416293232       -0.4593871492  WZ2       1461            0.0000000000
      7187      2396  TIP3      H1              4.3837050248      -16.2073693232       -0.0169171492  WZ2       1461            0.0000000000
      7188      2396  TIP3      H2              5.6627350248      -15.4126093232       -0.1728771492  WZ2       1461            0.0000000000
      7189      2397  TIP3      OH2             6.7229650248      -16.0911893232        1.0763228508  WZ2       1462            0.0000000000
      7190      2397  TIP3      H1              7.6213250248      -16.3651693232        0.8916628508  WZ2       1462            0.0000000000
      7191      2397  TIP3      H2              6.3362750248      -16.8335893232        1.5405828508  WZ2       1462            0.0000000000
      7192      2398  TIP3      OH2             5.3474950248        0.7102906768      -16.2506771492  WZ2       1463            0.0000000000
      7193      2398  TIP3      H1              5.0799550248        0.9965806768      -15.3773671492  WZ2       1463            0.0000000000
      7194      2398  TIP3      H2              6.1187550248        0.1642106768      -16.0984271492  WZ2       1463            0.0000000000
      7195      2399  TIP3      OH2            15.1441950248      -16.7586593232        1.2586028508  WZ2       1464            0.0000000000
      7196      2399  TIP3      H1             15.2209150248      -17.1845893232        2.1123728508  WZ2       1464            0.0000000000
      7197      2399  TIP3      H2             16.0378550248      -16.7451893232        0.9159528508  WZ2       1464            0.0000000000
      7198      2400  TIP3      OH2            18.3203050248       -0.6860293232       -0.0489771492  WZ2       1465            0.0000000000
      7199      2400  TIP3      H1             17.5384950248       -0.8722293232       -0.5689171492  WZ2       1465            0.0000000000
      7200      2400  TIP3      H2             18.2482950248        0.2434006768        0.1682728508  WZ2       1465            0.0000000000
      7201      2401  TIP3      OH2            31.6594750248       -7.5445193232       -6.5994371492  WZ2       1467            0.0000000000
      7202      2401  TIP3      H1             31.6212250248       -8.1908893232       -5.8944771492  WZ2       1467            0.0000000000
      7203      2401  TIP3      H2             31.3371250248       -8.0110793232       -7.3705671492  WZ2       1467            0.0000000000
      7204      2402  TIP3      OH2            24.0279750248       -7.9303093232       -5.0064471492  WZ2       1468            0.0000000000
      7205      2402  TIP3      H1             24.0691850248       -8.5559793232       -4.2832071492  WZ2       1468            0.0000000000
      7206      2402  TIP3      H2             24.7307450248       -7.3064493232       -4.8244071492  WZ2       1468            0.0000000000
      7207      2403  TIP3      OH2            24.9512850248       -3.4804193232       -6.4715371492  WZ2       1470            0.0000000000
      7208      2403  TIP3      H1             24.5818050248       -4.2823693232       -6.8411071492  WZ2       1470            0.0000000000
      7209      2403  TIP3      H2             25.8923950248       -3.6489293232       -6.4251971492  WZ2       1470            0.0000000000
      7210      2404  TIP3      OH2            21.5613350248       -9.8201593232      -11.0786571492  WZ2       1471            0.0000000000
      7211      2404  TIP3      H1             21.1136750248       -8.9742893232      -11.0970071492  WZ2       1471            0.0000000000
      7212      2404  TIP3      H2             21.0004550248      -10.3997393232      -11.5941471492  WZ2       1471            0.0000000000
      7213      2405  TIP3      OH2            22.2719450248       -7.6581993232       -8.9528571492  WZ2       1472            0.0000000000
      7214      2405  TIP3      H1             22.4852950248       -8.4280393232       -8.4255571492  WZ2       1472            0.0000000000
      7215      2405  TIP3      H2             23.0097050248       -7.5685293232       -9.5560971492  WZ2       1472            0.0000000000
      7216      2406  TIP3      OH2            32.4770450248        0.4986906768       -8.0858871492  WZ2       1473            0.0000000000
      7217      2406  TIP3      H1             33.0966850248       -0.1778393232       -8.3589671492  WZ2       1473            0.0000000000
      7218      2406  TIP3      H2             32.2687850248        0.2807706768       -7.1773971492  WZ2       1473            0.0000000000
      7219      2407  TIP3      OH2            30.0489150248       -5.1123793232       -6.1933371492  WZ2       1474            0.0000000000
      7220      2407  TIP3      H1             30.3527050248       -5.7982393232       -6.7879271492  WZ2       1474            0.0000000000
      7221      2407  TIP3      H2             30.7703150248       -4.9935093232       -5.5755371492  WZ2       1474            0.0000000000
      7222      2408  TIP3      OH2            26.3444450248      -12.6164993232       -8.5933771492  WZ2       1476            0.0000000000
      7223      2408  TIP3      H1             26.3875550248      -11.7566493232       -9.0117471492  WZ2       1476            0.0000000000
      7224      2408  TIP3      H2             25.8868550248      -13.1690293232       -9.2270571492  WZ2       1476            0.0000000000
      7225      2409  TIP3      OH2            22.9645950248      -10.2199193232       -7.8312371492  WZ2       1478            0.0000000000
      7226      2409  TIP3      H1             23.6182550248      -10.7697493232       -7.3992271492  WZ2       1478            0.0000000000
      7227      2409  TIP3      H2             22.9885250248      -10.4940193232       -8.7480371492  WZ2       1478            0.0000000000
      7228      2410  TIP3      OH2            28.1210450248       -8.6697893232       -8.6160871492  WZ2       1479            0.0000000000
      7229      2410  TIP3      H1             28.7371450248       -9.1962493232       -8.1066871492  WZ2       1479            0.0000000000
      7230      2410  TIP3      H2             27.5349250248       -9.3099193232       -9.0197271492  WZ2       1479            0.0000000000
      7231      2411  TIP3      OH2            25.1546350248      -13.6986593232       -4.5192971492  WZ2       1480            0.0000000000
      7232      2411  TIP3      H1             24.9358050248      -13.1685993232       -5.2856971492  WZ2       1480            0.0000000000
      7233      2411  TIP3      H2             24.4867250248      -13.4721093232       -3.8721571492  WZ2       1480            0.0000000000
      7234      2412  TIP3      OH2            32.5236150248       -4.1985493232      -10.9753871492  WZ2       1481            0.0000000000
      7235      2412  TIP3      H1             32.2281250248       -4.5213193232      -11.8266971492  WZ2       1481            0.0000000000
      7236      2412  TIP3      H2             32.1993950248       -3.2988793232      -10.9341271492  WZ2       1481            0.0000000000
      7237      2413  TIP3      OH2            27.7237750248       -6.0230893232       -4.2319271492  WZ2       1482            0.0000000000
      7238      2413  TIP3      H1             26.9836850248       -5.4249393232       -4.1284071492  WZ2       1482            0.0000000000
      7239      2413  TIP3      H2             28.4377250248       -5.4691293232       -4.5475671492  WZ2       1482            0.0000000000
      7240      2414  TIP3      OH2            24.7483650248      -11.8064793232       -6.5670771492  WZ2       1483            0.0000000000
      7241      2414  TIP3      H1             25.3619950248      -11.1737193232       -6.1938371492  WZ2       1483            0.0000000000
      7242      2414  TIP3      H2             25.2604350248      -12.2789793232       -7.2233871492  WZ2       1483            0.0000000000
      7243      2415  TIP3      OH2            26.1312050248       -4.0587893232       -3.4447771492  WZ2       1484            0.0000000000
      7244      2415  TIP3      H1             26.1259650248       -3.1794393232       -3.8228471492  WZ2       1484            0.0000000000
      7245      2415  TIP3      H2             25.2776150248       -4.1423793232       -3.0197871492  WZ2       1484            0.0000000000
      7246      2416  TIP3      OH2            22.2522950248       -4.3879993232      -12.6628471492  WZ2       1485            0.0000000000
      7247      2416  TIP3      H1             21.9803850248       -4.1588993232      -13.5515571492  WZ2       1485            0.0000000000
      7248      2416  TIP3      H2             22.2978650248       -3.5501193232      -12.2023171492  WZ2       1485            0.0000000000
      7249      2417  TIP3      OH2            31.4475950248       -7.5555893232      -12.5662271492  WZ2       1489            0.0000000000
      7250      2417  TIP3      H1             30.7361450248       -7.0206193232      -12.9181771492  WZ2       1489            0.0000000000
      7251      2417  TIP3      H2             32.1385550248       -7.5003793232      -13.2263371492  WZ2       1489            0.0000000000
      7252      2418  TIP3      OH2            26.4987350248       -6.7156393232       -9.7321371492  WZ2       1493            0.0000000000
      7253      2418  TIP3      H1             26.1682550248       -7.0862993232      -10.5504371492  WZ2       1493            0.0000000000
      7254      2418  TIP3      H2             27.0871450248       -7.3862393232       -9.3853071492  WZ2       1493            0.0000000000
      7255      2419  TIP3      OH2            27.8654850248       -3.2875793232       -7.0509171492  WZ2       1494            0.0000000000
      7256      2419  TIP3      H1             27.7706150248       -3.8662693232       -7.8074571492  WZ2       1494            0.0000000000
      7257      2419  TIP3      H2             28.5948450248       -3.6590093232       -6.5546371492  WZ2       1494            0.0000000000
      7258      2420  TIP3      OH2            26.8652850248       -7.9470793232       -6.0986371492  WZ2       1495            0.0000000000
      7259      2420  TIP3      H1             27.4305350248       -7.8256593232       -6.8615171492  WZ2       1495            0.0000000000
      7260      2420  TIP3      H2             27.1841750248       -7.3095793232       -5.4597871492  WZ2       1495            0.0000000000
      7261      2421  TIP3      OH2            33.1745050248       -2.4438893232       -5.3645871492  WZ2       1496            0.0000000000
      7262      2421  TIP3      H1             32.9341650248       -1.7815793232       -4.7166671492  WZ2       1496            0.0000000000
      7263      2421  TIP3      H2             32.9763250248       -3.2783693232       -4.9396271492  WZ2       1496            0.0000000000
      7264      2422  TIP3      OH2            27.7453550248       -3.5478093232       -1.3814471492  WZ2       1497            0.0000000000
      7265      2422  TIP3      H1             27.4341050248       -2.7654893232       -0.9261271492  WZ2       1497            0.0000000000
      7266      2422  TIP3      H2             27.0953750248       -3.7008993232       -2.0672471492  WZ2       1497            0.0000000000
      7267      2423  TIP3      OH2            24.6653450248       -7.3496993232       -2.1528771492  WZ2       1499            0.0000000000
      7268      2423  TIP3      H1             24.7356650248       -6.6990193232       -1.4543771492  WZ2       1499            0.0000000000
      7269      2423  TIP3      H2             23.7745650248       -7.2469493232       -2.4877871492  WZ2       1499            0.0000000000
      7270      2424  TIP3      OH2            31.4508050248       -1.4471193232      -10.4942071492  WZ2       1500            0.0000000000
      7271      2424  TIP3      H1             31.9245650248       -1.1514893232       -9.7167871492  WZ2       1500            0.0000000000
      7272      2424  TIP3      H2             30.8877350248       -0.7089593232      -10.7272471492  WZ2       1500            0.0000000000
      7273      2425  TIP3      OH2            25.9849450248       -1.4763093232       -0.6180671492  WZ2       1501            0.0000000000
      7274      2425  TIP3      H1             25.9924750248       -1.6123393232       -1.5655171492  WZ2       1501            0.0000000000
      7275      2425  TIP3      H2             25.0689850248       -1.5934993232       -0.3660671492  WZ2       1501            0.0000000000
      7276      2426  TIP3      OH2            25.4890050248       -7.6462093232      -12.1428571492  WZ2       1502            0.0000000000
      7277      2426  TIP3      H1             25.1971350248       -6.8780393232      -12.6337271492  WZ2       1502            0.0000000000
      7278      2426  TIP3      H2             24.8145250248       -8.3055893232      -12.3057171492  WZ2       1502            0.0000000000
      7279      2427  TIP3      OH2            21.5820150248       -5.2832893232       -3.3278771492  WZ2       1503            0.0000000000
      7280      2427  TIP3      H1             21.0808550248       -5.3113493232       -4.1429071492  WZ2       1503            0.0000000000
      7281      2427  TIP3      H2             21.5873850248       -6.1889693232       -3.0181471492  WZ2       1503            0.0000000000
      7282      2428  TIP3      OH2            21.3322850248       -2.5029093232       -6.4438571492  WZ2       1504            0.0000000000
      7283      2428  TIP3      H1             22.2783450248       -2.6472093232       -6.4629071492  WZ2       1504            0.0000000000
      7284      2428  TIP3      H2             21.2199150248       -1.7186293232       -5.9067371492  WZ2       1504            0.0000000000
      7285      2429  TIP3      OH2            30.5085350248       -2.2630193232       -1.8853471492  WZ2       1505            0.0000000000
      7286      2429  TIP3      H1             30.5959950248       -1.4365593232       -1.4104371492  WZ2       1505            0.0000000000
      7287      2429  TIP3      H2             29.6450450248       -2.5926393232       -1.6364171492  WZ2       1505            0.0000000000
      7288      2430  TIP3      OH2            30.9231150248        1.5093506768      -12.0792871492  WZ2       1506            0.0000000000
      7289      2430  TIP3      H1             30.8477150248        1.3880706768      -13.0257671492  WZ2       1506            0.0000000000
      7290      2430  TIP3      H2             30.9559850248        2.4586206768      -11.9608271492  WZ2       1506            0.0000000000
      7291      2431  TIP3      OH2            24.5764950248        0.2980506768      -10.2983871492  WZ2       1507            0.0000000000
      7292      2431  TIP3      H1             24.7285350248       -0.0499093232       -9.4197371492  WZ2       1507            0.0000000000
      7293      2431  TIP3      H2             23.7255350248       -0.0582193232      -10.5536671492  WZ2       1507            0.0000000000
      7294      2432  TIP3      OH2            34.0247150248        0.6633706768      -15.0770471492  WZ2       1508            0.0000000000
      7295      2432  TIP3      H1             34.3995550248       -0.0810193232      -15.5477871492  WZ2       1508            0.0000000000
      7296      2432  TIP3      H2             34.0290850248        0.3934306768      -14.1587171492  WZ2       1508            0.0000000000
      7297      2433  TIP3      OH2            33.6935250248        0.5890806768      -12.3278271492  WZ2       1509            0.0000000000
      7298      2433  TIP3      H1             32.7585050248        0.6892706768      -12.1491271492  WZ2       1509            0.0000000000
      7299      2433  TIP3      H2             33.9737150248       -0.1203193232      -11.7495071492  WZ2       1509            0.0000000000
      7300      2434  TIP3      OH2            23.8310650248       -3.9597493232       -2.2845971492  WZ2       1510            0.0000000000
      7301      2434  TIP3      H1             24.0471950248       -4.3211893232       -1.4250171492  WZ2       1510            0.0000000000
      7302      2434  TIP3      H2             22.9755350248       -4.3343693232       -2.4942471492  WZ2       1510            0.0000000000
      7303      2435  TIP3      OH2            26.4498650248      -15.4896993232       -6.2891771492  WZ2       1511            0.0000000000
      7304      2435  TIP3      H1             25.5882350248      -15.5768793232       -6.6968871492  WZ2       1511            0.0000000000
      7305      2435  TIP3      H2             26.4274350248      -14.6336893232       -5.8614171492  WZ2       1511            0.0000000000
      7306      2436  TIP3      OH2            26.5408750248      -10.5242493232       -5.1941571492  WZ2       1516            0.0000000000
      7307      2436  TIP3      H1             25.8990850248      -10.5645193232       -4.4851471492  WZ2       1516            0.0000000000
      7308      2436  TIP3      H2             26.5780750248       -9.5977793232       -5.4318571492  WZ2       1516            0.0000000000
      7309      2437  TIP3      OH2            26.5377850248      -10.3032393232      -10.2821571492  WZ2       1517            0.0000000000
      7310      2437  TIP3      H1             25.6450750248      -10.6436293232      -10.3407771492  WZ2       1517            0.0000000000
      7311      2437  TIP3      H2             26.9884450248      -10.6801493232      -11.0378371492  WZ2       1517            0.0000000000
      7312      2438  TIP3      OH2            24.2909250248      -10.2038993232       -3.3269571492  WZ2       1521            0.0000000000
      7313      2438  TIP3      H1             24.2528650248       -9.8037393232       -2.4582471492  WZ2       1521            0.0000000000
      7314      2438  TIP3      H2             23.8000350248      -11.0206593232       -3.2366671492  WZ2       1521            0.0000000000
      7315      2439  TIP3      OH2            27.6566650248      -12.8296693232      -16.5283571492  WZ2       1522            0.0000000000
      7316      2439  TIP3      H1             27.2257350248      -13.2746593232      -15.7986171492  WZ2       1522            0.0000000000
      7317      2439  TIP3      H2             26.9385350248      -12.4580393232      -17.0406071492  WZ2       1522            0.0000000000
      7318      2440  TIP3      OH2            20.8990050248      -13.0877193232       -9.4764871492  WZ2       1523            0.0000000000
      7319      2440  TIP3      H1             21.5297750248      -13.1165093232       -8.7570971492  WZ2       1523            0.0000000000
      7320      2440  TIP3      H2             21.3484350248      -13.5128493232      -10.2068971492  WZ2       1523            0.0000000000
      7321      2441  TIP3      OH2            22.1732150248      -12.3415193232      -14.0524471492  WZ2       1524            0.0000000000
      7322      2441  TIP3      H1             22.6473850248      -11.7505293232      -14.6373571492  WZ2       1524            0.0000000000
      7323      2441  TIP3      H2             21.4558550248      -11.8112293232      -13.7054371492  WZ2       1524            0.0000000000
      7324      2442  TIP3      OH2            29.1193150248      -12.8754893232       -9.1957471492  WZ2       1526            0.0000000000
      7325      2442  TIP3      H1             28.2084250248      -12.8188093232       -8.9071471492  WZ2       1526            0.0000000000
      7326      2442  TIP3      H2             29.6246050248      -12.9359393232       -8.3850271492  WZ2       1526            0.0000000000
      7327      2443  TIP3      OH2            23.9476550248      -11.2468593232      -10.3689871492  WZ2       1527            0.0000000000
      7328      2443  TIP3      H1             23.0584550248      -11.1473093232      -10.7090271492  WZ2       1527            0.0000000000
      7329      2443  TIP3      H2             24.2441450248      -12.0885593232      -10.7151971492  WZ2       1527            0.0000000000
      7330      2444  TIP3      OH2            27.6008350248      -11.2465993232      -12.7125271492  WZ2       1528            0.0000000000
      7331      2444  TIP3      H1             28.5323850248      -11.1175993232      -12.5342171492  WZ2       1528            0.0000000000
      7332      2444  TIP3      H2             27.3858650248      -10.5771693232      -13.3620571492  WZ2       1528            0.0000000000
      7333      2445  TIP3      OH2            26.2748550248      -10.0523793232      -15.1459171492  WZ2       1530            0.0000000000
      7334      2445  TIP3      H1             25.7323650248      -10.4319993232      -15.8371571492  WZ2       1530            0.0000000000
      7335      2445  TIP3      H2             27.1083450248       -9.8579093232      -15.5745071492  WZ2       1530            0.0000000000
      7336      2446  TIP3      OH2            24.4099950248       -5.4951893232       -0.0467571492  WZ2       1531            0.0000000000
      7337      2446  TIP3      H1             25.1422350248       -5.2405993232        0.5146928508  WZ2       1531            0.0000000000
      7338      2446  TIP3      H2             23.6298650248       -5.2906493232        0.4687828508  WZ2       1531            0.0000000000
      7339      2447  TIP3      OH2            30.4392850248      -10.0881893232       -7.3087871492  WZ2       1532            0.0000000000
      7340      2447  TIP3      H1             31.0036250248      -10.6345293232       -7.8558271492  WZ2       1532            0.0000000000
      7341      2447  TIP3      H2             30.2916250248      -10.6099993232       -6.5200271492  WZ2       1532            0.0000000000
      7342      2448  TIP3      OH2            25.4412550248      -13.9515793232      -10.8903071492  WZ2       1533            0.0000000000
      7343      2448  TIP3      H1             25.1242050248      -14.8540493232      -10.9257671492  WZ2       1533            0.0000000000
      7344      2448  TIP3      H2             26.2226650248      -13.9498393232      -11.4431471492  WZ2       1533            0.0000000000
      7345      2449  TIP3      OH2            29.0658750248      -11.6995793232       -4.8947471492  WZ2       1534            0.0000000000
      7346      2449  TIP3      H1             28.2304050248      -11.2456293232       -4.7845071492  WZ2       1534            0.0000000000
      7347      2449  TIP3      H2             29.5899350248      -11.4237293232       -4.1427571492  WZ2       1534            0.0000000000
      7348      2450  TIP3      OH2            29.6101350248       -5.4868093232      -13.2101071492  WZ2       1535            0.0000000000
      7349      2450  TIP3      H1             28.8652350248       -5.9942793232      -13.5323171492  WZ2       1535            0.0000000000
      7350      2450  TIP3      H2             29.4758550248       -5.4380093232      -12.2636271492  WZ2       1535            0.0000000000
      7351      2451  TIP3      OH2            31.1293450248       -5.3024793232       -1.9731971492  WZ2       1537            0.0000000000
      7352      2451  TIP3      H1             30.7839550248       -5.6842393232       -1.1662371492  WZ2       1537            0.0000000000
      7353      2451  TIP3      H2             30.9293550248       -4.3691193232       -1.9019071492  WZ2       1537            0.0000000000
      7354      2452  TIP3      OH2            24.7349650248       -6.1918093232       -7.4403171492  WZ2       1539            0.0000000000
      7355      2452  TIP3      H1             25.4796850248       -6.1942393232       -8.0416671492  WZ2       1539            0.0000000000
      7356      2452  TIP3      H2             24.8126250248       -7.0154293232       -6.9588071492  WZ2       1539            0.0000000000
      7357      2453  TIP3      OH2            31.7355450248       -4.0283793232      -14.1846471492  WZ2       1540            0.0000000000
      7358      2453  TIP3      H1             31.4403850248       -3.2015893232      -13.8031671492  WZ2       1540            0.0000000000
      7359      2453  TIP3      H2             31.0325450248       -4.6476893232      -13.9885071492  WZ2       1540            0.0000000000
      7360      2454  TIP3      OH2            21.7429350248       -7.7311193232       -2.1254671492  WZ2       1541            0.0000000000
      7361      2454  TIP3      H1             21.9657950248       -8.1491593232       -1.2937171492  WZ2       1541            0.0000000000
      7362      2454  TIP3      H2             21.1409450248       -8.3436193232       -2.5481871492  WZ2       1541            0.0000000000
      7363      2455  TIP3      OH2            28.7594250248       -8.2141293232        0.0875028508  WZ2       1542            0.0000000000
      7364      2455  TIP3      H1             28.4635050248       -8.3798293232       -0.8075871492  WZ2       1542            0.0000000000
      7365      2455  TIP3      H2             29.6909450248       -8.4340993232        0.0768928508  WZ2       1542            0.0000000000
      7366      2456  TIP3      OH2            33.3797050248       -2.8409293232       -2.0226971492  WZ2       1543            0.0000000000
      7367      2456  TIP3      H1             32.4791350248       -2.6576693232       -2.2903071492  WZ2       1543            0.0000000000
      7368      2456  TIP3      H2             33.4138150248       -2.5819993232       -1.1018171492  WZ2       1543            0.0000000000
      7369      2457  TIP3      OH2            27.1099050248       -2.6739893232      -10.0361671492  WZ2       1545            0.0000000000
      7370      2457  TIP3      H1             27.6371250248       -1.9005493232      -10.2362871492  WZ2       1545            0.0000000000
      7371      2457  TIP3      H2             26.2297550248       -2.4490693232      -10.3377671492  WZ2       1545            0.0000000000
      7372      2458  TIP3      OH2            22.8646750248       -7.8115793232      -15.4489271492  WZ2       1546            0.0000000000
      7373      2458  TIP3      H1             23.4806650248       -7.1848593232      -15.0694471492  WZ2       1546            0.0000000000
      7374      2458  TIP3      H2             22.0029350248       -7.4955993232      -15.1772771492  WZ2       1546            0.0000000000
      7375      2459  TIP3      OH2            28.5371350248       -5.0109993232      -10.4597371492  WZ2       1547            0.0000000000
      7376      2459  TIP3      H1             28.2961350248       -4.0855593232      -10.4182071492  WZ2       1547            0.0000000000
      7377      2459  TIP3      H2             27.7964950248       -5.4698693232      -10.0633471492  WZ2       1547            0.0000000000
      7378      2460  TIP3      OH2            29.0517950248       -0.8616393232       -4.1446271492  WZ2       1548            0.0000000000
      7379      2460  TIP3      H1             29.4142650248       -0.0070793232       -4.3781871492  WZ2       1548            0.0000000000
      7380      2460  TIP3      H2             29.5833150248       -1.1534793232       -3.4039971492  WZ2       1548            0.0000000000
      7381      2461  TIP3      OH2            27.2202150248        0.0107606768      -10.9145171492  WZ2       1549            0.0000000000
      7382      2461  TIP3      H1             26.2702650248        0.1165006768      -10.8631871492  WZ2       1549            0.0000000000
      7383      2461  TIP3      H2             27.5720250248        0.8315006768      -10.5697671492  WZ2       1549            0.0000000000
      7384      2462  TIP3      OH2            23.3768850248      -12.9778493232       -2.5673271492  WZ2       1553            0.0000000000
      7385      2462  TIP3      H1             22.4841150248      -12.6393093232       -2.6349271492  WZ2       1553            0.0000000000
      7386      2462  TIP3      H2             23.2781650248      -13.8332393232       -2.1492471492  WZ2       1553            0.0000000000
      7387      2463  TIP3      OH2            23.0280850248       -1.1734093232       -4.1323871492  WZ2       1555            0.0000000000
      7388      2463  TIP3      H1             23.2451150248       -2.1051693232       -4.1634171492  WZ2       1555            0.0000000000
      7389      2463  TIP3      H2             23.2744350248       -0.8989093232       -3.2491071492  WZ2       1555            0.0000000000
      7390      2464  TIP3      OH2            28.8895450248       -2.7219093232      -16.9231671492  WZ2       1556            0.0000000000
      7391      2464  TIP3      H1             29.1285250248       -3.4700993232      -17.4702771492  WZ2       1556            0.0000000000
      7392      2464  TIP3      H2             28.6206750248       -3.1097393232      -16.0903871492  WZ2       1556            0.0000000000
      7393      2465  TIP3      OH2            27.8266050248       -3.1515293232      -14.4669071492  WZ2       1557            0.0000000000
      7394      2465  TIP3      H1             27.9734050248       -3.6715493232      -13.6768171492  WZ2       1557            0.0000000000
      7395      2465  TIP3      H2             27.8237750248       -2.2447693232      -14.1603171492  WZ2       1557            0.0000000000
      7396      2466  TIP3      OH2            24.2797150248       -5.8991993232      -13.9563671492  WZ2       1558            0.0000000000
      7397      2466  TIP3      H1             23.5936450248       -5.5469493232      -13.3893971492  WZ2       1558            0.0000000000
      7398      2466  TIP3      H2             24.8025050248       -5.1362393232      -14.2029371492  WZ2       1558            0.0000000000
      7399      2467  TIP3      OH2            30.5643250248       -1.4541693232      -13.7174871492  WZ2       1561            0.0000000000
      7400      2467  TIP3      H1             29.7479350248       -0.9571993232      -13.6650571492  WZ2       1561            0.0000000000
      7401      2467  TIP3      H2             31.0939550248       -0.9788193232      -14.3576071492  WZ2       1561            0.0000000000
      7402      2468  TIP3      OH2            27.9026350248       -0.4104493232      -13.7357971492  WZ2       1565            0.0000000000
      7403      2468  TIP3      H1             28.0635050248        0.3893006768      -14.2365371492  WZ2       1565            0.0000000000
      7404      2468  TIP3      H2             27.7054150248       -0.1038493232      -12.8507371492  WZ2       1565            0.0000000000
      7405      2469  TIP3      OH2            26.6370750248      -13.7125293232      -14.1200371492  WZ2       1566            0.0000000000
      7406      2469  TIP3      H1             26.5535550248      -12.8242193232      -13.7733971492  WZ2       1566            0.0000000000
      7407      2469  TIP3      H2             27.5271050248      -13.9778593232      -13.8883571492  WZ2       1566            0.0000000000
      7408      2470  TIP3      OH2            24.8956050248       -3.2853093232      -15.0595871492  WZ2       1568            0.0000000000
      7409      2470  TIP3      H1             25.4877550248       -2.5858293232      -14.7833471492  WZ2       1568            0.0000000000
      7410      2470  TIP3      H2             25.3549050248       -3.7183593232      -15.7791271492  WZ2       1568            0.0000000000
      7411      2471  TIP3      OH2            23.2115250248      -10.6210093232      -15.9436471492  WZ2       1569            0.0000000000
      7412      2471  TIP3      H1             23.1667850248       -9.6816993232      -15.7649471492  WZ2       1569            0.0000000000
      7413      2471  TIP3      H2             22.3238450248      -10.8565193232      -16.2134371492  WZ2       1569            0.0000000000
      7414      2472  TIP3      OH2            24.0197250248      -15.8393493232       -7.2705471492  WZ2       1570            0.0000000000
      7415      2472  TIP3      H1             23.7907050248      -15.7800993232       -8.1980471492  WZ2       1570            0.0000000000
      7416      2472  TIP3      H2             23.5770650248      -16.6307993232       -6.9641371492  WZ2       1570            0.0000000000
      7417      2473  TIP3      OH2            22.9500550248       -1.8986393232      -11.1099671492  WZ2       1571            0.0000000000
      7418      2473  TIP3      H1             22.1179150248       -1.4263693232      -11.0828271492  WZ2       1571            0.0000000000
      7419      2473  TIP3      H2             23.4958850248       -1.3888793232      -11.7086571492  WZ2       1571            0.0000000000
      7420      2474  TIP3      OH2            22.2384250248        0.7137306768        0.2198328508  WZ2       1572            0.0000000000
      7421      2474  TIP3      H1             22.7786450248        0.4971306768        0.9797528508  WZ2       1572            0.0000000000
      7422      2474  TIP3      H2             21.7572250248       -0.0916693232        0.0300828508  WZ2       1572            0.0000000000
      7423      2475  TIP3      OH2            26.8357650248       -0.3668293232        1.8402528508  WZ2       1573            0.0000000000
      7424      2475  TIP3      H1             27.6034850248       -0.8257493232        2.1811728508  WZ2       1573            0.0000000000
      7425      2475  TIP3      H2             26.8143850248       -0.5928493232        0.9103728508  WZ2       1573            0.0000000000
      7426      2476  TIP3      OH2            30.9277250248       -0.8587693232      -16.7845671492  WZ2       1574            0.0000000000
      7427      2476  TIP3      H1             30.2838250248       -1.4899093232      -16.4631971492  WZ2       1574            0.0000000000
      7428      2476  TIP3      H2             31.6895550248       -1.3899693232      -17.0162171492  WZ2       1574            0.0000000000
      7429      2477  TIP3      OH2            33.4126350248       -1.9867193232        0.5694028508  WZ2       1575            0.0000000000
      7430      2477  TIP3      H1             33.0615850248       -2.8434193232        0.8124428508  WZ2       1575            0.0000000000
      7431      2477  TIP3      H2             34.1389550248       -1.8440493232        1.1763028508  WZ2       1575            0.0000000000
      7432      2478  TIP3      OH2            22.1453750248       -5.4758593232        1.1742628508  WZ2       1577            0.0000000000
      7433      2478  TIP3      H1             22.2894250248       -6.3777893232        0.8879328508  WZ2       1577            0.0000000000
      7434      2478  TIP3      H2             21.3731150248       -5.1896493232        0.6864928508  WZ2       1577            0.0000000000
      7435      2479  TIP3      OH2            26.4867450248       -5.1322893232      -16.6932771492  WZ2       1578            0.0000000000
      7436      2479  TIP3      H1             26.5511550248       -5.9263293232      -16.1626371492  WZ2       1578            0.0000000000
      7437      2479  TIP3      H2             27.1396650248       -5.2510093232      -17.3830771492  WZ2       1578            0.0000000000
      7438      2480  TIP3      OH2            28.8009850248       -5.5060493232        0.6069028508  WZ2       1579            0.0000000000
      7439      2480  TIP3      H1             28.4723650248       -5.2352393232       -0.2503571492  WZ2       1579            0.0000000000
      7440      2480  TIP3      H2             28.9528050248       -6.4470693232        0.5194028508  WZ2       1579            0.0000000000
      7441      2481  TIP3      OH2            31.8390850248       -4.0851193232      -16.9574771492  WZ2       1580            0.0000000000
      7442      2481  TIP3      H1             31.5704950248       -3.9049093232      -16.0565871492  WZ2       1580            0.0000000000
      7443      2481  TIP3      H2             31.6326450248       -5.0104993232      -17.0888971492  WZ2       1580            0.0000000000
      7444      2482  TIP3      OH2            22.9780250248       -8.2755293232        0.5941928508  WZ2       1582            0.0000000000
      7445      2482  TIP3      H1             23.3861450248       -9.1328693232        0.4732528508  WZ2       1582            0.0000000000
      7446      2482  TIP3      H2             22.7177850248       -8.2613993232        1.5152228508  WZ2       1582            0.0000000000
      7447      2483  TIP3      OH2            27.6361250248       -7.1596693232      -14.3874771492  WZ2       1583            0.0000000000
      7448      2483  TIP3      H1             27.1763250248       -7.6438393232      -13.7016271492  WZ2       1583            0.0000000000
      7449      2483  TIP3      H2             27.8909950248       -7.8281293232      -15.0234271492  WZ2       1583            0.0000000000
      7450      2484  TIP3      OH2            26.9250550248       -9.2669593232       -2.0315171492  WZ2       1584            0.0000000000
      7451      2484  TIP3      H1             26.3066650248       -8.5922993232       -1.7510471492  WZ2       1584            0.0000000000
      7452      2484  TIP3      H2             27.2691750248       -8.9455693232       -2.8648971492  WZ2       1584            0.0000000000
      7453      2485  TIP3      OH2            28.7071650248       -8.9164893232      -16.1251571492  WZ2       1585            0.0000000000
      7454      2485  TIP3      H1             28.5266650248       -9.0713693232      -17.0523271492  WZ2       1585            0.0000000000
      7455      2485  TIP3      H2             29.6572150248       -8.8086193232      -16.0803671492  WZ2       1585            0.0000000000
      7456      2486  TIP3      OH2            27.2644250248      -11.9118793232       -0.9492071492  WZ2       1587            0.0000000000
      7457      2486  TIP3      H1             27.4145150248      -12.6407493232       -1.5512371492  WZ2       1587            0.0000000000
      7458      2486  TIP3      H2             27.2666650248      -11.1347093232       -1.5079871492  WZ2       1587            0.0000000000
      7459      2487  TIP3      OH2            27.6769950248      -13.5422993232       -3.4564671492  WZ2       1588            0.0000000000
      7460      2487  TIP3      H1             28.2127450248      -13.0906293232       -4.1085371492  WZ2       1588            0.0000000000
      7461      2487  TIP3      H2             26.8249550248      -13.6503193232       -3.8790571492  WZ2       1588            0.0000000000
      7462      2488  TIP3      OH2            29.2588350248       -8.1026793232       -3.2169471492  WZ2       1589            0.0000000000
      7463      2488  TIP3      H1             30.0093150248       -8.2589293232       -3.7901671492  WZ2       1589            0.0000000000
      7464      2488  TIP3      H2             28.9196650248       -7.2510193232       -3.4923971492  WZ2       1589            0.0000000000
      7465      2489  TIP3      OH2            25.7430550248      -10.7135293232        0.9623528508  WZ2       1592            0.0000000000
      7466      2489  TIP3      H1             24.9759550248      -11.2460493232        0.7521128508  WZ2       1592            0.0000000000
      7467      2489  TIP3      H2             26.4219550248      -11.0234893232        0.3629828508  WZ2       1592            0.0000000000
      7468      2490  TIP3      OH2            28.4825450248      -16.0857293232       -3.0251071492  WZ2       1593            0.0000000000
      7469      2490  TIP3      H1             28.3845050248      -15.1394093232       -3.1304871492  WZ2       1593            0.0000000000
      7470      2490  TIP3      H2             27.7401650248      -16.4583493232       -3.5007571492  WZ2       1593            0.0000000000
      7471      2491  TIP3      OH2            29.7465950248      -11.7641893232        0.5387328508  WZ2       1594            0.0000000000
      7472      2491  TIP3      H1             29.5111350248      -11.9835193232        1.4402228508  WZ2       1594            0.0000000000
      7473      2491  TIP3      H2             28.9632850248      -11.9710693232        0.0289828508  WZ2       1594            0.0000000000
      7474      2492  TIP3      OH2            23.9233350248      -12.7931493232        0.6668228508  WZ2       1597            0.0000000000
      7475      2492  TIP3      H1             24.1350750248      -13.4995393232        0.0565728508  WZ2       1597            0.0000000000
      7476      2492  TIP3      H2             23.8120850248      -13.2305493232        1.5109428508  WZ2       1597            0.0000000000
      7477      2493  TIP3      OH2            29.0581050248      -15.1091493232        1.6998028508  WZ2       1599            0.0000000000
      7478      2493  TIP3      H1             28.9263250248      -15.5847693232        0.8796528508  WZ2       1599            0.0000000000
      7479      2493  TIP3      H2             28.4588450248      -14.3647893232        1.6445128508  WZ2       1599            0.0000000000
      7480      2494  TIP3      OH2            28.6043350248        1.7738806768      -15.1237971492  WZ2       1600            0.0000000000
      7481      2494  TIP3      H1             29.5374050248        1.9317506768      -14.9799571492  WZ2       1600            0.0000000000
      7482      2494  TIP3      H2             28.3402150248        2.4491806768      -15.7486471492  WZ2       1600            0.0000000000
      7483      2495  TIP3      OH2            22.1728250248       -3.5897393232      -15.6409871492  WZ2       1601            0.0000000000
      7484      2495  TIP3      H1             23.0867450248       -3.5108493232      -15.3675971492  WZ2       1601            0.0000000000
      7485      2495  TIP3      H2             22.1801350248       -4.2767793232      -16.3074271492  WZ2       1601            0.0000000000
      7486      2496  TIP3      OH2            20.8218850248        1.8031106768      -10.5635971492  WZ2       1602            0.0000000000
      7487      2496  TIP3      H1             20.1745950248        1.3412806768      -11.0964771492  WZ2       1602            0.0000000000
      7488      2496  TIP3      H2             21.1763450248        1.1314406768       -9.9809771492  WZ2       1602            0.0000000000
      7489      2497  TIP3      OH2            21.6918050248       -0.1161893232       -8.7589771492  WZ2       1603            0.0000000000
      7490      2497  TIP3      H1             21.3574850248       -0.9964593232       -8.5869571492  WZ2       1603            0.0000000000
      7491      2497  TIP3      H2             21.9140450248        0.2293106768       -7.8944171492  WZ2       1603            0.0000000000
      7492      2498  TIP3      OH2            21.7717550248       -7.0406493232       -6.3074871492  WZ2       1604            0.0000000000
      7493      2498  TIP3      H1             21.9560450248       -7.1224793232       -7.2431971492  WZ2       1604            0.0000000000
      7494      2498  TIP3      H2             22.6210450248       -7.1649493232       -5.8838471492  WZ2       1604            0.0000000000
      7495      2499  TIP3      OH2            21.3692350248      -11.7701493232       -0.1666071492  WZ2       1605            0.0000000000
      7496      2499  TIP3      H1             22.2887250248      -11.8923193232        0.0697028508  WZ2       1605            0.0000000000
      7497      2499  TIP3      H2             20.9196850248      -12.5201793232        0.2227428508  WZ2       1605            0.0000000000
      7498      2500  TIP3      OH2            22.5904850248      -13.4579893232       -7.2753171492  WZ2       1606            0.0000000000
      7499      2500  TIP3      H1             23.0356450248      -14.2497393232       -6.9733471492  WZ2       1606            0.0000000000
      7500      2500  TIP3      H2             23.0567850248      -12.7414693232       -6.8447571492  WZ2       1606            0.0000000000
      7501      2501  TIP3      OH2            20.8945150248      -10.4586893232       -6.2062971492  WZ2       1607            0.0000000000
      7502      2501  TIP3      H1             21.3864950248      -10.6796393232       -6.9970971492  WZ2       1607            0.0000000000
      7503      2501  TIP3      H2             21.2566050248       -9.6183493232       -5.9253471492  WZ2       1607            0.0000000000
      7504      2502  TIP3      OH2            21.2081650248      -14.2007793232      -12.1520571492  WZ2       1608            0.0000000000
      7505      2502  TIP3      H1             20.2830050248      -13.9921193232      -12.2815071492  WZ2       1608            0.0000000000
      7506      2502  TIP3      H2             21.6621550248      -13.7166993232      -12.8418271492  WZ2       1608            0.0000000000
      7507      2503  TIP3      OH2            21.1717050248      -15.4628793232       -3.8078071492  WZ2       1609            0.0000000000
      7508      2503  TIP3      H1             20.5067550248      -15.7088493232       -3.1647171492  WZ2       1609            0.0000000000
      7509      2503  TIP3      H2             20.7288350248      -14.8408393232       -4.3850071492  WZ2       1609            0.0000000000
      7510      2504  TIP3      OH2            23.3636350248       -2.2874693232        0.3367728508  WZ2       1610            0.0000000000
      7511      2504  TIP3      H1             22.5428850248       -2.1128193232       -0.1237571492  WZ2       1610            0.0000000000
      7512      2504  TIP3      H2             23.1114150248       -2.3609993232        1.2572128508  WZ2       1610            0.0000000000
      7513      2505  TIP3      OH2            26.3179250248       -1.3133493232       -3.4048271492  WZ2       1611            0.0000000000
      7514      2505  TIP3      H1             25.8930350248       -0.5034993232       -3.6873671492  WZ2       1611            0.0000000000
      7515      2505  TIP3      H2             27.2222050248       -1.2279393232       -3.7068471492  WZ2       1611            0.0000000000
      7516      2506  TIP3      OH2            30.6290650248        0.0856506768       -0.4454571492  WZ2       1612            0.0000000000
      7517      2506  TIP3      H1             30.8138150248       -0.2477393232        0.4325728508  WZ2       1612            0.0000000000
      7518      2506  TIP3      H2             31.4755150248        0.3955106768       -0.7675371492  WZ2       1612            0.0000000000
      7519      2507  TIP3      OH2            32.9741050248        1.3715406768       -1.2013171492  WZ2       1613            0.0000000000
      7520      2507  TIP3      H1             33.6509950248        0.7387706768       -1.4413971492  WZ2       1613            0.0000000000
      7521      2507  TIP3      H2             33.2959850248        1.7725906768       -0.3939871492  WZ2       1613            0.0000000000
      7522      2508  TIP3      OH2            23.7195950248        1.9430406768       -3.3572971492  WZ2       1614            0.0000000000
      7523      2508  TIP3      H1             22.9992350248        2.3831406768       -3.8085271492  WZ2       1614            0.0000000000
      7524      2508  TIP3      H2             23.3539950248        1.6925106768       -2.5088971492  WZ2       1614            0.0000000000
      7525      2509  TIP3      OH2            26.1868550248        1.5434306768       -4.3275771492  WZ2       1615            0.0000000000
      7526      2509  TIP3      H1             25.3220750248        1.6152806768       -3.9235671492  WZ2       1615            0.0000000000
      7527      2509  TIP3      H2             26.1317550248        2.0901606768       -5.1113271492  WZ2       1615            0.0000000000
      7528      2510  TIP3      OH2            30.8974150248        1.4313206768       -5.1519771492  WZ2       1616            0.0000000000
      7529      2510  TIP3      H1             30.4408150248        1.9602906768       -5.8061371492  WZ2       1616            0.0000000000
      7530      2510  TIP3      H2             31.0602150248        2.0344606768       -4.4267471492  WZ2       1616            0.0000000000
      7531      2511  TIP3      OH2            33.2250450248        0.3092806768       -4.2069471492  WZ2       1617            0.0000000000
      7532      2511  TIP3      H1             32.3204150248        0.4743006768       -4.4727371492  WZ2       1617            0.0000000000
      7533      2511  TIP3      H2             33.6539050248        1.1625006768       -4.2726071492  WZ2       1617            0.0000000000
      7534      2512  TIP3      OH2            23.1344050248        0.5662906768       -6.4471171492  WZ2       1618            0.0000000000
      7535      2512  TIP3      H1             23.1160050248        0.1408006768       -5.5898871492  WZ2       1618            0.0000000000
      7536      2512  TIP3      H2             23.9391950248        0.2477906768       -6.8558971492  WZ2       1618            0.0000000000
      7537      2513  TIP3      OH2            25.2757150248       -0.7238393232       -7.7921271492  WZ2       1619            0.0000000000
      7538      2513  TIP3      H1             25.0567850248       -1.6400993232       -7.6225271492  WZ2       1619            0.0000000000
      7539      2513  TIP3      H2             26.0999350248       -0.5837993232       -7.3259871492  WZ2       1619            0.0000000000
      7540      2514  TIP3      OH2            27.8129650248       -0.2539093232       -6.9433271492  WZ2       1620            0.0000000000
      7541      2514  TIP3      H1             28.0255350248       -1.1420093232       -7.2302371492  WZ2       1620            0.0000000000
      7542      2514  TIP3      H2             27.8774750248       -0.2881393232       -5.9889271492  WZ2       1620            0.0000000000
      7543      2515  TIP3      OH2            23.6480850248      -15.9558193232       -9.9770071492  WZ2       1622            0.0000000000
      7544      2515  TIP3      H1             22.8710650248      -16.1903293232      -10.4844171492  WZ2       1622            0.0000000000
      7545      2515  TIP3      H2             24.1784450248      -16.7526093232       -9.9682071492  WZ2       1622            0.0000000000
      7546      2516  TIP3      OH2            22.4844250248      -16.1580093232      -14.1733971492  WZ2       1623            0.0000000000
      7547      2516  TIP3      H1             22.9234950248      -15.5469593232      -14.7650471492  WZ2       1623            0.0000000000
      7548      2516  TIP3      H2             21.8506650248      -15.6195993232      -13.6993971492  WZ2       1623            0.0000000000
      7549      2517  TIP3      OH2            28.2273450248      -16.0291093232      -10.1636971492  WZ2       1624            0.0000000000
      7550      2517  TIP3      H1             29.1016850248      -15.6406793232      -10.1932671492  WZ2       1624            0.0000000000
      7551      2517  TIP3      H2             28.0914250248      -16.2443293232       -9.2409771492  WZ2       1624            0.0000000000
      7552      2518  TIP3      OH2            22.3853750248       -0.2097893232      -13.2758871492  WZ2       1627            0.0000000000
      7553      2518  TIP3      H1             21.7003650248       -0.2478993232      -13.9433771492  WZ2       1627            0.0000000000
      7554      2518  TIP3      H2             22.3890950248        0.7029706768      -12.9876771492  WZ2       1627            0.0000000000
      7555      2519  TIP3      OH2            24.3453350248      -14.2418593232      -15.7309871492  WZ2       1628            0.0000000000
      7556      2519  TIP3      H1             24.8366750248      -14.8716193232      -16.2584371492  WZ2       1628            0.0000000000
      7557      2519  TIP3      H2             24.9689650248      -13.9459193232      -15.0678671492  WZ2       1628            0.0000000000
      7558      2520  TIP3      OH2            29.3713450248      -13.9487093232      -13.2739371492  WZ2       1629            0.0000000000
      7559      2520  TIP3      H1             29.5494750248      -14.5953893232      -12.5910771492  WZ2       1629            0.0000000000
      7560      2520  TIP3      H2             29.3179650248      -13.1149393232      -12.8068271492  WZ2       1629            0.0000000000
      7561      2521  TIP3      OH2            31.2497250248        0.9997006768      -14.8782671492  WZ2       1630            0.0000000000
      7562      2521  TIP3      H1             32.1157450248        1.3664406768      -15.0564471492  WZ2       1630            0.0000000000
      7563      2521  TIP3      H2             31.0030050248        0.5605006768      -15.6921871492  WZ2       1630            0.0000000000
      7564      2522  TIP3      OH2            23.6058850248      -15.4416293232       -0.4593871492  WZ2       1631            0.0000000000
      7565      2522  TIP3      H1             23.2397050248      -16.2073693232       -0.0169171492  WZ2       1631            0.0000000000
      7566      2522  TIP3      H2             24.5187350248      -15.4126093232       -0.1728771492  WZ2       1631            0.0000000000
      7567      2523  TIP3      OH2            25.5789650248      -16.0911893232        1.0763228508  WZ2       1632            0.0000000000
      7568      2523  TIP3      H1             26.4773250248      -16.3651693232        0.8916628508  WZ2       1632            0.0000000000
      7569      2523  TIP3      H2             25.1922750248      -16.8335893232        1.5405828508  WZ2       1632            0.0000000000
      7570      2524  TIP3      OH2            24.2034950248        0.7102906768      -16.2506771492  WZ2       1633            0.0000000000
      7571      2524  TIP3      H1             23.9359550248        0.9965806768      -15.3773671492  WZ2       1633            0.0000000000
      7572      2524  TIP3      H2             24.9747550248        0.1642106768      -16.0984271492  WZ2       1633            0.0000000000
      7573      2525  TIP3      OH2           -23.8416549752       12.0564106768      -10.0182571492  WZ2       1635            0.0000000000
      7574      2525  TIP3      H1            -23.7525449752       13.0002306768      -10.1505471492  WZ2       1635            0.0000000000
      7575      2525  TIP3      H2            -24.4798949752       11.7810506768      -10.6763171492  WZ2       1635            0.0000000000
      7576      2526  TIP3      OH2           -24.9085249752       11.3114806768       -6.5994371492  WZ2       1636            0.0000000000
      7577      2526  TIP3      H1            -24.9467749752       10.6651106768       -5.8944771492  WZ2       1636            0.0000000000
      7578      2526  TIP3      H2            -25.2308749752       10.8449206768       -7.3705671492  WZ2       1636            0.0000000000
      7579      2527  TIP3      OH2           -21.2025049752       14.2505206768       -8.2979271492  WZ2       1638            0.0000000000
      7580      2527  TIP3      H1            -21.6432349752       13.5301206768       -7.8473671492  WZ2       1638            0.0000000000
      7581      2527  TIP3      H2            -21.2155349752       14.9712406768       -7.6681571492  WZ2       1638            0.0000000000
      7582      2528  TIP3      OH2           -24.0909549752       19.3546906768       -8.0858871492  WZ2       1642            0.0000000000
      7583      2528  TIP3      H1            -23.4713149752       18.6781606768       -8.3589671492  WZ2       1642            0.0000000000
      7584      2528  TIP3      H2            -24.2992149752       19.1367706768       -7.1773971492  WZ2       1642            0.0000000000
      7585      2529  TIP3      OH2           -26.5190849752       13.7436206768       -6.1933371492  WZ2       1643            0.0000000000
      7586      2529  TIP3      H1            -26.2152949752       13.0577606768       -6.7879271492  WZ2       1643            0.0000000000
      7587      2529  TIP3      H2            -25.7976849752       13.8624906768       -5.5755371492  WZ2       1643            0.0000000000
      7588      2530  TIP3      OH2           -17.8561049752        5.3451506768       -5.3327171492  WZ2       1644            0.0000000000
      7589      2530  TIP3      H1            -17.8068849752        5.9552706768       -4.5968071492  WZ2       1644            0.0000000000
      7590      2530  TIP3      H2            -17.4305949752        5.8062406768       -6.0556071492  WZ2       1644            0.0000000000
      7591      2531  TIP3      OH2           -23.3783849752        8.1378606768       -5.8658571492  WZ2       1645            0.0000000000
      7592      2531  TIP3      H1            -23.2357949752        7.1915606768       -5.8456971492  WZ2       1645            0.0000000000
      7593      2531  TIP3      H2            -23.4844849752        8.3448406768       -6.7943671492  WZ2       1645            0.0000000000
      7594      2532  TIP3      OH2           -30.2235549752        6.2395006768       -8.5933771492  WZ2       1646            0.0000000000
      7595      2532  TIP3      H1            -30.1804449752        7.0993506768       -9.0117471492  WZ2       1646            0.0000000000
      7596      2532  TIP3      H2            -30.6811449752        5.6869706768       -9.2270571492  WZ2       1646            0.0000000000
      7597      2533  TIP3      OH2           -22.5012849752        6.3700606768      -10.1925471492  WZ2       1647            0.0000000000
      7598      2533  TIP3      H1            -21.8548549752        6.0413806768       -9.5677871492  WZ2       1647            0.0000000000
      7599      2533  TIP3      H2            -21.9913449752        6.8879606768      -10.8154071492  WZ2       1647            0.0000000000
      7600      2534  TIP3      OH2           -28.4469549752       10.1862106768       -8.6160871492  WZ2       1649            0.0000000000
      7601      2534  TIP3      H1            -27.8308549752        9.6597506768       -8.1066871492  WZ2       1649            0.0000000000
      7602      2534  TIP3      H2            -29.0330749752        9.5460806768       -9.0197271492  WZ2       1649            0.0000000000
      7603      2535  TIP3      OH2           -17.4646449752        6.8230706768       -3.0967371492  WZ2       1650            0.0000000000
      7604      2535  TIP3      H1            -18.1531849752        7.4811406768       -3.1920771492  WZ2       1650            0.0000000000
      7605      2535  TIP3      H2            -17.4491849752        6.6258606768       -2.1601971492  WZ2       1650            0.0000000000
      7606      2536  TIP3      OH2           -31.4133649752        5.1573406768       -4.5192971492  WZ2       1651            0.0000000000
      7607      2536  TIP3      H1            -31.6321949752        5.6874006768       -5.2856971492  WZ2       1651            0.0000000000
      7608      2536  TIP3      H2            -32.0812749752        5.3838906768       -3.8721571492  WZ2       1651            0.0000000000
      7609      2537  TIP3      OH2           -24.0443849752       14.6574506768      -10.9753871492  WZ2       1652            0.0000000000
      7610      2537  TIP3      H1            -24.3398749752       14.3346806768      -11.8266971492  WZ2       1652            0.0000000000
      7611      2537  TIP3      H2            -24.3686049752       15.5571206768      -10.9341271492  WZ2       1652            0.0000000000
      7612      2538  TIP3      OH2           -28.8442249752       12.8329106768       -4.2319271492  WZ2       1653            0.0000000000
      7613      2538  TIP3      H1            -29.5843149752       13.4310606768       -4.1284071492  WZ2       1653            0.0000000000
      7614      2538  TIP3      H2            -28.1302749752       13.3868706768       -4.5475671492  WZ2       1653            0.0000000000
      7615      2539  TIP3      OH2           -20.7374449752        5.6609906768       -8.2119571492  WZ2       1654            0.0000000000
      7616      2539  TIP3      H1            -20.9526449752        4.8953306768       -7.6793571492  WZ2       1654            0.0000000000
      7617      2539  TIP3      H2            -20.0817049752        6.1334506768       -7.6991071492  WZ2       1654            0.0000000000
      7618      2540  TIP3      OH2           -31.8196349752        7.0495206768       -6.5670771492  WZ2       1655            0.0000000000
      7619      2540  TIP3      H1            -31.2060049752        7.6822806768       -6.1938371492  WZ2       1655            0.0000000000
      7620      2540  TIP3      H2            -31.3075649752        6.5770206768       -7.2233871492  WZ2       1655            0.0000000000
      7621      2541  TIP3      OH2           -20.6907349752       16.0895906768       -5.9499971492  WZ2       1658            0.0000000000
      7622      2541  TIP3      H1            -21.6323649752       16.1479806768       -5.7883071492  WZ2       1658            0.0000000000
      7623      2541  TIP3      H2            -20.4141249752       16.9956406768       -6.0870271492  WZ2       1658            0.0000000000
      7624      2542  TIP3      OH2           -20.3900349752        4.3761206768       -4.5326071492  WZ2       1659            0.0000000000
      7625      2542  TIP3      H1            -21.1261149752        4.9868306768       -4.5704771492  WZ2       1659            0.0000000000
      7626      2542  TIP3      H2            -19.7066349752        4.7910206768       -5.0589671492  WZ2       1659            0.0000000000
      7627      2543  TIP3      OH2           -27.3868949752        2.4628506768       -7.0668071492  WZ2       1660            0.0000000000
      7628      2543  TIP3      H1            -27.5044749752        1.5144506768       -7.1209771492  WZ2       1660            0.0000000000
      7629      2543  TIP3      H2            -28.2418849752        2.7954606768       -6.7936971492  WZ2       1660            0.0000000000
      7630      2544  TIP3      OH2           -22.4386149752       17.8709406768       -9.3248371492  WZ2       1661            0.0000000000
      7631      2544  TIP3      H1            -22.0133849752       17.1637306768       -9.8098771492  WZ2       1661            0.0000000000
      7632      2544  TIP3      H2            -22.1216149752       18.6722106768       -9.7416171492  WZ2       1661            0.0000000000
      7633      2545  TIP3      OH2           -21.2789649752       15.7717906768      -10.8161771492  WZ2       1662            0.0000000000
      7634      2545  TIP3      H1            -21.5364849752       15.0818006768      -11.4275871492  WZ2       1662            0.0000000000
      7635      2545  TIP3      H2            -21.2078849752       15.3289106768       -9.9705871492  WZ2       1662            0.0000000000
      7636      2546  TIP3      OH2           -19.5929449752       14.3384606768       -2.3388271492  WZ2       1663            0.0000000000
      7637      2546  TIP3      H1            -19.4533149752       13.7467106768       -3.0781271492  WZ2       1663            0.0000000000
      7638      2546  TIP3      H2            -19.4256649752       15.2110506768       -2.6949471492  WZ2       1663            0.0000000000
      7639      2547  TIP3      OH2           -25.1204049752       11.3004106768      -12.5662271492  WZ2       1664            0.0000000000
      7640      2547  TIP3      H1            -25.8318549752       11.8353806768      -12.9181771492  WZ2       1664            0.0000000000
      7641      2547  TIP3      H2            -24.4294449752       11.3556206768      -13.2263371492  WZ2       1664            0.0000000000
      7642      2548  TIP3      OH2           -25.0664849752        9.7578406768      -15.5277271492  WZ2       1665            0.0000000000
      7643      2548  TIP3      H1            -24.3654949752        9.7805306768      -14.8763271492  WZ2       1665            0.0000000000
      7644      2548  TIP3      H2            -24.7641949752        9.1298106768      -16.1837971492  WZ2       1665            0.0000000000
      7645      2549  TIP3      OH2           -17.7510149752       10.6782606768       -4.2727871492  WZ2       1666            0.0000000000
      7646      2549  TIP3      H1            -18.4036049752       11.3728206768       -4.1836971492  WZ2       1666            0.0000000000
      7647      2549  TIP3      H2            -17.2859849752       10.8883506768       -5.0826271492  WZ2       1666            0.0000000000
      7648      2550  TIP3      OH2           -21.7146349752       11.5097406768      -11.6146371492  WZ2       1667            0.0000000000
      7649      2550  TIP3      H1            -22.4465349752       11.7381106768      -11.0415771492  WZ2       1667            0.0000000000
      7650      2550  TIP3      H2            -21.2674149752       10.7960106768      -11.1598871492  WZ2       1667            0.0000000000
      7651      2551  TIP3      OH2           -21.8172849752        9.6840006768       -2.5469371492  WZ2       1668            0.0000000000
      7652      2551  TIP3      H1            -21.7373749752       10.4474406768       -1.9750871492  WZ2       1668            0.0000000000
      7653      2551  TIP3      H2            -22.4185149752        9.9632406768       -3.2374271492  WZ2       1668            0.0000000000
      7654      2552  TIP3      OH2           -30.0692649752       12.1403606768       -9.7321371492  WZ2       1669            0.0000000000
      7655      2552  TIP3      H1            -30.3997449752       11.7697006768      -10.5504371492  WZ2       1669            0.0000000000
      7656      2552  TIP3      H2            -29.4808549752       11.4697606768       -9.3853071492  WZ2       1669            0.0000000000
      7657      2553  TIP3      OH2           -28.7025149752       15.5684206768       -7.0509171492  WZ2       1670            0.0000000000
      7658      2553  TIP3      H1            -28.7973849752       14.9897306768       -7.8074571492  WZ2       1670            0.0000000000
      7659      2553  TIP3      H2            -27.9731549752       15.1969906768       -6.5546371492  WZ2       1670            0.0000000000
      7660      2554  TIP3      OH2           -29.7027149752       10.9089206768       -6.0986371492  WZ2       1671            0.0000000000
      7661      2554  TIP3      H1            -29.1374649752       11.0303406768       -6.8615171492  WZ2       1671            0.0000000000
      7662      2554  TIP3      H2            -29.3838249752       11.5464206768       -5.4597871492  WZ2       1671            0.0000000000
      7663      2555  TIP3      OH2           -23.3934949752       16.4121106768       -5.3645871492  WZ2       1672            0.0000000000
      7664      2555  TIP3      H1            -23.6338349752       17.0744206768       -4.7166671492  WZ2       1672            0.0000000000
      7665      2555  TIP3      H2            -23.5916749752       15.5776306768       -4.9396271492  WZ2       1672            0.0000000000
      7666      2556  TIP3      OH2           -22.8436849752       10.6720306768      -13.9295171492  WZ2       1674            0.0000000000
      7667      2556  TIP3      H1            -22.2641349752       10.8220606768      -13.1826271492  WZ2       1674            0.0000000000
      7668      2556  TIP3      H2            -22.4296849752       11.1427706768      -14.6528771492  WZ2       1674            0.0000000000
      7669      2557  TIP3      OH2           -25.1171949752       17.4088806768      -10.4942071492  WZ2       1676            0.0000000000
      7670      2557  TIP3      H1            -24.6434349752       17.7045106768       -9.7167871492  WZ2       1676            0.0000000000
      7671      2557  TIP3      H2            -25.6802649752       18.1470406768      -10.7272471492  WZ2       1676            0.0000000000
      7672      2558  TIP3      OH2           -19.1448449752        2.4220706768      -14.1165471492  WZ2       1678            0.0000000000
      7673      2558  TIP3      H1            -20.0447749752        2.5609706768      -13.8214871492  WZ2       1678            0.0000000000
      7674      2558  TIP3      H2            -18.8930049752        3.2535306768      -14.5183771492  WZ2       1678            0.0000000000
      7675      2559  TIP3      OH2           -17.9557049752       16.7883106768      -15.7401571492  WZ2       1680            0.0000000000
      7676      2559  TIP3      H1            -17.8823549752       17.7273306768      -15.5696271492  WZ2       1680            0.0000000000
      7677      2559  TIP3      H2            -17.0501949752       16.4831706768      -15.7964271492  WZ2       1680            0.0000000000
      7678      2560  TIP3      OH2           -17.0378649752       17.0190606768       -0.7614871492  WZ2       1683            0.0000000000
      7679      2560  TIP3      H1            -17.0871849752       16.0638706768       -0.7987271492  WZ2       1683            0.0000000000
      7680      2560  TIP3      H2            -17.8646349752       17.2865906768       -0.3601071492  WZ2       1683            0.0000000000
      7681      2561  TIP3      OH2           -26.0594649752       16.5929806768       -1.8853471492  WZ2       1684            0.0000000000
      7682      2561  TIP3      H1            -25.9720049752       17.4194406768       -1.4104371492  WZ2       1684            0.0000000000
      7683      2561  TIP3      H2            -26.9229549752       16.2633606768       -1.6364171492  WZ2       1684            0.0000000000
      7684      2562  TIP3      OH2           -25.6448849752       20.3653506768      -12.0792871492  WZ2       1685            0.0000000000
      7685      2562  TIP3      H1            -25.7202849752       20.2440706768      -13.0257671492  WZ2       1685            0.0000000000
      7686      2562  TIP3      H2            -25.6120149752       21.3146206768      -11.9608271492  WZ2       1685            0.0000000000
      7687      2563  TIP3      OH2           -22.5432849752       19.5193706768      -15.0770471492  WZ2       1687            0.0000000000
      7688      2563  TIP3      H1            -22.1684449752       18.7749806768      -15.5477871492  WZ2       1687            0.0000000000
      7689      2563  TIP3      H2            -22.5389149752       19.2494306768      -14.1587171492  WZ2       1687            0.0000000000
      7690      2564  TIP3      OH2           -22.8744749752       19.4450806768      -12.3278271492  WZ2       1688            0.0000000000
      7691      2564  TIP3      H1            -23.8094949752       19.5452706768      -12.1491271492  WZ2       1688            0.0000000000
      7692      2564  TIP3      H2            -22.5942849752       18.7356806768      -11.7495071492  WZ2       1688            0.0000000000
      7693      2565  TIP3      OH2           -19.8858849752        8.5123106768       -0.2812671492  WZ2       1689            0.0000000000
      7694      2565  TIP3      H1            -20.2932049752        8.9928706768       -1.0019371492  WZ2       1689            0.0000000000
      7695      2565  TIP3      H2            -19.8453149752        7.6069106768       -0.5891871492  WZ2       1689            0.0000000000
      7696      2566  TIP3      OH2           -30.1181349752        3.3663006768       -6.2891771492  WZ2       1691            0.0000000000
      7697      2566  TIP3      H1            -30.9797649752        3.2791206768       -6.6968871492  WZ2       1691            0.0000000000
      7698      2566  TIP3      H2            -30.1405649752        4.2223106768       -5.8614171492  WZ2       1691            0.0000000000
      7699      2567  TIP3      OH2           -25.4553549752        3.0883406768       -2.9144771492  WZ2       1692            0.0000000000
      7700      2567  TIP3      H1            -25.0350449752        2.6730506768       -2.1614171492  WZ2       1692            0.0000000000
      7701      2567  TIP3      H2            -26.3883949752        2.9096706768       -2.7972771492  WZ2       1692            0.0000000000
      7702      2568  TIP3      OH2           -22.1288649752        6.8438606768       -2.0610271492  WZ2       1693            0.0000000000
      7703      2568  TIP3      H1            -22.6429149752        6.7180806768       -1.2634271492  WZ2       1693            0.0000000000
      7704      2568  TIP3      H2            -22.2843949752        7.7561706768       -2.3054071492  WZ2       1693            0.0000000000
      7705      2569  TIP3      OH2           -21.3663749752       11.7048606768      -16.2997271492  WZ2       1694            0.0000000000
      7706      2569  TIP3      H1            -21.3242949752       11.4822506768      -17.2297271492  WZ2       1694            0.0000000000
      7707      2569  TIP3      H2            -20.5171649752       12.1035706768      -16.1097371492  WZ2       1694            0.0000000000
      7708      2570  TIP3      OH2           -25.7936249752        5.5806806768      -15.6293971492  WZ2       1695            0.0000000000
      7709      2570  TIP3      H1            -26.0471449752        5.5998406768      -14.7065871492  WZ2       1695            0.0000000000
      7710      2570  TIP3      H2            -26.0504149752        4.7092206768      -15.9307771492  WZ2       1695            0.0000000000
      7711      2571  TIP3      OH2           -30.0271249752        8.3317506768       -5.1941571492  WZ2       1696            0.0000000000
      7712      2571  TIP3      H1            -30.6689149752        8.2914806768       -4.4851471492  WZ2       1696            0.0000000000
      7713      2571  TIP3      H2            -29.9899249752        9.2582206768       -5.4318571492  WZ2       1696            0.0000000000
      7714      2572  TIP3      OH2           -30.0302149752        8.5527606768      -10.2821571492  WZ2       1697            0.0000000000
      7715      2572  TIP3      H1            -30.9229249752        8.2123706768      -10.3407771492  WZ2       1697            0.0000000000
      7716      2572  TIP3      H2            -29.5795549752        8.1758506768      -11.0378371492  WZ2       1697            0.0000000000
      7717      2573  TIP3      OH2           -24.4946649752        8.9687906768      -11.4650771492  WZ2       1698            0.0000000000
      7718      2573  TIP3      H1            -24.9036349752        9.7836506768      -11.7565971492  WZ2       1698            0.0000000000
      7719      2573  TIP3      H2            -23.7740449752        8.8288006768      -12.0793671492  WZ2       1698            0.0000000000
      7720      2574  TIP3      OH2           -25.3925049752        9.1444306768        0.0229928508  WZ2       1699            0.0000000000
      7721      2574  TIP3      H1            -25.9551249752        8.4395906768        0.3437728508  WZ2       1699            0.0000000000
      7722      2574  TIP3      H2            -24.5661649752        9.0236206768        0.4907528508  WZ2       1699            0.0000000000
      7723      2575  TIP3      OH2           -23.4898949752        8.4148306768       -8.6511071492  WZ2       1700            0.0000000000
      7724      2575  TIP3      H1            -23.6854449752        9.0205106768       -9.3660471492  WZ2       1700            0.0000000000
      7725      2575  TIP3      H2            -23.3086349752        7.5813506768       -9.0854771492  WZ2       1700            0.0000000000
      7726      2576  TIP3      OH2           -28.9113349752        6.0263306768      -16.5283571492  WZ2       1702            0.0000000000
      7727      2576  TIP3      H1            -29.3422649752        5.5813406768      -15.7986171492  WZ2       1702            0.0000000000
      7728      2576  TIP3      H2            -29.6294649752        6.3979606768      -17.0406071492  WZ2       1702            0.0000000000
      7729      2577  TIP3      OH2           -24.2259749752       10.0529606768       -3.9798671492  WZ2       1705            0.0000000000
      7730      2577  TIP3      H1            -23.9024949752        9.4219306768       -4.6228171492  WZ2       1705            0.0000000000
      7731      2577  TIP3      H2            -24.6660449752        9.5181806768       -3.3191271492  WZ2       1705            0.0000000000
      7732      2578  TIP3      OH2           -27.4486849752        5.9805106768       -9.1957471492  WZ2       1706            0.0000000000
      7733      2578  TIP3      H1            -28.3595749752        6.0371906768       -8.9071471492  WZ2       1706            0.0000000000
      7734      2578  TIP3      H2            -26.9433949752        5.9200606768       -8.3850271492  WZ2       1706            0.0000000000
      7735      2579  TIP3      OH2           -28.9671649752        7.6094006768      -12.7125271492  WZ2       1708            0.0000000000
      7736      2579  TIP3      H1            -28.0356149752        7.7384006768      -12.5342171492  WZ2       1708            0.0000000000
      7737      2579  TIP3      H2            -29.1821349752        8.2788306768      -13.3620571492  WZ2       1708            0.0000000000
      7738      2580  TIP3      OH2           -23.0434949752        5.2151406768       -5.9315671492  WZ2       1709            0.0000000000
      7739      2580  TIP3      H1            -23.7203349752        5.3464506768       -5.2675971492  WZ2       1709            0.0000000000
      7740      2580  TIP3      H2            -23.5290049752        5.0600906768       -6.7417971492  WZ2       1709            0.0000000000
      7741      2581  TIP3      OH2           -30.2931449752        8.8036206768      -15.1459171492  WZ2       1710            0.0000000000
      7742      2581  TIP3      H1            -30.8356349752        8.4240006768      -15.8371571492  WZ2       1710            0.0000000000
      7743      2581  TIP3      H2            -29.4596549752        8.9980906768      -15.5745071492  WZ2       1710            0.0000000000
      7744      2582  TIP3      OH2           -19.7559849752       20.8866806768        0.3451928508  WZ2       1711            0.0000000000
      7745      2582  TIP3      H1            -19.5561149752       21.3108706768       -0.4892771492  WZ2       1711            0.0000000000
      7746      2582  TIP3      H2            -19.1006149752       21.2305006768        0.9522328508  WZ2       1711            0.0000000000
      7747      2583  TIP3      OH2           -26.1287149752        8.7678106768       -7.3087871492  WZ2       1713            0.0000000000
      7748      2583  TIP3      H1            -25.5643749752        8.2214706768       -7.8558271492  WZ2       1713            0.0000000000
      7749      2583  TIP3      H2            -26.2763749752        8.2460006768       -6.5200271492  WZ2       1713            0.0000000000
      7750      2584  TIP3      OH2           -31.1267449752        4.9044206768      -10.8903071492  WZ2       1714            0.0000000000
      7751      2584  TIP3      H1            -31.4437949752        4.0019506768      -10.9257671492  WZ2       1714            0.0000000000
      7752      2584  TIP3      H2            -30.3453349752        4.9061606768      -11.4431471492  WZ2       1714            0.0000000000
      7753      2585  TIP3      OH2           -27.5021249752        7.1564206768       -4.8947471492  WZ2       1715            0.0000000000
      7754      2585  TIP3      H1            -28.3375949752        7.6103706768       -4.7845071492  WZ2       1715            0.0000000000
      7755      2585  TIP3      H2            -26.9780649752        7.4322706768       -4.1427571492  WZ2       1715            0.0000000000
      7756      2586  TIP3      OH2           -26.9578649752       13.3691906768      -13.2101071492  WZ2       1716            0.0000000000
      7757      2586  TIP3      H1            -27.7027649752       12.8617206768      -13.5323171492  WZ2       1716            0.0000000000
      7758      2586  TIP3      H2            -27.0921449752       13.4179906768      -12.2636271492  WZ2       1716            0.0000000000
      7759      2587  TIP3      OH2           -19.8079749752       12.5020106768       -4.4233471492  WZ2       1717            0.0000000000
      7760      2587  TIP3      H1            -19.1660949752       12.9586406768       -4.9671271492  WZ2       1717            0.0000000000
      7761      2587  TIP3      H2            -20.6382849752       12.6152506768       -4.8859371492  WZ2       1717            0.0000000000
      7762      2588  TIP3      OH2           -23.0601849752        6.1831806768      -15.0108471492  WZ2       1718            0.0000000000
      7763      2588  TIP3      H1            -23.9987649752        6.2947406768      -15.1619671492  WZ2       1718            0.0000000000
      7764      2588  TIP3      H2            -22.7629749752        7.0398706768      -14.7042771492  WZ2       1718            0.0000000000
      7765      2589  TIP3      OH2           -25.4386549752       13.5535206768       -1.9731971492  WZ2       1719            0.0000000000
      7766      2589  TIP3      H1            -25.7840449752       13.1717606768       -1.1662371492  WZ2       1719            0.0000000000
      7767      2589  TIP3      H2            -25.6386449752       14.4868806768       -1.9019071492  WZ2       1719            0.0000000000
      7768      2590  TIP3      OH2           -22.3418349752        8.0504506768      -13.3501071492  WZ2       1720            0.0000000000
      7769      2590  TIP3      H1            -21.4499349752        7.9129506768      -13.0309871492  WZ2       1720            0.0000000000
      7770      2590  TIP3      H2            -22.2854749752        8.8410606768      -13.8867571492  WZ2       1720            0.0000000000
      7771      2591  TIP3      OH2           -24.8324549752       14.8276206768      -14.1846471492  WZ2       1722            0.0000000000
      7772      2591  TIP3      H1            -25.1276149752       15.6544106768      -13.8031671492  WZ2       1722            0.0000000000
      7773      2591  TIP3      H2            -25.5354549752       14.2083106768      -13.9885071492  WZ2       1722            0.0000000000
      7774      2592  TIP3      OH2           -27.8085749752       10.6418706768        0.0875028508  WZ2       1724            0.0000000000
      7775      2592  TIP3      H1            -28.1044949752       10.4761706768       -0.8075871492  WZ2       1724            0.0000000000
      7776      2592  TIP3      H2            -26.8770549752       10.4219006768        0.0768928508  WZ2       1724            0.0000000000
      7777      2593  TIP3      OH2           -23.1882949752       16.0150706768       -2.0226971492  WZ2       1725            0.0000000000
      7778      2593  TIP3      H1            -24.0888649752       16.1983306768       -2.2903071492  WZ2       1725            0.0000000000
      7779      2593  TIP3      H2            -23.1541849752       16.2740006768       -1.1018171492  WZ2       1725            0.0000000000
      7780      2594  TIP3      OH2           -17.4569649752        8.2598606768      -13.6554371492  WZ2       1726            0.0000000000
      7781      2594  TIP3      H1            -18.0113349752        7.8636606768      -14.3276871492  WZ2       1726            0.0000000000
      7782      2594  TIP3      H2            -17.3566049752        9.1703806768      -13.9331071492  WZ2       1726            0.0000000000
      7783      2595  TIP3      OH2           -17.4937649752       14.0600306768       -0.8182871492  WZ2       1727            0.0000000000
      7784      2595  TIP3      H1            -18.3449149752       14.2984106768       -1.1856471492  WZ2       1727            0.0000000000
      7785      2595  TIP3      H2            -16.9034249752       14.0433506768       -1.5715771492  WZ2       1727            0.0000000000
      7786      2596  TIP3      OH2           -19.1617949752       17.0459006768      -13.1902271492  WZ2       1728            0.0000000000
      7787      2596  TIP3      H1            -19.5346849752       16.2202806768      -12.8811671492  WZ2       1728            0.0000000000
      7788      2596  TIP3      H2            -18.8844449752       16.8628406768      -14.0878871492  WZ2       1728            0.0000000000
      7789      2597  TIP3      OH2           -22.0014049752       11.8538506768       -6.1690371492  WZ2       1729            0.0000000000
      7790      2597  TIP3      H1            -22.9297149752       11.6220406768       -6.1961071492  WZ2       1729            0.0000000000
      7791      2597  TIP3      H2            -21.5502949752       11.0768306768       -6.4991571492  WZ2       1729            0.0000000000
      7792      2598  TIP3      OH2           -28.0308649752       13.8450006768      -10.4597371492  WZ2       1732            0.0000000000
      7793      2598  TIP3      H1            -28.2718649752       14.7704406768      -10.4182071492  WZ2       1732            0.0000000000
      7794      2598  TIP3      H2            -28.7715049752       13.3861306768      -10.0633471492  WZ2       1732            0.0000000000
      7795      2599  TIP3      OH2           -27.5162049752       17.9943606768       -4.1446271492  WZ2       1733            0.0000000000
      7796      2599  TIP3      H1            -27.1537349752       18.8489206768       -4.3781871492  WZ2       1733            0.0000000000
      7797      2599  TIP3      H2            -26.9846849752       17.7025206768       -3.4039971492  WZ2       1733            0.0000000000
      7798      2600  TIP3      OH2           -23.9721249752       14.0934306768       -4.4440671492  WZ2       1735            0.0000000000
      7799      2600  TIP3      H1            -24.3979949752       13.8656006768       -3.6176671492  WZ2       1735            0.0000000000
      7800      2600  TIP3      H2            -23.3915449752       13.3546106768       -4.6265371492  WZ2       1735            0.0000000000
      7801      2601  TIP3      OH2           -21.7692349752       15.0224806768      -15.3701671492  WZ2       1736            0.0000000000
      7802      2601  TIP3      H1            -21.4159249752       14.6424606768      -14.5658171492  WZ2       1736            0.0000000000
      7803      2601  TIP3      H2            -22.7178849752       14.9289606768      -15.2832371492  WZ2       1736            0.0000000000
      7804      2602  TIP3      OH2           -21.3137049752       18.6453806768       -1.9745871492  WZ2       1737            0.0000000000
      7805      2602  TIP3      H1            -21.9153849752       18.0896706768       -2.4699571492  WZ2       1737            0.0000000000
      7806      2602  TIP3      H2            -21.0323349752       19.3123606768       -2.6008471492  WZ2       1737            0.0000000000
      7807      2603  TIP3      OH2           -17.2657949752       19.5017306768      -15.1691471492  WZ2       1738            0.0000000000
      7808      2603  TIP3      H1            -16.5220049752       20.0877806768      -15.3089871492  WZ2       1738            0.0000000000
      7809      2603  TIP3      H2            -17.9599849752       20.0703106768      -14.8359071492  WZ2       1738            0.0000000000
      7810      2604  TIP3      OH2           -20.9033049752       13.6946806768      -13.1433771492  WZ2       1740            0.0000000000
      7811      2604  TIP3      H1            -21.1805449752       12.9666106768      -12.5872671492  WZ2       1740            0.0000000000
      7812      2604  TIP3      H2            -19.9760049752       13.8138806768      -12.9381171492  WZ2       1740            0.0000000000
      7813      2605  TIP3      OH2           -27.6784549752       16.1340906768      -16.9231671492  WZ2       1742            0.0000000000
      7814      2605  TIP3      H1            -27.4394749752       15.3859006768      -17.4702771492  WZ2       1742            0.0000000000
      7815      2605  TIP3      H2            -27.9473249752       15.7462606768      -16.0903871492  WZ2       1742            0.0000000000
      7816      2606  TIP3      OH2           -28.7413949752       15.7044706768      -14.4669071492  WZ2       1743            0.0000000000
      7817      2606  TIP3      H1            -28.5945949752       15.1844506768      -13.6768171492  WZ2       1743            0.0000000000
      7818      2606  TIP3      H2            -28.7442249752       16.6112306768      -14.1603171492  WZ2       1743            0.0000000000
      7819      2607  TIP3      OH2           -24.4567749752        5.6191806768       -3.6774671492  WZ2       1745            0.0000000000
      7820      2607  TIP3      H1            -23.7579849752        5.6930506768       -3.0274971492  WZ2       1745            0.0000000000
      7821      2607  TIP3      H2            -24.8376349752        4.7546806768       -3.5231771492  WZ2       1745            0.0000000000
      7822      2608  TIP3      OH2           -23.6722849752        5.2713506768      -12.5802371492  WZ2       1746            0.0000000000
      7823      2608  TIP3      H1            -23.4524549752        5.7428906768      -13.3836971492  WZ2       1746            0.0000000000
      7824      2608  TIP3      H2            -23.1138849752        5.6656106768      -11.9101771492  WZ2       1746            0.0000000000
      7825      2609  TIP3      OH2           -26.0036749752       17.4018306768      -13.7174871492  WZ2       1747            0.0000000000
      7826      2609  TIP3      H1            -26.8200649752       17.8988006768      -13.6650571492  WZ2       1747            0.0000000000
      7827      2609  TIP3      H2            -25.4740449752       17.8771806768      -14.3576071492  WZ2       1747            0.0000000000
      7828      2610  TIP3      OH2           -26.4722949752        6.9992306768      -11.7453971492  WZ2       1748            0.0000000000
      7829      2610  TIP3      H1            -25.6600349752        7.5035506768      -11.6992271492  WZ2       1748            0.0000000000
      7830      2610  TIP3      H2            -26.7169949752        6.8542006768      -10.8314371492  WZ2       1748            0.0000000000
      7831      2611  TIP3      OH2           -25.9366549752        7.9855006768       -2.5607371492  WZ2       1749            0.0000000000
      7832      2611  TIP3      H1            -25.8176249752        8.5590406768       -1.8036971492  WZ2       1749            0.0000000000
      7833      2611  TIP3      H2            -25.2811949752        7.2974406768       -2.4459571492  WZ2       1749            0.0000000000
      7834      2612  TIP3      OH2           -25.5886249752        4.0805306768      -10.8072871492  WZ2       1750            0.0000000000
      7835      2612  TIP3      H1            -25.9352749752        4.6975906768      -10.1628571492  WZ2       1750            0.0000000000
      7836      2612  TIP3      H2            -24.9299349752        4.5811006768      -11.2887371492  WZ2       1750            0.0000000000
      7837      2613  TIP3      OH2           -29.9309249752        5.1434706768      -14.1200371492  WZ2       1752            0.0000000000
      7838      2613  TIP3      H1            -30.0144449752        6.0317806768      -13.7733971492  WZ2       1752            0.0000000000
      7839      2613  TIP3      H2            -29.0408949752        4.8781406768      -13.8883571492  WZ2       1752            0.0000000000
      7840      2614  TIP3      OH2           -19.7320749752        5.8925306768       -1.7257671492  WZ2       1753            0.0000000000
      7841      2614  TIP3      H1            -20.6484949752        6.1547006768       -1.8133971492  WZ2       1753            0.0000000000
      7842      2614  TIP3      H2            -19.3965749752        5.8894306768       -2.6222371492  WZ2       1753            0.0000000000
      7843      2615  TIP3      OH2           -21.1299749752        9.6426306768       -7.6300371492  WZ2       1754            0.0000000000
      7844      2615  TIP3      H1            -21.9275349752        9.2276506768       -7.9585371492  WZ2       1754            0.0000000000
      7845      2615  TIP3      H2            -20.6848649752        8.9520006768       -7.1389871492  WZ2       1754            0.0000000000
      7846      2616  TIP3      OH2           -20.0435149752       18.8988806768       -6.0076871492  WZ2       1757            0.0000000000
      7847      2616  TIP3      H1            -20.1990849752       19.5773206768       -6.6647571492  WZ2       1757            0.0000000000
      7848      2616  TIP3      H2            -19.1108749752       18.9708106768       -5.8046271492  WZ2       1757            0.0000000000
      7849      2617  TIP3      OH2           -32.5482749752        3.0166506768       -7.2705471492  WZ2       1758            0.0000000000
      7850      2617  TIP3      H1            -32.7772949752        3.0759006768       -8.1980471492  WZ2       1758            0.0000000000
      7851      2617  TIP3      H2            -32.9909349752        2.2252006768       -6.9641371492  WZ2       1758            0.0000000000
      7852      2618  TIP3      OH2           -25.6402749752       17.9972306768      -16.7845671492  WZ2       1762            0.0000000000
      7853      2618  TIP3      H1            -26.2841749752       17.3660906768      -16.4631971492  WZ2       1762            0.0000000000
      7854      2618  TIP3      H2            -24.8784449752       17.4660306768      -17.0162171492  WZ2       1762            0.0000000000
      7855      2619  TIP3      OH2           -23.1553649752       16.8692806768        0.5694028508  WZ2       1763            0.0000000000
      7856      2619  TIP3      H1            -23.5064149752       16.0125806768        0.8124428508  WZ2       1763            0.0000000000
      7857      2619  TIP3      H2            -22.4290449752       17.0119506768        1.1763028508  WZ2       1763            0.0000000000
      7858      2620  TIP3      OH2           -21.0359849752       17.8142206768      -16.5507671492  WZ2       1764            0.0000000000
      7859      2620  TIP3      H1            -20.7529449752       17.0197406768      -16.0980771492  WZ2       1764            0.0000000000
      7860      2620  TIP3      H2            -20.2961949752       18.0473206768      -17.1116571492  WZ2       1764            0.0000000000
      7861      2621  TIP3      OH2           -27.7670149752       13.3499506768        0.6069028508  WZ2       1767            0.0000000000
      7862      2621  TIP3      H1            -28.0956349752       13.6207606768       -0.2503571492  WZ2       1767            0.0000000000
      7863      2621  TIP3      H2            -27.6151949752       12.4089306768        0.5194028508  WZ2       1767            0.0000000000
      7864      2622  TIP3      OH2           -24.7289149752       14.7708806768      -16.9574771492  WZ2       1768            0.0000000000
      7865      2622  TIP3      H1            -24.9975049752       14.9510906768      -16.0565871492  WZ2       1768            0.0000000000
      7866      2622  TIP3      H2            -24.9353549752       13.8455006768      -17.0888971492  WZ2       1768            0.0000000000
      7867      2623  TIP3      OH2           -22.0324949752       13.2656806768       -2.0098671492  WZ2       1769            0.0000000000
      7868      2623  TIP3      H1            -21.2870149752       13.8540506768       -2.1294671492  WZ2       1769            0.0000000000
      7869      2623  TIP3      H2            -22.7898149752       13.8476506768       -1.9465571492  WZ2       1769            0.0000000000
      7870      2624  TIP3      OH2           -28.9318749752       11.6963306768      -14.3874771492  WZ2       1771            0.0000000000
      7871      2624  TIP3      H1            -29.3916749752       11.2121606768      -13.7016271492  WZ2       1771            0.0000000000
      7872      2624  TIP3      H2            -28.6770049752       11.0278706768      -15.0234271492  WZ2       1771            0.0000000000
      7873      2625  TIP3      OH2           -29.6429449752        9.5890406768       -2.0315171492  WZ2       1772            0.0000000000
      7874      2625  TIP3      H1            -30.2613349752       10.2637006768       -1.7510471492  WZ2       1772            0.0000000000
      7875      2625  TIP3      H2            -29.2988249752        9.9104306768       -2.8648971492  WZ2       1772            0.0000000000
      7876      2626  TIP3      OH2           -27.8608349752        9.9395106768      -16.1251571492  WZ2       1773            0.0000000000
      7877      2626  TIP3      H1            -28.0413349752        9.7846306768      -17.0523271492  WZ2       1773            0.0000000000
      7878      2626  TIP3      H2            -26.9107849752       10.0473806768      -16.0803671492  WZ2       1773            0.0000000000
      7879      2627  TIP3      OH2           -24.6231249752       12.0605706768        1.2459628508  WZ2       1774            0.0000000000
      7880      2627  TIP3      H1            -23.6700049752       12.1444806768        1.2185628508  WZ2       1774            0.0000000000
      7881      2627  TIP3      H2            -24.7836649752       11.3487506768        1.8654528508  WZ2       1774            0.0000000000
      7882      2628  TIP3      OH2           -18.4710049752       12.2939306768      -16.6793471492  WZ2       1775            0.0000000000
      7883      2628  TIP3      H1            -18.7445249752       11.8694806768      -17.4925171492  WZ2       1775            0.0000000000
      7884      2628  TIP3      H2            -18.4315949752       13.2253806768      -16.8963071492  WZ2       1775            0.0000000000
      7885      2629  TIP3      OH2           -29.3035749752        6.9441206768       -0.9492071492  WZ2       1776            0.0000000000
      7886      2629  TIP3      H1            -29.1534849752        6.2152506768       -1.5512371492  WZ2       1776            0.0000000000
      7887      2629  TIP3      H2            -29.3013349752        7.7212906768       -1.5079871492  WZ2       1776            0.0000000000
      7888      2630  TIP3      OH2           -28.8910049752        5.3137006768       -3.4564671492  WZ2       1777            0.0000000000
      7889      2630  TIP3      H1            -28.3552549752        5.7653706768       -4.1085371492  WZ2       1777            0.0000000000
      7890      2630  TIP3      H2            -29.7430449752        5.2056806768       -3.8790571492  WZ2       1777            0.0000000000
      7891      2631  TIP3      OH2           -27.3091649752       10.7533206768       -3.2169471492  WZ2       1778            0.0000000000
      7892      2631  TIP3      H1            -26.5586849752       10.5970706768       -3.7901671492  WZ2       1778            0.0000000000
      7893      2631  TIP3      H2            -27.6483349752       11.6049806768       -3.4923971492  WZ2       1778            0.0000000000
      7894      2632  TIP3      OH2           -22.8935449752        8.5685006768        1.8115828508  WZ2       1779            0.0000000000
      7895      2632  TIP3      H1            -22.7014149752        7.6374406768        1.7000328508  WZ2       1779            0.0000000000
      7896      2632  TIP3      H2            -22.0359149752        8.9934506768        1.8011228508  WZ2       1779            0.0000000000
      7897      2633  TIP3      OH2           -21.5768249752       11.3570206768       -0.1111471492  WZ2       1780            0.0000000000
      7898      2633  TIP3      H1            -21.8583249752       12.0664806768       -0.6887671492  WZ2       1780            0.0000000000
      7899      2633  TIP3      H2            -20.6343949752       11.2843206768       -0.2620271492  WZ2       1780            0.0000000000
      7900      2634  TIP3      OH2           -30.8249449752        8.1424706768        0.9623528508  WZ2       1781            0.0000000000
      7901      2634  TIP3      H1            -31.5920449752        7.6099506768        0.7521128508  WZ2       1781            0.0000000000
      7902      2634  TIP3      H2            -30.1460449752        7.8325106768        0.3629828508  WZ2       1781            0.0000000000
      7903      2635  TIP3      OH2           -28.0854549752        2.7702706768       -3.0251071492  WZ2       1782            0.0000000000
      7904      2635  TIP3      H1            -28.1834949752        3.7165906768       -3.1304871492  WZ2       1782            0.0000000000
      7905      2635  TIP3      H2            -28.8278349752        2.3976506768       -3.5007571492  WZ2       1782            0.0000000000
      7906      2636  TIP3      OH2           -26.8214049752        7.0918106768        0.5387328508  WZ2       1783            0.0000000000
      7907      2636  TIP3      H1            -27.0568649752        6.8724806768        1.4402228508  WZ2       1783            0.0000000000
      7908      2636  TIP3      H2            -27.6047149752        6.8849306768        0.0289828508  WZ2       1783            0.0000000000
      7909      2637  TIP3      OH2           -24.1057449752        6.2191606768       -0.3859171492  WZ2       1784            0.0000000000
      7910      2637  TIP3      H1            -25.0532049752        6.2511306768       -0.2535871492  WZ2       1784            0.0000000000
      7911      2637  TIP3      H2            -23.7930749752        5.5938706768        0.2679028508  WZ2       1784            0.0000000000
      7912      2638  TIP3      OH2           -22.4715949752        4.8532706768        1.6192728508  WZ2       1785            0.0000000000
      7913      2638  TIP3      H1            -22.5684149752        3.9010006768        1.6134628508  WZ2       1785            0.0000000000
      7914      2638  TIP3      H2            -22.7932849752        5.1219506768        2.4798228508  WZ2       1785            0.0000000000
      7915      2639  TIP3      OH2           -27.8636449752        2.0640106768       -0.3538271492  WZ2       1787            0.0000000000
      7916      2639  TIP3      H1            -27.1518049752        1.4242306768       -0.3679171492  WZ2       1787            0.0000000000
      7917      2639  TIP3      H2            -27.9646049752        2.3308406768       -1.2675171492  WZ2       1787            0.0000000000
      7918      2640  TIP3      OH2           -27.5098949752        3.7468506768        1.6998028508  WZ2       1788            0.0000000000
      7919      2640  TIP3      H1            -27.6416749752        3.2712306768        0.8796528508  WZ2       1788            0.0000000000
      7920      2640  TIP3      H2            -28.1091549752        4.4912106768        1.6445128508  WZ2       1788            0.0000000000
      7921      2641  TIP3      OH2           -17.3277149752       19.5494506768       -5.7784971492  WZ2       1793            0.0000000000
      7922      2641  TIP3      H1            -17.3490449752       19.7342906768       -4.8395571492  WZ2       1793            0.0000000000
      7923      2641  TIP3      H2            -16.6370949752       20.1178506768       -6.1193571492  WZ2       1793            0.0000000000
      7924      2642  TIP3      OH2           -17.7644249752       19.1165606768       -2.8565871492  WZ2       1794            0.0000000000
      7925      2642  TIP3      H1            -18.2515549752       18.3809706768       -3.2278471492  WZ2       1794            0.0000000000
      7926      2642  TIP3      H2            -17.2151549752       18.7229506768       -2.1786471492  WZ2       1794            0.0000000000
      7927      2643  TIP3      OH2           -19.3136949752       14.9063706768        1.7814428508  WZ2       1795            0.0000000000
      7928      2643  TIP3      H1            -20.1795849752       14.8013406768        2.1756728508  WZ2       1795            0.0000000000
      7929      2643  TIP3      H2            -18.9371049752       15.6647006768        2.2279128508  WZ2       1795            0.0000000000
      7930      2644  TIP3      OH2           -18.0127249752       13.1627406768      -12.7043071492  WZ2       1796            0.0000000000
      7931      2644  TIP3      H1            -17.1625849752       13.5838306768      -12.5771471492  WZ2       1796            0.0000000000
      7932      2644  TIP3      H2            -18.0072149752       12.4227506768      -12.0971671492  WZ2       1796            0.0000000000
      7933      2645  TIP3      OH2           -17.6181649752       11.2164806768      -10.8807371492  WZ2       1797            0.0000000000
      7934      2645  TIP3      H1            -18.3447049752       10.7367406768      -10.4829771492  WZ2       1797            0.0000000000
      7935      2645  TIP3      H2            -17.0368349752       11.4219506768      -10.1485771492  WZ2       1797            0.0000000000
      7936      2646  TIP3      OH2           -17.8590449752       14.0012306768       -5.9329771492  WZ2       1798            0.0000000000
      7937      2646  TIP3      H1            -17.0256249752       13.6232306768       -6.2136171492  WZ2       1798            0.0000000000
      7938      2646  TIP3      H2            -17.7470149752       14.9443506768       -6.0520671492  WZ2       1798            0.0000000000
      7939      2647  TIP3      OH2           -19.3728149752       16.8789806768       -3.6261371492  WZ2       1799            0.0000000000
      7940      2647  TIP3      H1            -20.0202849752       17.2041306768       -3.0006171492  WZ2       1799            0.0000000000
      7941      2647  TIP3      H2            -19.8904149752       16.4387506768       -4.3003071492  WZ2       1799            0.0000000000
      7942      2648  TIP3      OH2           -17.3498549752       11.1173306768      -14.4896071492  WZ2       1800            0.0000000000
      7943      2648  TIP3      H1            -17.8717449752       11.4737406768      -15.2085171492  WZ2       1800            0.0000000000
      7944      2648  TIP3      H2            -17.3829349752       11.7921106768      -13.8115171492  WZ2       1800            0.0000000000
      7945      2649  TIP3      OH2           -19.0009549752        8.3568906768      -15.9388971492  WZ2       1801            0.0000000000
      7946      2649  TIP3      H1            -18.9045149752        9.0235906768      -16.6189271492  WZ2       1801            0.0000000000
      7947      2649  TIP3      H2            -19.1409949752        7.5415206768      -16.4203471492  WZ2       1801            0.0000000000
      7948      2650  TIP3      OH2           -19.8314849752        9.7371306768      -10.3178671492  WZ2       1802            0.0000000000
      7949      2650  TIP3      H1            -19.9816049752        8.7919906768      -10.3380871492  WZ2       1802            0.0000000000
      7950      2650  TIP3      H2            -20.1850349752       10.0182706768       -9.4739571492  WZ2       1802            0.0000000000
      7951      2651  TIP3      OH2           -18.9751949752       11.7074606768       -0.6790371492  WZ2       1804            0.0000000000
      7952      2651  TIP3      H1            -18.3924649752       10.9726906768       -0.4873171492  WZ2       1804            0.0000000000
      7953      2651  TIP3      H2            -18.4112649752       12.4794906768       -0.6324571492  WZ2       1804            0.0000000000
      7954      2652  TIP3      OH2           -17.4784849752        9.6100406768        0.0055028508  WZ2       1805            0.0000000000
      7955      2652  TIP3      H1            -18.3418149752        9.2312506768       -0.1600271492  WZ2       1805            0.0000000000
      7956      2652  TIP3      H2            -16.8741149752        8.8715206768       -0.0689171492  WZ2       1805            0.0000000000
      7957      2653  TIP3      OH2           -19.7535749752        5.7648706768      -16.8213471492  WZ2       1806            0.0000000000
      7958      2653  TIP3      H1            -19.1429949752        5.3935506768      -16.1845271492  WZ2       1806            0.0000000000
      7959      2653  TIP3      H2            -20.5904249752        5.3435606768      -16.6253471492  WZ2       1806            0.0000000000
      7960      2654  TIP3      OH2           -20.1210049752        7.3197106768      -11.8553571492  WZ2       1807            0.0000000000
      7961      2654  TIP3      H1            -19.8412949752        6.4127506768      -11.7311871492  WZ2       1807            0.0000000000
      7962      2654  TIP3      H2            -19.3618349752        7.7538606768      -12.2444371492  WZ2       1807            0.0000000000
      7963      2655  TIP3      OH2           -19.5091749752        7.9014506768       -6.4194671492  WZ2       1808            0.0000000000
      7964      2655  TIP3      H1            -18.5763749752        8.1134406768       -6.4538671492  WZ2       1808            0.0000000000
      7965      2655  TIP3      H2            -19.7444249752        8.0026606768       -5.4971671492  WZ2       1808            0.0000000000
      7966      2656  TIP3      OH2           -19.4799849752        8.6379806768       -3.6435271492  WZ2       1809            0.0000000000
      7967      2656  TIP3      H1            -20.3228549752        8.9060206768       -3.2775471492  WZ2       1809            0.0000000000
      7968      2656  TIP3      H2            -19.0375549752        9.4601706768       -3.8544171492  WZ2       1809            0.0000000000
      7969      2657  TIP3      OH2           -17.1968249752        2.6180006768        1.7099728508  WZ2       1811            0.0000000000
      7970      2657  TIP3      H1            -16.8471249752        1.9643506768        1.1044428508  WZ2       1811            0.0000000000
      7971      2657  TIP3      H2            -17.0498749752        3.4554106768        1.2702328508  WZ2       1811            0.0000000000
      7972      2658  TIP3      OH2           -19.5075249752        4.5826406768      -11.8071571492  WZ2       1812            0.0000000000
      7973      2658  TIP3      H1            -19.3250249752        4.1337906768      -10.9816571492  WZ2       1812            0.0000000000
      7974      2658  TIP3      H2            -20.1072349752        3.9980806768      -12.2706971492  WZ2       1812            0.0000000000
      7975      2659  TIP3      OH2           -17.6771049752        4.7274606768        0.0591028508  WZ2       1815            0.0000000000
      7976      2659  TIP3      H1            -18.5945349752        4.9981706768        0.0234528508  WZ2       1815            0.0000000000
      7977      2659  TIP3      H2            -17.5541649752        4.1923006768       -0.7249271492  WZ2       1815            0.0000000000
      7978      2660  TIP3      OH2           -17.6409049752        4.6504506768      -15.2791271492  WZ2       1816            0.0000000000
      7979      2660  TIP3      H1            -17.2286449752        3.9290206768      -15.7543271492  WZ2       1816            0.0000000000
      7980      2660  TIP3      H2            -16.9592549752        5.3199106768      -15.2206971492  WZ2       1816            0.0000000000
      7981      2661  TIP3      OH2           -20.5891149752       19.6393906768      -10.2063171492  WZ2       1818            0.0000000000
      7982      2661  TIP3      H1            -19.9368249752       19.2916006768      -10.8144071492  WZ2       1818            0.0000000000
      7983      2661  TIP3      H2            -20.0787349752       20.1277106768       -9.5603471492  WZ2       1818            0.0000000000
      7984      2662  TIP3      OH2           -25.9389349752       18.9416506768       -0.4454571492  WZ2       1822            0.0000000000
      7985      2662  TIP3      H1            -25.7541849752       18.6082606768        0.4325728508  WZ2       1822            0.0000000000
      7986      2662  TIP3      H2            -25.0924849752       19.2515106768       -0.7675371492  WZ2       1822            0.0000000000
      7987      2663  TIP3      OH2           -23.5938949752       20.2275406768       -1.2013171492  WZ2       1823            0.0000000000
      7988      2663  TIP3      H1            -22.9170049752       19.5947706768       -1.4413971492  WZ2       1823            0.0000000000
      7989      2663  TIP3      H2            -23.2720149752       20.6285906768       -0.3939871492  WZ2       1823            0.0000000000
      7990      2664  TIP3      OH2           -18.6765149752        2.8170906768       -2.1218171492  WZ2       1824            0.0000000000
      7991      2664  TIP3      H1            -19.4891649752        3.1421206768       -2.5093471492  WZ2       1824            0.0000000000
      7992      2664  TIP3      H2            -18.4436649752        2.0569406768       -2.6549071492  WZ2       1824            0.0000000000
      7993      2665  TIP3      OH2           -25.6705849752       20.2873206768       -5.1519771492  WZ2       1827            0.0000000000
      7994      2665  TIP3      H1            -26.1271849752       20.8162906768       -5.8061371492  WZ2       1827            0.0000000000
      7995      2665  TIP3      H2            -25.5077849752       20.8904606768       -4.4267471492  WZ2       1827            0.0000000000
      7996      2666  TIP3      OH2           -23.3429549752       19.1652806768       -4.2069471492  WZ2       1828            0.0000000000
      7997      2666  TIP3      H1            -24.2475849752       19.3303006768       -4.4727371492  WZ2       1828            0.0000000000
      7998      2666  TIP3      H2            -22.9140949752       20.0185006768       -4.2726071492  WZ2       1828            0.0000000000
      7999      2667  TIP3      OH2           -20.7387649752       20.7351906768       -3.9121671492  WZ2       1829            0.0000000000
      8000      2667  TIP3      H1            -20.9205649752       21.6510806768       -4.1226771492  WZ2       1829            0.0000000000
      8001      2667  TIP3      H2            -20.5619849752       20.3249006768       -4.7587071492  WZ2       1829            0.0000000000
      8002      2668  TIP3      OH2           -25.2466649752        4.2661506768       -7.7989971492  WZ2       1833            0.0000000000
      8003      2668  TIP3      H1            -25.9209849752        3.6367106768       -7.5434171492  WZ2       1833            0.0000000000
      8004      2668  TIP3      H2            -24.6827449752        3.7820406768       -8.4022071492  WZ2       1833            0.0000000000
      8005      2669  TIP3      OH2           -20.1039449752        2.3735506768       -7.6862871492  WZ2       1834            0.0000000000
      8006      2669  TIP3      H1            -19.5001849752        2.9210906768       -8.1881871492  WZ2       1834            0.0000000000
      8007      2669  TIP3      H2            -20.9737449752        2.6925906768       -7.9268771492  WZ2       1834            0.0000000000
      8008      2670  TIP3      OH2           -18.3769049752        3.5124206768       -9.3531971492  WZ2       1835            0.0000000000
      8009      2670  TIP3      H1            -17.7651549752        2.9979906768       -9.8798371492  WZ2       1835            0.0000000000
      8010      2670  TIP3      H2            -17.9945649752        4.3896306768       -9.3297571492  WZ2       1835            0.0000000000
      8011      2671  TIP3      OH2           -32.9199149752        2.9001806768       -9.9770071492  WZ2       1836            0.0000000000
      8012      2671  TIP3      H1            -33.6969349752        2.6656706768      -10.4844171492  WZ2       1836            0.0000000000
      8013      2671  TIP3      H2            -32.3895549752        2.1033906768       -9.9682071492  WZ2       1836            0.0000000000
      8014      2672  TIP3      OH2           -28.3406549752        2.8268906768      -10.1636971492  WZ2       1838            0.0000000000
      8015      2672  TIP3      H1            -27.4663149752        3.2153206768      -10.1932671492  WZ2       1838            0.0000000000
      8016      2672  TIP3      H2            -28.4765749752        2.6116706768       -9.2409771492  WZ2       1838            0.0000000000
      8017      2673  TIP3      OH2           -22.7838149752        2.8568706768       -8.5145271492  WZ2       1839            0.0000000000
      8018      2673  TIP3      H1            -22.7076549752        2.9520306768       -9.4639271492  WZ2       1839            0.0000000000
      8019      2673  TIP3      H2            -23.0588949752        1.9491606768       -8.3856171492  WZ2       1839            0.0000000000
      8020      2674  TIP3      OH2           -21.4305549752        2.8826506768      -12.8220271492  WZ2       1840            0.0000000000
      8021      2674  TIP3      H1            -22.1334449752        3.4975706768      -13.0318871492  WZ2       1840            0.0000000000
      8022      2674  TIP3      H2            -21.8754149752        2.0453206768      -12.6909371492  WZ2       1840            0.0000000000
      8023      2675  TIP3      OH2           -32.2226649752        4.6141406768      -15.7309871492  WZ2       1842            0.0000000000
      8024      2675  TIP3      H1            -31.7313249752        3.9843806768      -16.2584371492  WZ2       1842            0.0000000000
      8025      2675  TIP3      H2            -31.5990349752        4.9100806768      -15.0678671492  WZ2       1842            0.0000000000
      8026      2676  TIP3      OH2           -27.1966549752        4.9072906768      -13.2739371492  WZ2       1843            0.0000000000
      8027      2676  TIP3      H1            -27.0185249752        4.2606106768      -12.5910771492  WZ2       1843            0.0000000000
      8028      2676  TIP3      H2            -27.2500349752        5.7410606768      -12.8068271492  WZ2       1843            0.0000000000
      8029      2677  TIP3      OH2           -25.3182749752       19.8557006768      -14.8782671492  WZ2       1844            0.0000000000
      8030      2677  TIP3      H1            -24.4522549752       20.2224406768      -15.0564471492  WZ2       1844            0.0000000000
      8031      2677  TIP3      H2            -25.5649949752       19.4165006768      -15.6921871492  WZ2       1844            0.0000000000
      8032      2678  TIP3      OH2           -18.6093149752       19.4187306768      -12.1991571492  WZ2       1845            0.0000000000
      8033      2678  TIP3      H1            -18.8036049752       18.6709406768      -12.7641971492  WZ2       1845            0.0000000000
      8034      2678  TIP3      H2            -18.6483049752       20.1767406768      -12.7823671492  WZ2       1845            0.0000000000
      8035      2679  TIP3      OH2           -32.9621149752        3.4143706768       -0.4593871492  WZ2       1846            0.0000000000
      8036      2679  TIP3      H1            -33.3282949752        2.6486306768       -0.0169171492  WZ2       1846            0.0000000000
      8037      2679  TIP3      H2            -32.0492649752        3.4433906768       -0.1728771492  WZ2       1846            0.0000000000
      8038      2680  TIP3      OH2           -30.9890349752        2.7648106768        1.0763228508  WZ2       1847            0.0000000000
      8039      2680  TIP3      H1            -30.0906749752        2.4908306768        0.8916628508  WZ2       1847            0.0000000000
      8040      2680  TIP3      H2            -31.3757249752        2.0224106768        1.5405828508  WZ2       1847            0.0000000000
      8041      2681  TIP3      OH2           -22.5678049752        2.0973406768        1.2586028508  WZ2       1849            0.0000000000
      8042      2681  TIP3      H1            -22.4910849752        1.6714106768        2.1123728508  WZ2       1849            0.0000000000
      8043      2681  TIP3      H2            -21.6741449752        2.1108106768        0.9159528508  WZ2       1849            0.0000000000
      8044      2682  TIP3      OH2           -19.3916949752       18.1699706768       -0.0489771492  WZ2       1850            0.0000000000
      8045      2682  TIP3      H1            -20.1735049752       17.9837706768       -0.5689171492  WZ2       1850            0.0000000000
      8046      2682  TIP3      H2            -19.4637049752       19.0994006768        0.1682728508  WZ2       1850            0.0000000000
      8047      2683  TIP3      OH2            -4.9856549752       12.0564106768      -10.0182571492  WZ2       1851            0.0000000000
      8048      2683  TIP3      H1             -4.8965449752       13.0002306768      -10.1505471492  WZ2       1851            0.0000000000
      8049      2683  TIP3      H2             -5.6238949752       11.7810506768      -10.6763171492  WZ2       1851            0.0000000000
      8050      2684  TIP3      OH2            -6.0525249752       11.3114806768       -6.5994371492  WZ2       1852            0.0000000000
      8051      2684  TIP3      H1             -6.0907749752       10.6651106768       -5.8944771492  WZ2       1852            0.0000000000
      8052      2684  TIP3      H2             -6.3748749752       10.8449206768       -7.3705671492  WZ2       1852            0.0000000000
      8053      2685  TIP3      OH2           -13.6840249752       10.9256906768       -5.0064471492  WZ2       1853            0.0000000000
      8054      2685  TIP3      H1            -13.6428149752       10.3000206768       -4.2832071492  WZ2       1853            0.0000000000
      8055      2685  TIP3      H2            -12.9812549752       11.5495506768       -4.8244071492  WZ2       1853            0.0000000000
      8056      2686  TIP3      OH2            -2.3465049752       14.2505206768       -8.2979271492  WZ2       1854            0.0000000000
      8057      2686  TIP3      H1             -2.7872349752       13.5301206768       -7.8473671492  WZ2       1854            0.0000000000
      8058      2686  TIP3      H2             -2.3595349752       14.9712406768       -7.6681571492  WZ2       1854            0.0000000000
      8059      2687  TIP3      OH2           -12.7607149752       15.3755806768       -6.4715371492  WZ2       1855            0.0000000000
      8060      2687  TIP3      H1            -13.1301949752       14.5736306768       -6.8411071492  WZ2       1855            0.0000000000
      8061      2687  TIP3      H2            -11.8196049752       15.2070706768       -6.4251971492  WZ2       1855            0.0000000000
      8062      2688  TIP3      OH2           -16.1506649752        9.0358406768      -11.0786571492  WZ2       1856            0.0000000000
      8063      2688  TIP3      H1            -16.5983249752        9.8817106768      -11.0970071492  WZ2       1856            0.0000000000
      8064      2688  TIP3      H2            -16.7115449752        8.4562606768      -11.5941471492  WZ2       1856            0.0000000000
      8065      2689  TIP3      OH2           -15.4400549752       11.1978006768       -8.9528571492  WZ2       1857            0.0000000000
      8066      2689  TIP3      H1            -15.2267049752       10.4279606768       -8.4255571492  WZ2       1857            0.0000000000
      8067      2689  TIP3      H2            -14.7022949752       11.2874706768       -9.5560971492  WZ2       1857            0.0000000000
      8068      2690  TIP3      OH2            -5.2349549752       19.3546906768       -8.0858871492  WZ2       1858            0.0000000000
      8069      2690  TIP3      H1             -4.6153149752       18.6781606768       -8.3589671492  WZ2       1858            0.0000000000
      8070      2690  TIP3      H2             -5.4432149752       19.1367706768       -7.1773971492  WZ2       1858            0.0000000000
      8071      2691  TIP3      OH2            -7.6630849752       13.7436206768       -6.1933371492  WZ2       1859            0.0000000000
      8072      2691  TIP3      H1             -7.3592949752       13.0577606768       -6.7879271492  WZ2       1859            0.0000000000
      8073      2691  TIP3      H2             -6.9416849752       13.8624906768       -5.5755371492  WZ2       1859            0.0000000000
      8074      2692  TIP3      OH2             0.9998950248        5.3451506768       -5.3327171492  WZ2       1860            0.0000000000
      8075      2692  TIP3      H1              1.0491150248        5.9552706768       -4.5968071492  WZ2       1860            0.0000000000
      8076      2692  TIP3      H2              1.4254050248        5.8062406768       -6.0556071492  WZ2       1860            0.0000000000
      8077      2693  TIP3      OH2            -4.5223849752        8.1378606768       -5.8658571492  WZ2       1861            0.0000000000
      8078      2693  TIP3      H1             -4.3797949752        7.1915606768       -5.8456971492  WZ2       1861            0.0000000000
      8079      2693  TIP3      H2             -4.6284849752        8.3448406768       -6.7943671492  WZ2       1861            0.0000000000
      8080      2694  TIP3      OH2           -11.3675549752        6.2395006768       -8.5933771492  WZ2       1862            0.0000000000
      8081      2694  TIP3      H1            -11.3244449752        7.0993506768       -9.0117471492  WZ2       1862            0.0000000000
      8082      2694  TIP3      H2            -11.8251449752        5.6869706768       -9.2270571492  WZ2       1862            0.0000000000
      8083      2695  TIP3      OH2            -3.6452849752        6.3700606768      -10.1925471492  WZ2       1863            0.0000000000
      8084      2695  TIP3      H1             -2.9988549752        6.0413806768       -9.5677871492  WZ2       1863            0.0000000000
      8085      2695  TIP3      H2             -3.1353449752        6.8879606768      -10.8154071492  WZ2       1863            0.0000000000
      8086      2696  TIP3      OH2           -14.7474049752        8.6360806768       -7.8312371492  WZ2       1864            0.0000000000
      8087      2696  TIP3      H1            -14.0937449752        8.0862506768       -7.3992271492  WZ2       1864            0.0000000000
      8088      2696  TIP3      H2            -14.7234749752        8.3619806768       -8.7480371492  WZ2       1864            0.0000000000
      8089      2697  TIP3      OH2            -9.5909549752       10.1862106768       -8.6160871492  WZ2       1865            0.0000000000
      8090      2697  TIP3      H1             -8.9748549752        9.6597506768       -8.1066871492  WZ2       1865            0.0000000000
      8091      2697  TIP3      H2            -10.1770749752        9.5460806768       -9.0197271492  WZ2       1865            0.0000000000
      8092      2698  TIP3      OH2             1.3913550248        6.8230706768       -3.0967371492  WZ2       1866            0.0000000000
      8093      2698  TIP3      H1              0.7028150248        7.4811406768       -3.1920771492  WZ2       1866            0.0000000000
      8094      2698  TIP3      H2              1.4068150248        6.6258606768       -2.1601971492  WZ2       1866            0.0000000000
      8095      2699  TIP3      OH2           -12.5573649752        5.1573406768       -4.5192971492  WZ2       1867            0.0000000000
      8096      2699  TIP3      H1            -12.7761949752        5.6874006768       -5.2856971492  WZ2       1867            0.0000000000
      8097      2699  TIP3      H2            -13.2252749752        5.3838906768       -3.8721571492  WZ2       1867            0.0000000000
      8098      2700  TIP3      OH2            -5.1883849752       14.6574506768      -10.9753871492  WZ2       1868            0.0000000000
      8099      2700  TIP3      H1             -5.4838749752       14.3346806768      -11.8266971492  WZ2       1868            0.0000000000
      8100      2700  TIP3      H2             -5.5126049752       15.5571206768      -10.9341271492  WZ2       1868            0.0000000000
      8101      2701  TIP3      OH2            -9.9882249752       12.8329106768       -4.2319271492  WZ2       1869            0.0000000000
      8102      2701  TIP3      H1            -10.7283149752       13.4310606768       -4.1284071492  WZ2       1869            0.0000000000
      8103      2701  TIP3      H2             -9.2742749752       13.3868706768       -4.5475671492  WZ2       1869            0.0000000000
      8104      2702  TIP3      OH2            -1.8814449752        5.6609906768       -8.2119571492  WZ2       1870            0.0000000000
      8105      2702  TIP3      H1             -2.0966449752        4.8953306768       -7.6793571492  WZ2       1870            0.0000000000
      8106      2702  TIP3      H2             -1.2257049752        6.1334506768       -7.6991071492  WZ2       1870            0.0000000000
      8107      2703  TIP3      OH2           -12.9636349752        7.0495206768       -6.5670771492  WZ2       1871            0.0000000000
      8108      2703  TIP3      H1            -12.3500049752        7.6822806768       -6.1938371492  WZ2       1871            0.0000000000
      8109      2703  TIP3      H2            -12.4515649752        6.5770206768       -7.2233871492  WZ2       1871            0.0000000000
      8110      2704  TIP3      OH2           -11.5807949752       14.7972106768       -3.4447771492  WZ2       1872            0.0000000000
      8111      2704  TIP3      H1            -11.5860349752       15.6765606768       -3.8228471492  WZ2       1872            0.0000000000
      8112      2704  TIP3      H2            -12.4343849752       14.7136206768       -3.0197871492  WZ2       1872            0.0000000000
      8113      2705  TIP3      OH2           -15.4597049752       14.4680006768      -12.6628471492  WZ2       1873            0.0000000000
      8114      2705  TIP3      H1            -15.7316149752       14.6971006768      -13.5515571492  WZ2       1873            0.0000000000
      8115      2705  TIP3      H2            -15.4141349752       15.3058806768      -12.2023171492  WZ2       1873            0.0000000000
      8116      2706  TIP3      OH2            -1.8347349752       16.0895906768       -5.9499971492  WZ2       1874            0.0000000000
      8117      2706  TIP3      H1             -2.7763649752       16.1479806768       -5.7883071492  WZ2       1874            0.0000000000
      8118      2706  TIP3      H2             -1.5581249752       16.9956406768       -6.0870271492  WZ2       1874            0.0000000000
      8119      2707  TIP3      OH2            -1.5340349752        4.3761206768       -4.5326071492  WZ2       1875            0.0000000000
      8120      2707  TIP3      H1             -2.2701149752        4.9868306768       -4.5704771492  WZ2       1875            0.0000000000
      8121      2707  TIP3      H2             -0.8506349752        4.7910206768       -5.0589671492  WZ2       1875            0.0000000000
      8122      2708  TIP3      OH2            -8.5308949752        2.4628506768       -7.0668071492  WZ2       1876            0.0000000000
      8123      2708  TIP3      H1             -8.6484749752        1.5144506768       -7.1209771492  WZ2       1876            0.0000000000
      8124      2708  TIP3      H2             -9.3858849752        2.7954606768       -6.7936971492  WZ2       1876            0.0000000000
      8125      2709  TIP3      OH2            -3.5826149752       17.8709406768       -9.3248371492  WZ2       1877            0.0000000000
      8126      2709  TIP3      H1             -3.1573849752       17.1637306768       -9.8098771492  WZ2       1877            0.0000000000
      8127      2709  TIP3      H2             -3.2656149752       18.6722106768       -9.7416171492  WZ2       1877            0.0000000000
      8128      2710  TIP3      OH2            -2.4229649752       15.7717906768      -10.8161771492  WZ2       1878            0.0000000000
      8129      2710  TIP3      H1             -2.6804849752       15.0818006768      -11.4275871492  WZ2       1878            0.0000000000
      8130      2710  TIP3      H2             -2.3518849752       15.3289106768       -9.9705871492  WZ2       1878            0.0000000000
      8131      2711  TIP3      OH2            -0.7369449752       14.3384606768       -2.3388271492  WZ2       1879            0.0000000000
      8132      2711  TIP3      H1             -0.5973149752       13.7467106768       -3.0781271492  WZ2       1879            0.0000000000
      8133      2711  TIP3      H2             -0.5696649752       15.2110506768       -2.6949471492  WZ2       1879            0.0000000000
      8134      2712  TIP3      OH2            -6.2644049752       11.3004106768      -12.5662271492  WZ2       1880            0.0000000000
      8135      2712  TIP3      H1             -6.9758549752       11.8353806768      -12.9181771492  WZ2       1880            0.0000000000
      8136      2712  TIP3      H2             -5.5734449752       11.3556206768      -13.2263371492  WZ2       1880            0.0000000000
      8137      2713  TIP3      OH2            -6.2104849752        9.7578406768      -15.5277271492  WZ2       1881            0.0000000000
      8138      2713  TIP3      H1             -5.5094949752        9.7805306768      -14.8763271492  WZ2       1881            0.0000000000
      8139      2713  TIP3      H2             -5.9081949752        9.1298106768      -16.1837971492  WZ2       1881            0.0000000000
      8140      2714  TIP3      OH2             1.1049850248       10.6782606768       -4.2727871492  WZ2       1882            0.0000000000
      8141      2714  TIP3      H1              0.4523950248       11.3728206768       -4.1836971492  WZ2       1882            0.0000000000
      8142      2714  TIP3      H2              1.5700150248       10.8883506768       -5.0826271492  WZ2       1882            0.0000000000
      8143      2715  TIP3      OH2            -2.8586349752       11.5097406768      -11.6146371492  WZ2       1883            0.0000000000
      8144      2715  TIP3      H1             -3.5905349752       11.7381106768      -11.0415771492  WZ2       1883            0.0000000000
      8145      2715  TIP3      H2             -2.4114149752       10.7960106768      -11.1598871492  WZ2       1883            0.0000000000
      8146      2716  TIP3      OH2            -2.9612849752        9.6840006768       -2.5469371492  WZ2       1884            0.0000000000
      8147      2716  TIP3      H1             -2.8813749752       10.4474406768       -1.9750871492  WZ2       1884            0.0000000000
      8148      2716  TIP3      H2             -3.5625149752        9.9632406768       -3.2374271492  WZ2       1884            0.0000000000
      8149      2717  TIP3      OH2           -11.2132649752       12.1403606768       -9.7321371492  WZ2       1885            0.0000000000
      8150      2717  TIP3      H1            -11.5437449752       11.7697006768      -10.5504371492  WZ2       1885            0.0000000000
      8151      2717  TIP3      H2            -10.6248549752       11.4697606768       -9.3853071492  WZ2       1885            0.0000000000
      8152      2718  TIP3      OH2            -9.8465149752       15.5684206768       -7.0509171492  WZ2       1886            0.0000000000
      8153      2718  TIP3      H1             -9.9413849752       14.9897306768       -7.8074571492  WZ2       1886            0.0000000000
      8154      2718  TIP3      H2             -9.1171549752       15.1969906768       -6.5546371492  WZ2       1886            0.0000000000
      8155      2719  TIP3      OH2           -10.8467149752       10.9089206768       -6.0986371492  WZ2       1887            0.0000000000
      8156      2719  TIP3      H1            -10.2814649752       11.0303406768       -6.8615171492  WZ2       1887            0.0000000000
      8157      2719  TIP3      H2            -10.5278249752       11.5464206768       -5.4597871492  WZ2       1887            0.0000000000
      8158      2720  TIP3      OH2            -4.5374949752       16.4121106768       -5.3645871492  WZ2       1888            0.0000000000
      8159      2720  TIP3      H1             -4.7778349752       17.0744206768       -4.7166671492  WZ2       1888            0.0000000000
      8160      2720  TIP3      H2             -4.7356749752       15.5776306768       -4.9396271492  WZ2       1888            0.0000000000
      8161      2721  TIP3      OH2            -9.9666449752       15.3081906768       -1.3814471492  WZ2       1889            0.0000000000
      8162      2721  TIP3      H1            -10.2778949752       16.0905106768       -0.9261271492  WZ2       1889            0.0000000000
      8163      2721  TIP3      H2            -10.6166249752       15.1551006768       -2.0672471492  WZ2       1889            0.0000000000
      8164      2722  TIP3      OH2            -3.9876849752       10.6720306768      -13.9295171492  WZ2       1890            0.0000000000
      8165      2722  TIP3      H1             -3.4081349752       10.8220606768      -13.1826271492  WZ2       1890            0.0000000000
      8166      2722  TIP3      H2             -3.5736849752       11.1427706768      -14.6528771492  WZ2       1890            0.0000000000
      8167      2723  TIP3      OH2           -13.0466549752       11.5063006768       -2.1528771492  WZ2       1891            0.0000000000
      8168      2723  TIP3      H1            -12.9763349752       12.1569806768       -1.4543771492  WZ2       1891            0.0000000000
      8169      2723  TIP3      H2            -13.9374349752       11.6090506768       -2.4877871492  WZ2       1891            0.0000000000
      8170      2724  TIP3      OH2            -6.2611949752       17.4088806768      -10.4942071492  WZ2       1892            0.0000000000
      8171      2724  TIP3      H1             -5.7874349752       17.7045106768       -9.7167871492  WZ2       1892            0.0000000000
      8172      2724  TIP3      H2             -6.8242649752       18.1470406768      -10.7272471492  WZ2       1892            0.0000000000
      8173      2725  TIP3      OH2           -11.7270549752       17.3796906768       -0.6180671492  WZ2       1893            0.0000000000
      8174      2725  TIP3      H1            -11.7195249752       17.2436606768       -1.5655171492  WZ2       1893            0.0000000000
      8175      2725  TIP3      H2            -12.6430149752       17.2625006768       -0.3660671492  WZ2       1893            0.0000000000
      8176      2726  TIP3      OH2            -0.2888449752        2.4220706768      -14.1165471492  WZ2       1894            0.0000000000
      8177      2726  TIP3      H1             -1.1887749752        2.5609706768      -13.8214871492  WZ2       1894            0.0000000000
      8178      2726  TIP3      H2             -0.0370049752        3.2535306768      -14.5183771492  WZ2       1894            0.0000000000
      8179      2727  TIP3      OH2           -12.2229949752       11.2097906768      -12.1428571492  WZ2       1895            0.0000000000
      8180      2727  TIP3      H1            -12.5148649752       11.9779606768      -12.6337271492  WZ2       1895            0.0000000000
      8181      2727  TIP3      H2            -12.8974749752       10.5504106768      -12.3057171492  WZ2       1895            0.0000000000
      8182      2728  TIP3      OH2             0.9002950248       16.7883106768      -15.7401571492  WZ2       1896            0.0000000000
      8183      2728  TIP3      H1              0.9736450248       17.7273306768      -15.5696271492  WZ2       1896            0.0000000000
      8184      2728  TIP3      H2              1.8058050248       16.4831706768      -15.7964271492  WZ2       1896            0.0000000000
      8185      2729  TIP3      OH2           -16.1299849752       13.5727106768       -3.3278771492  WZ2       1897            0.0000000000
      8186      2729  TIP3      H1            -16.6311449752       13.5446506768       -4.1429071492  WZ2       1897            0.0000000000
      8187      2729  TIP3      H2            -16.1246149752       12.6670306768       -3.0181471492  WZ2       1897            0.0000000000
      8188      2730  TIP3      OH2           -16.3797149752       16.3530906768       -6.4438571492  WZ2       1898            0.0000000000
      8189      2730  TIP3      H1            -15.4336549752       16.2087906768       -6.4629071492  WZ2       1898            0.0000000000
      8190      2730  TIP3      H2            -16.4920849752       17.1373706768       -5.9067371492  WZ2       1898            0.0000000000
      8191      2731  TIP3      OH2             1.8181350248       17.0190606768       -0.7614871492  WZ2       1899            0.0000000000
      8192      2731  TIP3      H1              1.7688150248       16.0638706768       -0.7987271492  WZ2       1899            0.0000000000
      8193      2731  TIP3      H2              0.9913650248       17.2865906768       -0.3601071492  WZ2       1899            0.0000000000
      8194      2732  TIP3      OH2            -7.2034649752       16.5929806768       -1.8853471492  WZ2       1900            0.0000000000
      8195      2732  TIP3      H1             -7.1160049752       17.4194406768       -1.4104371492  WZ2       1900            0.0000000000
      8196      2732  TIP3      H2             -8.0669549752       16.2633606768       -1.6364171492  WZ2       1900            0.0000000000
      8197      2733  TIP3      OH2            -6.7888849752       20.3653506768      -12.0792871492  WZ2       1901            0.0000000000
      8198      2733  TIP3      H1             -6.8642849752       20.2440706768      -13.0257671492  WZ2       1901            0.0000000000
      8199      2733  TIP3      H2             -6.7560149752       21.3146206768      -11.9608271492  WZ2       1901            0.0000000000
      8200      2734  TIP3      OH2           -13.1355049752       19.1540506768      -10.2983871492  WZ2       1902            0.0000000000
      8201      2734  TIP3      H1            -12.9834649752       18.8060906768       -9.4197371492  WZ2       1902            0.0000000000
      8202      2734  TIP3      H2            -13.9864649752       18.7977806768      -10.5536671492  WZ2       1902            0.0000000000
      8203      2735  TIP3      OH2            -3.6872849752       19.5193706768      -15.0770471492  WZ2       1903            0.0000000000
      8204      2735  TIP3      H1             -3.3124449752       18.7749806768      -15.5477871492  WZ2       1903            0.0000000000
      8205      2735  TIP3      H2             -3.6829149752       19.2494306768      -14.1587171492  WZ2       1903            0.0000000000
      8206      2736  TIP3      OH2            -4.0184749752       19.4450806768      -12.3278271492  WZ2       1904            0.0000000000
      8207      2736  TIP3      H1             -4.9534949752       19.5452706768      -12.1491271492  WZ2       1904            0.0000000000
      8208      2736  TIP3      H2             -3.7382849752       18.7356806768      -11.7495071492  WZ2       1904            0.0000000000
      8209      2737  TIP3      OH2            -1.0298849752        8.5123106768       -0.2812671492  WZ2       1905            0.0000000000
      8210      2737  TIP3      H1             -1.4372049752        8.9928706768       -1.0019371492  WZ2       1905            0.0000000000
      8211      2737  TIP3      H2             -0.9893149752        7.6069106768       -0.5891871492  WZ2       1905            0.0000000000
      8212      2738  TIP3      OH2           -13.8809349752       14.8962506768       -2.2845971492  WZ2       1906            0.0000000000
      8213      2738  TIP3      H1            -13.6648049752       14.5348106768       -1.4250171492  WZ2       1906            0.0000000000
      8214      2738  TIP3      H2            -14.7364649752       14.5216306768       -2.4942471492  WZ2       1906            0.0000000000
      8215      2739  TIP3      OH2           -11.2621349752        3.3663006768       -6.2891771492  WZ2       1907            0.0000000000
      8216      2739  TIP3      H1            -12.1237649752        3.2791206768       -6.6968871492  WZ2       1907            0.0000000000
      8217      2739  TIP3      H2            -11.2845649752        4.2223106768       -5.8614171492  WZ2       1907            0.0000000000
      8218      2740  TIP3      OH2            -6.5993549752        3.0883406768       -2.9144771492  WZ2       1908            0.0000000000
      8219      2740  TIP3      H1             -6.1790449752        2.6730506768       -2.1614171492  WZ2       1908            0.0000000000
      8220      2740  TIP3      H2             -7.5323949752        2.9096706768       -2.7972771492  WZ2       1908            0.0000000000
      8221      2741  TIP3      OH2            -3.2728649752        6.8438606768       -2.0610271492  WZ2       1909            0.0000000000
      8222      2741  TIP3      H1             -3.7869149752        6.7180806768       -1.2634271492  WZ2       1909            0.0000000000
      8223      2741  TIP3      H2             -3.4283949752        7.7561706768       -2.3054071492  WZ2       1909            0.0000000000
      8224      2742  TIP3      OH2            -2.5103749752       11.7048606768      -16.2997271492  WZ2       1910            0.0000000000
      8225      2742  TIP3      H1             -2.4682949752       11.4822506768      -17.2297271492  WZ2       1910            0.0000000000
      8226      2742  TIP3      H2             -1.6611649752       12.1035706768      -16.1097371492  WZ2       1910            0.0000000000
      8227      2743  TIP3      OH2            -6.9376249752        5.5806806768      -15.6293971492  WZ2       1911            0.0000000000
      8228      2743  TIP3      H1             -7.1911449752        5.5998406768      -14.7065871492  WZ2       1911            0.0000000000
      8229      2743  TIP3      H2             -7.1944149752        4.7092206768      -15.9307771492  WZ2       1911            0.0000000000
      8230      2744  TIP3      OH2           -11.1711249752        8.3317506768       -5.1941571492  WZ2       1912            0.0000000000
      8231      2744  TIP3      H1            -11.8129149752        8.2914806768       -4.4851471492  WZ2       1912            0.0000000000
      8232      2744  TIP3      H2            -11.1339249752        9.2582206768       -5.4318571492  WZ2       1912            0.0000000000
      8233      2745  TIP3      OH2           -11.1742149752        8.5527606768      -10.2821571492  WZ2       1913            0.0000000000
      8234      2745  TIP3      H1            -12.0669249752        8.2123706768      -10.3407771492  WZ2       1913            0.0000000000
      8235      2745  TIP3      H2            -10.7235549752        8.1758506768      -11.0378371492  WZ2       1913            0.0000000000
      8236      2746  TIP3      OH2            -5.6386649752        8.9687906768      -11.4650771492  WZ2       1914            0.0000000000
      8237      2746  TIP3      H1             -6.0476349752        9.7836506768      -11.7565971492  WZ2       1914            0.0000000000
      8238      2746  TIP3      H2             -4.9180449752        8.8288006768      -12.0793671492  WZ2       1914            0.0000000000
      8239      2747  TIP3      OH2            -6.5365049752        9.1444306768        0.0229928508  WZ2       1915            0.0000000000
      8240      2747  TIP3      H1             -7.0991249752        8.4395906768        0.3437728508  WZ2       1915            0.0000000000
      8241      2747  TIP3      H2             -5.7101649752        9.0236206768        0.4907528508  WZ2       1915            0.0000000000
      8242      2748  TIP3      OH2            -4.6338949752        8.4148306768       -8.6511071492  WZ2       1916            0.0000000000
      8243      2748  TIP3      H1             -4.8294449752        9.0205106768       -9.3660471492  WZ2       1916            0.0000000000
      8244      2748  TIP3      H2             -4.4526349752        7.5813506768       -9.0854771492  WZ2       1916            0.0000000000
      8245      2749  TIP3      OH2           -13.4210749752        8.6521006768       -3.3269571492  WZ2       1917            0.0000000000
      8246      2749  TIP3      H1            -13.4591349752        9.0522606768       -2.4582471492  WZ2       1917            0.0000000000
      8247      2749  TIP3      H2            -13.9119649752        7.8353406768       -3.2366671492  WZ2       1917            0.0000000000
      8248      2750  TIP3      OH2           -10.0553349752        6.0263306768      -16.5283571492  WZ2       1918            0.0000000000
      8249      2750  TIP3      H1            -10.4862649752        5.5813406768      -15.7986171492  WZ2       1918            0.0000000000
      8250      2750  TIP3      H2            -10.7734649752        6.3979606768      -17.0406071492  WZ2       1918            0.0000000000
      8251      2751  TIP3      OH2           -16.8129949752        5.7682806768       -9.4764871492  WZ2       1919            0.0000000000
      8252      2751  TIP3      H1            -16.1822249752        5.7394906768       -8.7570971492  WZ2       1919            0.0000000000
      8253      2751  TIP3      H2            -16.3635649752        5.3431506768      -10.2068971492  WZ2       1919            0.0000000000
      8254      2752  TIP3      OH2           -15.5387849752        6.5144806768      -14.0524471492  WZ2       1920            0.0000000000
      8255      2752  TIP3      H1            -15.0646149752        7.1054706768      -14.6373571492  WZ2       1920            0.0000000000
      8256      2752  TIP3      H2            -16.2561449752        7.0447706768      -13.7054371492  WZ2       1920            0.0000000000
      8257      2753  TIP3      OH2            -5.3699749752       10.0529606768       -3.9798671492  WZ2       1921            0.0000000000
      8258      2753  TIP3      H1             -5.0464949752        9.4219306768       -4.6228171492  WZ2       1921            0.0000000000
      8259      2753  TIP3      H2             -5.8100449752        9.5181806768       -3.3191271492  WZ2       1921            0.0000000000
      8260      2754  TIP3      OH2            -8.5926849752        5.9805106768       -9.1957471492  WZ2       1922            0.0000000000
      8261      2754  TIP3      H1             -9.5035749752        6.0371906768       -8.9071471492  WZ2       1922            0.0000000000
      8262      2754  TIP3      H2             -8.0873949752        5.9200606768       -8.3850271492  WZ2       1922            0.0000000000
      8263      2755  TIP3      OH2           -13.7643449752        7.6091406768      -10.3689871492  WZ2       1923            0.0000000000
      8264      2755  TIP3      H1            -14.6535449752        7.7086906768      -10.7090271492  WZ2       1923            0.0000000000
      8265      2755  TIP3      H2            -13.4678549752        6.7674406768      -10.7151971492  WZ2       1923            0.0000000000
      8266      2756  TIP3      OH2           -10.1111649752        7.6094006768      -12.7125271492  WZ2       1924            0.0000000000
      8267      2756  TIP3      H1             -9.1796149752        7.7384006768      -12.5342171492  WZ2       1924            0.0000000000
      8268      2756  TIP3      H2            -10.3261349752        8.2788306768      -13.3620571492  WZ2       1924            0.0000000000
      8269      2757  TIP3      OH2            -4.1874949752        5.2151406768       -5.9315671492  WZ2       1925            0.0000000000
      8270      2757  TIP3      H1             -4.8643349752        5.3464506768       -5.2675971492  WZ2       1925            0.0000000000
      8271      2757  TIP3      H2             -4.6730049752        5.0600906768       -6.7417971492  WZ2       1925            0.0000000000
      8272      2758  TIP3      OH2           -11.4371449752        8.8036206768      -15.1459171492  WZ2       1926            0.0000000000
      8273      2758  TIP3      H1            -11.9796349752        8.4240006768      -15.8371571492  WZ2       1926            0.0000000000
      8274      2758  TIP3      H2            -10.6036549752        8.9980906768      -15.5745071492  WZ2       1926            0.0000000000
      8275      2759  TIP3      OH2            -0.8999849752       20.8866806768        0.3451928508  WZ2       1927            0.0000000000
      8276      2759  TIP3      H1             -0.7001149752       21.3108706768       -0.4892771492  WZ2       1927            0.0000000000
      8277      2759  TIP3      H2             -0.2446149752       21.2305006768        0.9522328508  WZ2       1927            0.0000000000
      8278      2760  TIP3      OH2           -13.3020049752       13.3608106768       -0.0467571492  WZ2       1928            0.0000000000
      8279      2760  TIP3      H1            -12.5697649752       13.6154006768        0.5146928508  WZ2       1928            0.0000000000
      8280      2760  TIP3      H2            -14.0821349752       13.5653506768        0.4687828508  WZ2       1928            0.0000000000
      8281      2761  TIP3      OH2            -7.2727149752        8.7678106768       -7.3087871492  WZ2       1929            0.0000000000
      8282      2761  TIP3      H1             -6.7083749752        8.2214706768       -7.8558271492  WZ2       1929            0.0000000000
      8283      2761  TIP3      H2             -7.4203749752        8.2460006768       -6.5200271492  WZ2       1929            0.0000000000
      8284      2762  TIP3      OH2           -12.2707449752        4.9044206768      -10.8903071492  WZ2       1930            0.0000000000
      8285      2762  TIP3      H1            -12.5877949752        4.0019506768      -10.9257671492  WZ2       1930            0.0000000000
      8286      2762  TIP3      H2            -11.4893349752        4.9061606768      -11.4431471492  WZ2       1930            0.0000000000
      8287      2763  TIP3      OH2            -8.6461249752        7.1564206768       -4.8947471492  WZ2       1931            0.0000000000
      8288      2763  TIP3      H1             -9.4815949752        7.6103706768       -4.7845071492  WZ2       1931            0.0000000000
      8289      2763  TIP3      H2             -8.1220649752        7.4322706768       -4.1427571492  WZ2       1931            0.0000000000
      8290      2764  TIP3      OH2            -8.1018649752       13.3691906768      -13.2101071492  WZ2       1932            0.0000000000
      8291      2764  TIP3      H1             -8.8467649752       12.8617206768      -13.5323171492  WZ2       1932            0.0000000000
      8292      2764  TIP3      H2             -8.2361449752       13.4179906768      -12.2636271492  WZ2       1932            0.0000000000
      8293      2765  TIP3      OH2            -0.9519749752       12.5020106768       -4.4233471492  WZ2       1933            0.0000000000
      8294      2765  TIP3      H1             -0.3100949752       12.9586406768       -4.9671271492  WZ2       1933            0.0000000000
      8295      2765  TIP3      H2             -1.7822849752       12.6152506768       -4.8859371492  WZ2       1933            0.0000000000
      8296      2766  TIP3      OH2            -4.2041849752        6.1831806768      -15.0108471492  WZ2       1934            0.0000000000
      8297      2766  TIP3      H1             -5.1427649752        6.2947406768      -15.1619671492  WZ2       1934            0.0000000000
      8298      2766  TIP3      H2             -3.9069749752        7.0398706768      -14.7042771492  WZ2       1934            0.0000000000
      8299      2767  TIP3      OH2            -6.5826549752       13.5535206768       -1.9731971492  WZ2       1935            0.0000000000
      8300      2767  TIP3      H1             -6.9280449752       13.1717606768       -1.1662371492  WZ2       1935            0.0000000000
      8301      2767  TIP3      H2             -6.7826449752       14.4868806768       -1.9019071492  WZ2       1935            0.0000000000
      8302      2768  TIP3      OH2            -3.4858349752        8.0504506768      -13.3501071492  WZ2       1936            0.0000000000
      8303      2768  TIP3      H1             -2.5939349752        7.9129506768      -13.0309871492  WZ2       1936            0.0000000000
      8304      2768  TIP3      H2             -3.4294749752        8.8410606768      -13.8867571492  WZ2       1936            0.0000000000
      8305      2769  TIP3      OH2           -12.9770349752       12.6641906768       -7.4403171492  WZ2       1937            0.0000000000
      8306      2769  TIP3      H1            -12.2323149752       12.6617606768       -8.0416671492  WZ2       1937            0.0000000000
      8307      2769  TIP3      H2            -12.8993749752       11.8405706768       -6.9588071492  WZ2       1937            0.0000000000
      8308      2770  TIP3      OH2            -5.9764549752       14.8276206768      -14.1846471492  WZ2       1938            0.0000000000
      8309      2770  TIP3      H1             -6.2716149752       15.6544106768      -13.8031671492  WZ2       1938            0.0000000000
      8310      2770  TIP3      H2             -6.6794549752       14.2083106768      -13.9885071492  WZ2       1938            0.0000000000
      8311      2771  TIP3      OH2           -15.9690649752       11.1248806768       -2.1254671492  WZ2       1939            0.0000000000
      8312      2771  TIP3      H1            -15.7462049752       10.7068406768       -1.2937171492  WZ2       1939            0.0000000000
      8313      2771  TIP3      H2            -16.5710549752       10.5123806768       -2.5481871492  WZ2       1939            0.0000000000
      8314      2772  TIP3      OH2            -8.9525749752       10.6418706768        0.0875028508  WZ2       1940            0.0000000000
      8315      2772  TIP3      H1             -9.2484949752       10.4761706768       -0.8075871492  WZ2       1940            0.0000000000
      8316      2772  TIP3      H2             -8.0210549752       10.4219006768        0.0768928508  WZ2       1940            0.0000000000
      8317      2773  TIP3      OH2            -4.3322949752       16.0150706768       -2.0226971492  WZ2       1941            0.0000000000
      8318      2773  TIP3      H1             -5.2328649752       16.1983306768       -2.2903071492  WZ2       1941            0.0000000000
      8319      2773  TIP3      H2             -4.2981849752       16.2740006768       -1.1018171492  WZ2       1941            0.0000000000
      8320      2774  TIP3      OH2             1.3990350248        8.2598606768      -13.6554371492  WZ2       1942            0.0000000000
      8321      2774  TIP3      H1              0.8446650248        7.8636606768      -14.3276871492  WZ2       1942            0.0000000000
      8322      2774  TIP3      H2              1.4993950248        9.1703806768      -13.9331071492  WZ2       1942            0.0000000000
      8323      2775  TIP3      OH2             1.3622350248       14.0600306768       -0.8182871492  WZ2       1943            0.0000000000
      8324      2775  TIP3      H1              0.5110850248       14.2984106768       -1.1856471492  WZ2       1943            0.0000000000
      8325      2775  TIP3      H2              1.9525750248       14.0433506768       -1.5715771492  WZ2       1943            0.0000000000
      8326      2776  TIP3      OH2            -0.3057949752       17.0459006768      -13.1902271492  WZ2       1944            0.0000000000
      8327      2776  TIP3      H1             -0.6786849752       16.2202806768      -12.8811671492  WZ2       1944            0.0000000000
      8328      2776  TIP3      H2             -0.0284449752       16.8628406768      -14.0878871492  WZ2       1944            0.0000000000
      8329      2777  TIP3      OH2            -3.1454049752       11.8538506768       -6.1690371492  WZ2       1945            0.0000000000
      8330      2777  TIP3      H1             -4.0737149752       11.6220406768       -6.1961071492  WZ2       1945            0.0000000000
      8331      2777  TIP3      H2             -2.6942949752       11.0768306768       -6.4991571492  WZ2       1945            0.0000000000
      8332      2778  TIP3      OH2           -10.6020949752       16.1820106768      -10.0361671492  WZ2       1946            0.0000000000
      8333      2778  TIP3      H1            -10.0748749752       16.9554506768      -10.2362871492  WZ2       1946            0.0000000000
      8334      2778  TIP3      H2            -11.4822449752       16.4069306768      -10.3377671492  WZ2       1946            0.0000000000
      8335      2779  TIP3      OH2           -14.8473249752       11.0444206768      -15.4489271492  WZ2       1947            0.0000000000
      8336      2779  TIP3      H1            -14.2313349752       11.6711406768      -15.0694471492  WZ2       1947            0.0000000000
      8337      2779  TIP3      H2            -15.7090649752       11.3604006768      -15.1772771492  WZ2       1947            0.0000000000
      8338      2780  TIP3      OH2            -9.1748649752       13.8450006768      -10.4597371492  WZ2       1948            0.0000000000
      8339      2780  TIP3      H1             -9.4158649752       14.7704406768      -10.4182071492  WZ2       1948            0.0000000000
      8340      2780  TIP3      H2             -9.9155049752       13.3861306768      -10.0633471492  WZ2       1948            0.0000000000
      8341      2781  TIP3      OH2            -8.6602049752       17.9943606768       -4.1446271492  WZ2       1949            0.0000000000
      8342      2781  TIP3      H1             -8.2977349752       18.8489206768       -4.3781871492  WZ2       1949            0.0000000000
      8343      2781  TIP3      H2             -8.1286849752       17.7025206768       -3.4039971492  WZ2       1949            0.0000000000
      8344      2782  TIP3      OH2           -10.4917849752       18.8667606768      -10.9145171492  WZ2       1950            0.0000000000
      8345      2782  TIP3      H1            -11.4417349752       18.9725006768      -10.8631871492  WZ2       1950            0.0000000000
      8346      2782  TIP3      H2            -10.1399749752       19.6875006768      -10.5697671492  WZ2       1950            0.0000000000
      8347      2783  TIP3      OH2            -5.1161249752       14.0934306768       -4.4440671492  WZ2       1951            0.0000000000
      8348      2783  TIP3      H1             -5.5419949752       13.8656006768       -3.6176671492  WZ2       1951            0.0000000000
      8349      2783  TIP3      H2             -4.5355449752       13.3546106768       -4.6265371492  WZ2       1951            0.0000000000
      8350      2784  TIP3      OH2            -2.9132349752       15.0224806768      -15.3701671492  WZ2       1952            0.0000000000
      8351      2784  TIP3      H1             -2.5599249752       14.6424606768      -14.5658171492  WZ2       1952            0.0000000000
      8352      2784  TIP3      H2             -3.8618849752       14.9289606768      -15.2832371492  WZ2       1952            0.0000000000
      8353      2785  TIP3      OH2            -2.4577049752       18.6453806768       -1.9745871492  WZ2       1953            0.0000000000
      8354      2785  TIP3      H1             -3.0593849752       18.0896706768       -2.4699571492  WZ2       1953            0.0000000000
      8355      2785  TIP3      H2             -2.1763349752       19.3123606768       -2.6008471492  WZ2       1953            0.0000000000
      8356      2786  TIP3      OH2             1.5902050248       19.5017306768      -15.1691471492  WZ2       1954            0.0000000000
      8357      2786  TIP3      H1              2.3339950248       20.0877806768      -15.3089871492  WZ2       1954            0.0000000000
      8358      2786  TIP3      H2              0.8960150248       20.0703106768      -14.8359071492  WZ2       1954            0.0000000000
      8359      2787  TIP3      OH2           -14.3351149752        5.8781506768       -2.5673271492  WZ2       1955            0.0000000000
      8360      2787  TIP3      H1            -15.2278849752        6.2166906768       -2.6349271492  WZ2       1955            0.0000000000
      8361      2787  TIP3      H2            -14.4338349752        5.0227606768       -2.1492471492  WZ2       1955            0.0000000000
      8362      2788  TIP3      OH2            -2.0473049752       13.6946806768      -13.1433771492  WZ2       1956            0.0000000000
      8363      2788  TIP3      H1             -2.3245449752       12.9666106768      -12.5872671492  WZ2       1956            0.0000000000
      8364      2788  TIP3      H2             -1.1200049752       13.8138806768      -12.9381171492  WZ2       1956            0.0000000000
      8365      2789  TIP3      OH2           -14.6839149752       17.6825906768       -4.1323871492  WZ2       1957            0.0000000000
      8366      2789  TIP3      H1            -14.4668849752       16.7508306768       -4.1634171492  WZ2       1957            0.0000000000
      8367      2789  TIP3      H2            -14.4375649752       17.9570906768       -3.2491071492  WZ2       1957            0.0000000000
      8368      2790  TIP3      OH2            -8.8224549752       16.1340906768      -16.9231671492  WZ2       1958            0.0000000000
      8369      2790  TIP3      H1             -8.5834749752       15.3859006768      -17.4702771492  WZ2       1958            0.0000000000
      8370      2790  TIP3      H2             -9.0913249752       15.7462606768      -16.0903871492  WZ2       1958            0.0000000000
      8371      2791  TIP3      OH2            -9.8853949752       15.7044706768      -14.4669071492  WZ2       1959            0.0000000000
      8372      2791  TIP3      H1             -9.7385949752       15.1844506768      -13.6768171492  WZ2       1959            0.0000000000
      8373      2791  TIP3      H2             -9.8882249752       16.6112306768      -14.1603171492  WZ2       1959            0.0000000000
      8374      2792  TIP3      OH2           -13.4322849752       12.9568006768      -13.9563671492  WZ2       1960            0.0000000000
      8375      2792  TIP3      H1            -14.1183549752       13.3090506768      -13.3893971492  WZ2       1960            0.0000000000
      8376      2792  TIP3      H2            -12.9094949752       13.7197606768      -14.2029371492  WZ2       1960            0.0000000000
      8377      2793  TIP3      OH2            -5.6007749752        5.6191806768       -3.6774671492  WZ2       1961            0.0000000000
      8378      2793  TIP3      H1             -4.9019849752        5.6930506768       -3.0274971492  WZ2       1961            0.0000000000
      8379      2793  TIP3      H2             -5.9816349752        4.7546806768       -3.5231771492  WZ2       1961            0.0000000000
      8380      2794  TIP3      OH2            -4.8162849752        5.2713506768      -12.5802371492  WZ2       1962            0.0000000000
      8381      2794  TIP3      H1             -4.5964549752        5.7428906768      -13.3836971492  WZ2       1962            0.0000000000
      8382      2794  TIP3      H2             -4.2578849752        5.6656106768      -11.9101771492  WZ2       1962            0.0000000000
      8383      2795  TIP3      OH2            -7.1476749752       17.4018306768      -13.7174871492  WZ2       1963            0.0000000000
      8384      2795  TIP3      H1             -7.9640649752       17.8988006768      -13.6650571492  WZ2       1963            0.0000000000
      8385      2795  TIP3      H2             -6.6180449752       17.8771806768      -14.3576071492  WZ2       1963            0.0000000000
      8386      2796  TIP3      OH2            -7.6162949752        6.9992306768      -11.7453971492  WZ2       1964            0.0000000000
      8387      2796  TIP3      H1             -6.8040349752        7.5035506768      -11.6992271492  WZ2       1964            0.0000000000
      8388      2796  TIP3      H2             -7.8609949752        6.8542006768      -10.8314371492  WZ2       1964            0.0000000000
      8389      2797  TIP3      OH2            -7.0806549752        7.9855006768       -2.5607371492  WZ2       1965            0.0000000000
      8390      2797  TIP3      H1             -6.9616249752        8.5590406768       -1.8036971492  WZ2       1965            0.0000000000
      8391      2797  TIP3      H2             -6.4251949752        7.2974406768       -2.4459571492  WZ2       1965            0.0000000000
      8392      2798  TIP3      OH2            -6.7326249752        4.0805306768      -10.8072871492  WZ2       1966            0.0000000000
      8393      2798  TIP3      H1             -7.0792749752        4.6975906768      -10.1628571492  WZ2       1966            0.0000000000
      8394      2798  TIP3      H2             -6.0739349752        4.5811006768      -11.2887371492  WZ2       1966            0.0000000000
      8395      2799  TIP3      OH2            -9.8093649752       18.4455506768      -13.7357971492  WZ2       1967            0.0000000000
      8396      2799  TIP3      H1             -9.6484949752       19.2453006768      -14.2365371492  WZ2       1967            0.0000000000
      8397      2799  TIP3      H2            -10.0065849752       18.7521506768      -12.8507371492  WZ2       1967            0.0000000000
      8398      2800  TIP3      OH2           -11.0749249752        5.1434706768      -14.1200371492  WZ2       1968            0.0000000000
      8399      2800  TIP3      H1            -11.1584449752        6.0317806768      -13.7733971492  WZ2       1968            0.0000000000
      8400      2800  TIP3      H2            -10.1848949752        4.8781406768      -13.8883571492  WZ2       1968            0.0000000000
      8401      2801  TIP3      OH2            -0.8760749752        5.8925306768       -1.7257671492  WZ2       1969            0.0000000000
      8402      2801  TIP3      H1             -1.7924949752        6.1547006768       -1.8133971492  WZ2       1969            0.0000000000
      8403      2801  TIP3      H2             -0.5405749752        5.8894306768       -2.6222371492  WZ2       1969            0.0000000000
      8404      2802  TIP3      OH2            -2.2739749752        9.6426306768       -7.6300371492  WZ2       1970            0.0000000000
      8405      2802  TIP3      H1             -3.0715349752        9.2276506768       -7.9585371492  WZ2       1970            0.0000000000
      8406      2802  TIP3      H2             -1.8288649752        8.9520006768       -7.1389871492  WZ2       1970            0.0000000000
      8407      2803  TIP3      OH2           -12.8163949752       15.5706906768      -15.0595871492  WZ2       1971            0.0000000000
      8408      2803  TIP3      H1            -12.2242449752       16.2701706768      -14.7833471492  WZ2       1971            0.0000000000
      8409      2803  TIP3      H2            -12.3570949752       15.1376406768      -15.7791271492  WZ2       1971            0.0000000000
      8410      2804  TIP3      OH2           -14.5004749752        8.2349906768      -15.9436471492  WZ2       1972            0.0000000000
      8411      2804  TIP3      H1            -14.5452149752        9.1743006768      -15.7649471492  WZ2       1972            0.0000000000
      8412      2804  TIP3      H2            -15.3881549752        7.9994806768      -16.2134371492  WZ2       1972            0.0000000000
      8413      2805  TIP3      OH2            -1.1875149752       18.8988806768       -6.0076871492  WZ2       1973            0.0000000000
      8414      2805  TIP3      H1             -1.3430849752       19.5773206768       -6.6647571492  WZ2       1973            0.0000000000
      8415      2805  TIP3      H2             -0.2548749752       18.9708106768       -5.8046271492  WZ2       1973            0.0000000000
      8416      2806  TIP3      OH2           -13.6922749752        3.0166506768       -7.2705471492  WZ2       1974            0.0000000000
      8417      2806  TIP3      H1            -13.9212949752        3.0759006768       -8.1980471492  WZ2       1974            0.0000000000
      8418      2806  TIP3      H2            -14.1349349752        2.2252006768       -6.9641371492  WZ2       1974            0.0000000000
      8419      2807  TIP3      OH2           -14.7619449752       16.9573606768      -11.1099671492  WZ2       1975            0.0000000000
      8420      2807  TIP3      H1            -15.5940849752       17.4296306768      -11.0828271492  WZ2       1975            0.0000000000
      8421      2807  TIP3      H2            -14.2161149752       17.4671206768      -11.7086571492  WZ2       1975            0.0000000000
      8422      2808  TIP3      OH2           -15.4735749752       19.5697306768        0.2198328508  WZ2       1976            0.0000000000
      8423      2808  TIP3      H1            -14.9333549752       19.3531306768        0.9797528508  WZ2       1976            0.0000000000
      8424      2808  TIP3      H2            -15.9547749752       18.7643306768        0.0300828508  WZ2       1976            0.0000000000
      8425      2809  TIP3      OH2           -10.8762349752       18.4891706768        1.8402528508  WZ2       1977            0.0000000000
      8426      2809  TIP3      H1            -10.1085149752       18.0302506768        2.1811728508  WZ2       1977            0.0000000000
      8427      2809  TIP3      H2            -10.8976149752       18.2631506768        0.9103728508  WZ2       1977            0.0000000000
      8428      2810  TIP3      OH2            -6.7842749752       17.9972306768      -16.7845671492  WZ2       1978            0.0000000000
      8429      2810  TIP3      H1             -7.4281749752       17.3660906768      -16.4631971492  WZ2       1978            0.0000000000
      8430      2810  TIP3      H2             -6.0224449752       17.4660306768      -17.0162171492  WZ2       1978            0.0000000000
      8431      2811  TIP3      OH2            -4.2993649752       16.8692806768        0.5694028508  WZ2       1979            0.0000000000
      8432      2811  TIP3      H1             -4.6504149752       16.0125806768        0.8124428508  WZ2       1979            0.0000000000
      8433      2811  TIP3      H2             -3.5730449752       17.0119506768        1.1763028508  WZ2       1979            0.0000000000
      8434      2812  TIP3      OH2            -2.1799849752       17.8142206768      -16.5507671492  WZ2       1980            0.0000000000
      8435      2812  TIP3      H1             -1.8969449752       17.0197406768      -16.0980771492  WZ2       1980            0.0000000000
      8436      2812  TIP3      H2             -1.4401949752       18.0473206768      -17.1116571492  WZ2       1980            0.0000000000
      8437      2813  TIP3      OH2           -15.5666249752       13.3801406768        1.1742628508  WZ2       1981            0.0000000000
      8438      2813  TIP3      H1            -15.4225749752       12.4782106768        0.8879328508  WZ2       1981            0.0000000000
      8439      2813  TIP3      H2            -16.3388849752       13.6663506768        0.6864928508  WZ2       1981            0.0000000000
      8440      2814  TIP3      OH2           -11.2252549752       13.7237106768      -16.6932771492  WZ2       1982            0.0000000000
      8441      2814  TIP3      H1            -11.1608449752       12.9296706768      -16.1626371492  WZ2       1982            0.0000000000
      8442      2814  TIP3      H2            -10.5723349752       13.6049906768      -17.3830771492  WZ2       1982            0.0000000000
      8443      2815  TIP3      OH2            -8.9110149752       13.3499506768        0.6069028508  WZ2       1983            0.0000000000
      8444      2815  TIP3      H1             -9.2396349752       13.6207606768       -0.2503571492  WZ2       1983            0.0000000000
      8445      2815  TIP3      H2             -8.7591949752       12.4089306768        0.5194028508  WZ2       1983            0.0000000000
      8446      2816  TIP3      OH2            -5.8729149752       14.7708806768      -16.9574771492  WZ2       1984            0.0000000000
      8447      2816  TIP3      H1             -6.1415049752       14.9510906768      -16.0565871492  WZ2       1984            0.0000000000
      8448      2816  TIP3      H2             -6.0793549752       13.8455006768      -17.0888971492  WZ2       1984            0.0000000000
      8449      2817  TIP3      OH2            -3.1764949752       13.2656806768       -2.0098671492  WZ2       1985            0.0000000000
      8450      2817  TIP3      H1             -2.4310149752       13.8540506768       -2.1294671492  WZ2       1985            0.0000000000
      8451      2817  TIP3      H2             -3.9338149752       13.8476506768       -1.9465571492  WZ2       1985            0.0000000000
      8452      2818  TIP3      OH2           -14.7339749752       10.5804706768        0.5941928508  WZ2       1986            0.0000000000
      8453      2818  TIP3      H1            -14.3258549752        9.7231306768        0.4732528508  WZ2       1986            0.0000000000
      8454      2818  TIP3      H2            -14.9942149752       10.5946006768        1.5152228508  WZ2       1986            0.0000000000
      8455      2819  TIP3      OH2           -10.0758749752       11.6963306768      -14.3874771492  WZ2       1987            0.0000000000
      8456      2819  TIP3      H1            -10.5356749752       11.2121606768      -13.7016271492  WZ2       1987            0.0000000000
      8457      2819  TIP3      H2             -9.8210049752       11.0278706768      -15.0234271492  WZ2       1987            0.0000000000
      8458      2820  TIP3      OH2           -10.7869449752        9.5890406768       -2.0315171492  WZ2       1988            0.0000000000
      8459      2820  TIP3      H1            -11.4053349752       10.2637006768       -1.7510471492  WZ2       1988            0.0000000000
      8460      2820  TIP3      H2            -10.4428249752        9.9104306768       -2.8648971492  WZ2       1988            0.0000000000
      8461      2821  TIP3      OH2            -9.0048349752        9.9395106768      -16.1251571492  WZ2       1989            0.0000000000
      8462      2821  TIP3      H1             -9.1853349752        9.7846306768      -17.0523271492  WZ2       1989            0.0000000000
      8463      2821  TIP3      H2             -8.0547849752       10.0473806768      -16.0803671492  WZ2       1989            0.0000000000
      8464      2822  TIP3      OH2            -5.7671249752       12.0605706768        1.2459628508  WZ2       1990            0.0000000000
      8465      2822  TIP3      H1             -4.8140049752       12.1444806768        1.2185628508  WZ2       1990            0.0000000000
      8466      2822  TIP3      H2             -5.9276649752       11.3487506768        1.8654528508  WZ2       1990            0.0000000000
      8467      2823  TIP3      OH2             0.3849950248       12.2939306768      -16.6793471492  WZ2       1991            0.0000000000
      8468      2823  TIP3      H1              0.1114750248       11.8694806768      -17.4925171492  WZ2       1991            0.0000000000
      8469      2823  TIP3      H2              0.4244050248       13.2253806768      -16.8963071492  WZ2       1991            0.0000000000
      8470      2824  TIP3      OH2           -10.4475749752        6.9441206768       -0.9492071492  WZ2       1992            0.0000000000
      8471      2824  TIP3      H1            -10.2974849752        6.2152506768       -1.5512371492  WZ2       1992            0.0000000000
      8472      2824  TIP3      H2            -10.4453349752        7.7212906768       -1.5079871492  WZ2       1992            0.0000000000
      8473      2825  TIP3      OH2           -10.0350049752        5.3137006768       -3.4564671492  WZ2       1993            0.0000000000
      8474      2825  TIP3      H1             -9.4992549752        5.7653706768       -4.1085371492  WZ2       1993            0.0000000000
      8475      2825  TIP3      H2            -10.8870449752        5.2056806768       -3.8790571492  WZ2       1993            0.0000000000
      8476      2826  TIP3      OH2            -8.4531649752       10.7533206768       -3.2169471492  WZ2       1994            0.0000000000
      8477      2826  TIP3      H1             -7.7026849752       10.5970706768       -3.7901671492  WZ2       1994            0.0000000000
      8478      2826  TIP3      H2             -8.7923349752       11.6049806768       -3.4923971492  WZ2       1994            0.0000000000
      8479      2827  TIP3      OH2            -4.0375449752        8.5685006768        1.8115828508  WZ2       1995            0.0000000000
      8480      2827  TIP3      H1             -3.8454149752        7.6374406768        1.7000328508  WZ2       1995            0.0000000000
      8481      2827  TIP3      H2             -3.1799149752        8.9934506768        1.8011228508  WZ2       1995            0.0000000000
      8482      2828  TIP3      OH2            -2.7208249752       11.3570206768       -0.1111471492  WZ2       1996            0.0000000000
      8483      2828  TIP3      H1             -3.0023249752       12.0664806768       -0.6887671492  WZ2       1996            0.0000000000
      8484      2828  TIP3      H2             -1.7783949752       11.2843206768       -0.2620271492  WZ2       1996            0.0000000000
      8485      2829  TIP3      OH2           -11.9689449752        8.1424706768        0.9623528508  WZ2       1997            0.0000000000
      8486      2829  TIP3      H1            -12.7360449752        7.6099506768        0.7521128508  WZ2       1997            0.0000000000
      8487      2829  TIP3      H2            -11.2900449752        7.8325106768        0.3629828508  WZ2       1997            0.0000000000
      8488      2830  TIP3      OH2            -9.2294549752        2.7702706768       -3.0251071492  WZ2       1998            0.0000000000
      8489      2830  TIP3      H1             -9.3274949752        3.7165906768       -3.1304871492  WZ2       1998            0.0000000000
      8490      2830  TIP3      H2             -9.9718349752        2.3976506768       -3.5007571492  WZ2       1998            0.0000000000
      8491      2831  TIP3      OH2            -7.9654049752        7.0918106768        0.5387328508  WZ2       1999            0.0000000000
      8492      2831  TIP3      H1             -8.2008649752        6.8724806768        1.4402228508  WZ2       1999            0.0000000000
      8493      2831  TIP3      H2             -8.7487149752        6.8849306768        0.0289828508  WZ2       1999            0.0000000000
      8494      2832  TIP3      OH2            -5.2497449752        6.2191606768       -0.3859171492  WZ2       2000            0.0000000000
      8495      2832  TIP3      H1             -6.1972049752        6.2511306768       -0.2535871492  WZ2       2000            0.0000000000
      8496      2832  TIP3      H2             -4.9370749752        5.5938706768        0.2679028508  WZ2       2000            0.0000000000
      8497      2833  TIP3      OH2            -3.6155949752        4.8532706768        1.6192728508  WZ2       2001            0.0000000000
      8498      2833  TIP3      H1             -3.7124149752        3.9010006768        1.6134628508  WZ2       2001            0.0000000000
      8499      2833  TIP3      H2             -3.9372849752        5.1219506768        2.4798228508  WZ2       2001            0.0000000000
      8500      2834  TIP3      OH2           -13.7886649752        6.0628506768        0.6668228508  WZ2       2002            0.0000000000
      8501      2834  TIP3      H1            -13.5769249752        5.3564606768        0.0565728508  WZ2       2002            0.0000000000
      8502      2834  TIP3      H2            -13.8999149752        5.6254506768        1.5109428508  WZ2       2002            0.0000000000
      8503      2835  TIP3      OH2            -9.0076449752        2.0640106768       -0.3538271492  WZ2       2003            0.0000000000
      8504      2835  TIP3      H1             -8.2958049752        1.4242306768       -0.3679171492  WZ2       2003            0.0000000000
      8505      2835  TIP3      H2             -9.1086049752        2.3308406768       -1.2675171492  WZ2       2003            0.0000000000
      8506      2836  TIP3      OH2            -8.6538949752        3.7468506768        1.6998028508  WZ2       2004            0.0000000000
      8507      2836  TIP3      H1             -8.7856749752        3.2712306768        0.8796528508  WZ2       2004            0.0000000000
      8508      2836  TIP3      H2             -9.2531549752        4.4912106768        1.6445128508  WZ2       2004            0.0000000000
      8509      2837  TIP3      OH2            -9.1076649752       20.6298806768      -15.1237971492  WZ2       2005            0.0000000000
      8510      2837  TIP3      H1             -8.1745949752       20.7877506768      -14.9799571492  WZ2       2005            0.0000000000
      8511      2837  TIP3      H2             -9.3717849752       21.3051806768      -15.7486471492  WZ2       2005            0.0000000000
      8512      2838  TIP3      OH2           -15.5391749752       15.2662606768      -15.6409871492  WZ2       2006            0.0000000000
      8513      2838  TIP3      H1            -14.6252549752       15.3451506768      -15.3675971492  WZ2       2006            0.0000000000
      8514      2838  TIP3      H2            -15.5318649752       14.5792206768      -16.3074271492  WZ2       2006            0.0000000000
      8515      2839  TIP3      OH2           -16.8901149752       20.6591106768      -10.5635971492  WZ2       2007            0.0000000000
      8516      2839  TIP3      H1            -17.5374049752       20.1972806768      -11.0964771492  WZ2       2007            0.0000000000
      8517      2839  TIP3      H2            -16.5356549752       19.9874406768       -9.9809771492  WZ2       2007            0.0000000000
      8518      2840  TIP3      OH2           -16.0201949752       18.7398106768       -8.7589771492  WZ2       2008            0.0000000000
      8519      2840  TIP3      H1            -16.3545149752       17.8595406768       -8.5869571492  WZ2       2008            0.0000000000
      8520      2840  TIP3      H2            -15.7979549752       19.0853106768       -7.8944171492  WZ2       2008            0.0000000000
      8521      2841  TIP3      OH2             1.5282850248       19.5494506768       -5.7784971492  WZ2       2009            0.0000000000
      8522      2841  TIP3      H1              1.5069550248       19.7342906768       -4.8395571492  WZ2       2009            0.0000000000
      8523      2841  TIP3      H2              2.2189050248       20.1178506768       -6.1193571492  WZ2       2009            0.0000000000
      8524      2842  TIP3      OH2             1.0915750248       19.1165606768       -2.8565871492  WZ2       2010            0.0000000000
      8525      2842  TIP3      H1              0.6044450248       18.3809706768       -3.2278471492  WZ2       2010            0.0000000000
      8526      2842  TIP3      H2              1.6408450248       18.7229506768       -2.1786471492  WZ2       2010            0.0000000000
      8527      2843  TIP3      OH2            -0.4576949752       14.9063706768        1.7814428508  WZ2       2011            0.0000000000
      8528      2843  TIP3      H1             -1.3235849752       14.8013406768        2.1756728508  WZ2       2011            0.0000000000
      8529      2843  TIP3      H2             -0.0811049752       15.6647006768        2.2279128508  WZ2       2011            0.0000000000
      8530      2844  TIP3      OH2             0.8432750248       13.1627406768      -12.7043071492  WZ2       2012            0.0000000000
      8531      2844  TIP3      H1              1.6934150248       13.5838306768      -12.5771471492  WZ2       2012            0.0000000000
      8532      2844  TIP3      H2              0.8487850248       12.4227506768      -12.0971671492  WZ2       2012            0.0000000000
      8533      2845  TIP3      OH2             1.2378350248       11.2164806768      -10.8807371492  WZ2       2013            0.0000000000
      8534      2845  TIP3      H1              0.5112950248       10.7367406768      -10.4829771492  WZ2       2013            0.0000000000
      8535      2845  TIP3      H2              1.8191650248       11.4219506768      -10.1485771492  WZ2       2013            0.0000000000
      8536      2846  TIP3      OH2             0.9969550248       14.0012306768       -5.9329771492  WZ2       2014            0.0000000000
      8537      2846  TIP3      H1              1.8303750248       13.6232306768       -6.2136171492  WZ2       2014            0.0000000000
      8538      2846  TIP3      H2              1.1089850248       14.9443506768       -6.0520671492  WZ2       2014            0.0000000000
      8539      2847  TIP3      OH2            -0.5168149752       16.8789806768       -3.6261371492  WZ2       2015            0.0000000000
      8540      2847  TIP3      H1             -1.1642849752       17.2041306768       -3.0006171492  WZ2       2015            0.0000000000
      8541      2847  TIP3      H2             -1.0344149752       16.4387506768       -4.3003071492  WZ2       2015            0.0000000000
      8542      2848  TIP3      OH2             1.5061450248       11.1173306768      -14.4896071492  WZ2       2016            0.0000000000
      8543      2848  TIP3      H1              0.9842550248       11.4737406768      -15.2085171492  WZ2       2016            0.0000000000
      8544      2848  TIP3      H2              1.4730650248       11.7921106768      -13.8115171492  WZ2       2016            0.0000000000
      8545      2849  TIP3      OH2            -0.1449549752        8.3568906768      -15.9388971492  WZ2       2017            0.0000000000
      8546      2849  TIP3      H1             -0.0485149752        9.0235906768      -16.6189271492  WZ2       2017            0.0000000000
      8547      2849  TIP3      H2             -0.2849949752        7.5415206768      -16.4203471492  WZ2       2017            0.0000000000
      8548      2850  TIP3      OH2            -0.9754849752        9.7371306768      -10.3178671492  WZ2       2018            0.0000000000
      8549      2850  TIP3      H1             -1.1256049752        8.7919906768      -10.3380871492  WZ2       2018            0.0000000000
      8550      2850  TIP3      H2             -1.3290349752       10.0182706768       -9.4739571492  WZ2       2018            0.0000000000
      8551      2851  TIP3      OH2           -15.9402449752       11.8153506768       -6.3074871492  WZ2       2019            0.0000000000
      8552      2851  TIP3      H1            -15.7559549752       11.7335206768       -7.2431971492  WZ2       2019            0.0000000000
      8553      2851  TIP3      H2            -15.0909549752       11.6910506768       -5.8838471492  WZ2       2019            0.0000000000
      8554      2852  TIP3      OH2            -0.1191949752       11.7074606768       -0.6790371492  WZ2       2020            0.0000000000
      8555      2852  TIP3      H1              0.4635350248       10.9726906768       -0.4873171492  WZ2       2020            0.0000000000
      8556      2852  TIP3      H2              0.4447350248       12.4794906768       -0.6324571492  WZ2       2020            0.0000000000
      8557      2853  TIP3      OH2             1.3775150248        9.6100406768        0.0055028508  WZ2       2021            0.0000000000
      8558      2853  TIP3      H1              0.5141850248        9.2312506768       -0.1600271492  WZ2       2021            0.0000000000
      8559      2853  TIP3      H2              1.9818850248        8.8715206768       -0.0689171492  WZ2       2021            0.0000000000
      8560      2854  TIP3      OH2            -0.8975749752        5.7648706768      -16.8213471492  WZ2       2022            0.0000000000
      8561      2854  TIP3      H1             -0.2869949752        5.3935506768      -16.1845271492  WZ2       2022            0.0000000000
      8562      2854  TIP3      H2             -1.7344249752        5.3435606768      -16.6253471492  WZ2       2022            0.0000000000
      8563      2855  TIP3      OH2            -1.2650049752        7.3197106768      -11.8553571492  WZ2       2023            0.0000000000
      8564      2855  TIP3      H1             -0.9852949752        6.4127506768      -11.7311871492  WZ2       2023            0.0000000000
      8565      2855  TIP3      H2             -0.5058349752        7.7538606768      -12.2444371492  WZ2       2023            0.0000000000
      8566      2856  TIP3      OH2            -0.6531749752        7.9014506768       -6.4194671492  WZ2       2024            0.0000000000
      8567      2856  TIP3      H1              0.2796250248        8.1134406768       -6.4538671492  WZ2       2024            0.0000000000
      8568      2856  TIP3      H2             -0.8884249752        8.0026606768       -5.4971671492  WZ2       2024            0.0000000000
      8569      2857  TIP3      OH2            -0.6239849752        8.6379806768       -3.6435271492  WZ2       2025            0.0000000000
      8570      2857  TIP3      H1             -1.4668549752        8.9060206768       -3.2775471492  WZ2       2025            0.0000000000
      8571      2857  TIP3      H2             -0.1815549752        9.4601706768       -3.8544171492  WZ2       2025            0.0000000000
      8572      2858  TIP3      OH2           -16.3427649752        7.0858506768       -0.1666071492  WZ2       2026            0.0000000000
      8573      2858  TIP3      H1            -15.4232749752        6.9636806768        0.0697028508  WZ2       2026            0.0000000000
      8574      2858  TIP3      H2            -16.7923149752        6.3358206768        0.2227428508  WZ2       2026            0.0000000000
      8575      2859  TIP3      OH2             1.6591750248        2.6180006768        1.7099728508  WZ2       2027            0.0000000000
      8576      2859  TIP3      H1              2.0088750248        1.9643506768        1.1044428508  WZ2       2027            0.0000000000
      8577      2859  TIP3      H2              1.8061250248        3.4554106768        1.2702328508  WZ2       2027            0.0000000000
      8578      2860  TIP3      OH2            -0.6515249752        4.5826406768      -11.8071571492  WZ2       2028            0.0000000000
      8579      2860  TIP3      H1             -0.4690249752        4.1337906768      -10.9816571492  WZ2       2028            0.0000000000
      8580      2860  TIP3      H2             -1.2512349752        3.9980806768      -12.2706971492  WZ2       2028            0.0000000000
      8581      2861  TIP3      OH2           -15.1215149752        5.3980106768       -7.2753171492  WZ2       2029            0.0000000000
      8582      2861  TIP3      H1            -14.6763549752        4.6062606768       -6.9733471492  WZ2       2029            0.0000000000
      8583      2861  TIP3      H2            -14.6552149752        6.1145306768       -6.8447571492  WZ2       2029            0.0000000000
      8584      2862  TIP3      OH2           -16.8174849752        8.3973106768       -6.2062971492  WZ2       2030            0.0000000000
      8585      2862  TIP3      H1            -16.3255049752        8.1763606768       -6.9970971492  WZ2       2030            0.0000000000
      8586      2862  TIP3      H2            -16.4553949752        9.2376506768       -5.9253471492  WZ2       2030            0.0000000000
      8587      2863  TIP3      OH2             1.1788950248        4.7274606768        0.0591028508  WZ2       2031            0.0000000000
      8588      2863  TIP3      H1              0.2614650248        4.9981706768        0.0234528508  WZ2       2031            0.0000000000
      8589      2863  TIP3      H2              1.3018350248        4.1923006768       -0.7249271492  WZ2       2031            0.0000000000
      8590      2864  TIP3      OH2             1.2150950248        4.6504506768      -15.2791271492  WZ2       2032            0.0000000000
      8591      2864  TIP3      H1              1.6273550248        3.9290206768      -15.7543271492  WZ2       2032            0.0000000000
      8592      2864  TIP3      H2              1.8967450248        5.3199106768      -15.2206971492  WZ2       2032            0.0000000000
      8593      2865  TIP3      OH2           -16.5038349752        4.6552206768      -12.1520571492  WZ2       2033            0.0000000000
      8594      2865  TIP3      H1            -17.4289949752        4.8638806768      -12.2815071492  WZ2       2033            0.0000000000
      8595      2865  TIP3      H2            -16.0498449752        5.1393006768      -12.8418271492  WZ2       2033            0.0000000000
      8596      2866  TIP3      OH2            -1.7331149752       19.6393906768      -10.2063171492  WZ2       2034            0.0000000000
      8597      2866  TIP3      H1             -1.0808249752       19.2916006768      -10.8144071492  WZ2       2034            0.0000000000
      8598      2866  TIP3      H2             -1.2227349752       20.1277106768       -9.5603471492  WZ2       2034            0.0000000000
      8599      2867  TIP3      OH2           -16.5402949752        3.3931206768       -3.8078071492  WZ2       2035            0.0000000000
      8600      2867  TIP3      H1            -17.2052449752        3.1471506768       -3.1647171492  WZ2       2035            0.0000000000
      8601      2867  TIP3      H2            -16.9831649752        4.0151606768       -4.3850071492  WZ2       2035            0.0000000000
      8602      2868  TIP3      OH2           -14.3483649752       16.5685306768        0.3367728508  WZ2       2036            0.0000000000
      8603      2868  TIP3      H1            -15.1691149752       16.7431806768       -0.1237571492  WZ2       2036            0.0000000000
      8604      2868  TIP3      H2            -14.6005849752       16.4950006768        1.2572128508  WZ2       2036            0.0000000000
      8605      2869  TIP3      OH2           -11.3940749752       17.5426506768       -3.4048271492  WZ2       2037            0.0000000000
      8606      2869  TIP3      H1            -11.8189649752       18.3525006768       -3.6873671492  WZ2       2037            0.0000000000
      8607      2869  TIP3      H2            -10.4897949752       17.6280606768       -3.7068471492  WZ2       2037            0.0000000000
      8608      2870  TIP3      OH2            -7.0829349752       18.9416506768       -0.4454571492  WZ2       2038            0.0000000000
      8609      2870  TIP3      H1             -6.8981849752       18.6082606768        0.4325728508  WZ2       2038            0.0000000000
      8610      2870  TIP3      H2             -6.2364849752       19.2515106768       -0.7675371492  WZ2       2038            0.0000000000
      8611      2871  TIP3      OH2            -4.7378949752       20.2275406768       -1.2013171492  WZ2       2039            0.0000000000
      8612      2871  TIP3      H1             -4.0610049752       19.5947706768       -1.4413971492  WZ2       2039            0.0000000000
      8613      2871  TIP3      H2             -4.4160149752       20.6285906768       -0.3939871492  WZ2       2039            0.0000000000
      8614      2872  TIP3      OH2             0.1794850248        2.8170906768       -2.1218171492  WZ2       2040            0.0000000000
      8615      2872  TIP3      H1             -0.6331649752        3.1421206768       -2.5093471492  WZ2       2040            0.0000000000
      8616      2872  TIP3      H2              0.4123350248        2.0569406768       -2.6549071492  WZ2       2040            0.0000000000
      8617      2873  TIP3      OH2           -13.9924049752       20.7990406768       -3.3572971492  WZ2       2041            0.0000000000
      8618      2873  TIP3      H1            -14.7127649752       21.2391406768       -3.8085271492  WZ2       2041            0.0000000000
      8619      2873  TIP3      H2            -14.3580049752       20.5485106768       -2.5088971492  WZ2       2041            0.0000000000
      8620      2874  TIP3      OH2           -11.5251449752       20.3994306768       -4.3275771492  WZ2       2042            0.0000000000
      8621      2874  TIP3      H1            -12.3899249752       20.4712806768       -3.9235671492  WZ2       2042            0.0000000000
      8622      2874  TIP3      H2            -11.5802449752       20.9461606768       -5.1113271492  WZ2       2042            0.0000000000
      8623      2875  TIP3      OH2            -6.8145849752       20.2873206768       -5.1519771492  WZ2       2043            0.0000000000
      8624      2875  TIP3      H1             -7.2711849752       20.8162906768       -5.8061371492  WZ2       2043            0.0000000000
      8625      2875  TIP3      H2             -6.6517849752       20.8904606768       -4.4267471492  WZ2       2043            0.0000000000
      8626      2876  TIP3      OH2            -4.4869549752       19.1652806768       -4.2069471492  WZ2       2044            0.0000000000
      8627      2876  TIP3      H1             -5.3915849752       19.3303006768       -4.4727371492  WZ2       2044            0.0000000000
      8628      2876  TIP3      H2             -4.0580949752       20.0185006768       -4.2726071492  WZ2       2044            0.0000000000
      8629      2877  TIP3      OH2            -1.8827649752       20.7351906768       -3.9121671492  WZ2       2045            0.0000000000
      8630      2877  TIP3      H1             -2.0645649752       21.6510806768       -4.1226771492  WZ2       2045            0.0000000000
      8631      2877  TIP3      H2             -1.7059849752       20.3249006768       -4.7587071492  WZ2       2045            0.0000000000
      8632      2878  TIP3      OH2           -14.5775949752       19.4222906768       -6.4471171492  WZ2       2046            0.0000000000
      8633      2878  TIP3      H1            -14.5959949752       18.9968006768       -5.5898871492  WZ2       2046            0.0000000000
      8634      2878  TIP3      H2            -13.7728049752       19.1037906768       -6.8558971492  WZ2       2046            0.0000000000
      8635      2879  TIP3      OH2           -12.4362849752       18.1321606768       -7.7921271492  WZ2       2047            0.0000000000
      8636      2879  TIP3      H1            -12.6552149752       17.2159006768       -7.6225271492  WZ2       2047            0.0000000000
      8637      2879  TIP3      H2            -11.6120649752       18.2722006768       -7.3259871492  WZ2       2047            0.0000000000
      8638      2880  TIP3      OH2            -9.8990349752       18.6020906768       -6.9433271492  WZ2       2048            0.0000000000
      8639      2880  TIP3      H1             -9.6864649752       17.7139906768       -7.2302371492  WZ2       2048            0.0000000000
      8640      2880  TIP3      H2             -9.8345249752       18.5678606768       -5.9889271492  WZ2       2048            0.0000000000
      8641      2881  TIP3      OH2            -6.3906649752        4.2661506768       -7.7989971492  WZ2       2049            0.0000000000
      8642      2881  TIP3      H1             -7.0649849752        3.6367106768       -7.5434171492  WZ2       2049            0.0000000000
      8643      2881  TIP3      H2             -5.8267449752        3.7820406768       -8.4022071492  WZ2       2049            0.0000000000
      8644      2882  TIP3      OH2            -1.2479449752        2.3735506768       -7.6862871492  WZ2       2050            0.0000000000
      8645      2882  TIP3      H1             -0.6441849752        2.9210906768       -8.1881871492  WZ2       2050            0.0000000000
      8646      2882  TIP3      H2             -2.1177449752        2.6925906768       -7.9268771492  WZ2       2050            0.0000000000
      8647      2883  TIP3      OH2             0.4790950248        3.5124206768       -9.3531971492  WZ2       2051            0.0000000000
      8648      2883  TIP3      H1              1.0908450248        2.9979906768       -9.8798371492  WZ2       2051            0.0000000000
      8649      2883  TIP3      H2              0.8614350248        4.3896306768       -9.3297571492  WZ2       2051            0.0000000000
      8650      2884  TIP3      OH2           -14.0639149752        2.9001806768       -9.9770071492  WZ2       2052            0.0000000000
      8651      2884  TIP3      H1            -14.8409349752        2.6656706768      -10.4844171492  WZ2       2052            0.0000000000
      8652      2884  TIP3      H2            -13.5335549752        2.1033906768       -9.9682071492  WZ2       2052            0.0000000000
      8653      2885  TIP3      OH2           -15.2275749752        2.6979906768      -14.1733971492  WZ2       2053            0.0000000000
      8654      2885  TIP3      H1            -14.7885049752        3.3090406768      -14.7650471492  WZ2       2053            0.0000000000
      8655      2885  TIP3      H2            -15.8613349752        3.2364006768      -13.6993971492  WZ2       2053            0.0000000000
      8656      2886  TIP3      OH2            -9.4846549752        2.8268906768      -10.1636971492  WZ2       2054            0.0000000000
      8657      2886  TIP3      H1             -8.6103149752        3.2153206768      -10.1932671492  WZ2       2054            0.0000000000
      8658      2886  TIP3      H2             -9.6205749752        2.6116706768       -9.2409771492  WZ2       2054            0.0000000000
      8659      2887  TIP3      OH2            -3.9278149752        2.8568706768       -8.5145271492  WZ2       2055            0.0000000000
      8660      2887  TIP3      H1             -3.8516549752        2.9520306768       -9.4639271492  WZ2       2055            0.0000000000
      8661      2887  TIP3      H2             -4.2028949752        1.9491606768       -8.3856171492  WZ2       2055            0.0000000000
      8662      2888  TIP3      OH2            -2.5745549752        2.8826506768      -12.8220271492  WZ2       2056            0.0000000000
      8663      2888  TIP3      H1             -3.2774449752        3.4975706768      -13.0318871492  WZ2       2056            0.0000000000
      8664      2888  TIP3      H2             -3.0194149752        2.0453206768      -12.6909371492  WZ2       2056            0.0000000000
      8665      2889  TIP3      OH2           -15.3266249752       18.6462106768      -13.2758871492  WZ2       2057            0.0000000000
      8666      2889  TIP3      H1            -16.0116349752       18.6081006768      -13.9433771492  WZ2       2057            0.0000000000
      8667      2889  TIP3      H2            -15.3229049752       19.5589706768      -12.9876771492  WZ2       2057            0.0000000000
      8668      2890  TIP3      OH2           -13.3666649752        4.6141406768      -15.7309871492  WZ2       2058            0.0000000000
      8669      2890  TIP3      H1            -12.8753249752        3.9843806768      -16.2584371492  WZ2       2058            0.0000000000
      8670      2890  TIP3      H2            -12.7430349752        4.9100806768      -15.0678671492  WZ2       2058            0.0000000000
      8671      2891  TIP3      OH2            -8.3406549752        4.9072906768      -13.2739371492  WZ2       2059            0.0000000000
      8672      2891  TIP3      H1             -8.1625249752        4.2606106768      -12.5910771492  WZ2       2059            0.0000000000
      8673      2891  TIP3      H2             -8.3940349752        5.7410606768      -12.8068271492  WZ2       2059            0.0000000000
      8674      2892  TIP3      OH2            -6.4622749752       19.8557006768      -14.8782671492  WZ2       2060            0.0000000000
      8675      2892  TIP3      H1             -5.5962549752       20.2224406768      -15.0564471492  WZ2       2060            0.0000000000
      8676      2892  TIP3      H2             -6.7089949752       19.4165006768      -15.6921871492  WZ2       2060            0.0000000000
      8677      2893  TIP3      OH2             0.2466850248       19.4187306768      -12.1991571492  WZ2       2061            0.0000000000
      8678      2893  TIP3      H1              0.0523950248       18.6709406768      -12.7641971492  WZ2       2061            0.0000000000
      8679      2893  TIP3      H2              0.2076950248       20.1767406768      -12.7823671492  WZ2       2061            0.0000000000
      8680      2894  TIP3      OH2           -14.1061149752        3.4143706768       -0.4593871492  WZ2       2062            0.0000000000
      8681      2894  TIP3      H1            -14.4722949752        2.6486306768       -0.0169171492  WZ2       2062            0.0000000000
      8682      2894  TIP3      H2            -13.1932649752        3.4433906768       -0.1728771492  WZ2       2062            0.0000000000
      8683      2895  TIP3      OH2           -12.1330349752        2.7648106768        1.0763228508  WZ2       2063            0.0000000000
      8684      2895  TIP3      H1            -11.2346749752        2.4908306768        0.8916628508  WZ2       2063            0.0000000000
      8685      2895  TIP3      H2            -12.5197249752        2.0224106768        1.5405828508  WZ2       2063            0.0000000000
      8686      2896  TIP3      OH2           -13.5085049752       19.5662906768      -16.2506771492  WZ2       2064            0.0000000000
      8687      2896  TIP3      H1            -13.7760449752       19.8525806768      -15.3773671492  WZ2       2064            0.0000000000
      8688      2896  TIP3      H2            -12.7372449752       19.0202106768      -16.0984271492  WZ2       2064            0.0000000000
      8689      2897  TIP3      OH2            -3.7118049752        2.0973406768        1.2586028508  WZ2       2065            0.0000000000
      8690      2897  TIP3      H1             -3.6350849752        1.6714106768        2.1123728508  WZ2       2065            0.0000000000
      8691      2897  TIP3      H2             -2.8181449752        2.1108106768        0.9159528508  WZ2       2065            0.0000000000
      8692      2898  TIP3      OH2            -0.5356949752       18.1699706768       -0.0489771492  WZ2       2066            0.0000000000
      8693      2898  TIP3      H1             -1.3175049752       17.9837706768       -0.5689171492  WZ2       2066            0.0000000000
      8694      2898  TIP3      H2             -0.6077049752       19.0994006768        0.1682728508  WZ2       2066            0.0000000000
      8695      2899  TIP3      OH2            13.8703450248       12.0564106768      -10.0182571492  WZ2       2067            0.0000000000
      8696      2899  TIP3      H1             13.9594550248       13.0002306768      -10.1505471492  WZ2       2067            0.0000000000
      8697      2899  TIP3      H2             13.2321050248       11.7810506768      -10.6763171492  WZ2       2067            0.0000000000
      8698      2900  TIP3      OH2            12.8034750248       11.3114806768       -6.5994371492  WZ2       2068            0.0000000000
      8699      2900  TIP3      H1             12.7652250248       10.6651106768       -5.8944771492  WZ2       2068            0.0000000000
      8700      2900  TIP3      H2             12.4811250248       10.8449206768       -7.3705671492  WZ2       2068            0.0000000000
      8701      2901  TIP3      OH2             5.1719750248       10.9256906768       -5.0064471492  WZ2       2069            0.0000000000
      8702      2901  TIP3      H1              5.2131850248       10.3000206768       -4.2832071492  WZ2       2069            0.0000000000
      8703      2901  TIP3      H2              5.8747450248       11.5495506768       -4.8244071492  WZ2       2069            0.0000000000
      8704      2902  TIP3      OH2            16.5094950248       14.2505206768       -8.2979271492  WZ2       2070            0.0000000000
      8705      2902  TIP3      H1             16.0687650248       13.5301206768       -7.8473671492  WZ2       2070            0.0000000000
      8706      2902  TIP3      H2             16.4964650248       14.9712406768       -7.6681571492  WZ2       2070            0.0000000000
      8707      2903  TIP3      OH2             6.0952850248       15.3755806768       -6.4715371492  WZ2       2071            0.0000000000
      8708      2903  TIP3      H1              5.7258050248       14.5736306768       -6.8411071492  WZ2       2071            0.0000000000
      8709      2903  TIP3      H2              7.0363950248       15.2070706768       -6.4251971492  WZ2       2071            0.0000000000
      8710      2904  TIP3      OH2             2.7053350248        9.0358406768      -11.0786571492  WZ2       2072            0.0000000000
      8711      2904  TIP3      H1              2.2576750248        9.8817106768      -11.0970071492  WZ2       2072            0.0000000000
      8712      2904  TIP3      H2              2.1444550248        8.4562606768      -11.5941471492  WZ2       2072            0.0000000000
      8713      2905  TIP3      OH2             3.4159450248       11.1978006768       -8.9528571492  WZ2       2073            0.0000000000
      8714      2905  TIP3      H1              3.6292950248       10.4279606768       -8.4255571492  WZ2       2073            0.0000000000
      8715      2905  TIP3      H2              4.1537050248       11.2874706768       -9.5560971492  WZ2       2073            0.0000000000
      8716      2906  TIP3      OH2            13.6210450248       19.3546906768       -8.0858871492  WZ2       2074            0.0000000000
      8717      2906  TIP3      H1             14.2406850248       18.6781606768       -8.3589671492  WZ2       2074            0.0000000000
      8718      2906  TIP3      H2             13.4127850248       19.1367706768       -7.1773971492  WZ2       2074            0.0000000000
      8719      2907  TIP3      OH2            11.1929150248       13.7436206768       -6.1933371492  WZ2       2075            0.0000000000
      8720      2907  TIP3      H1             11.4967050248       13.0577606768       -6.7879271492  WZ2       2075            0.0000000000
      8721      2907  TIP3      H2             11.9143150248       13.8624906768       -5.5755371492  WZ2       2075            0.0000000000
      8722      2908  TIP3      OH2            19.8558950248        5.3451506768       -5.3327171492  WZ2       2076            0.0000000000
      8723      2908  TIP3      H1             19.9051150248        5.9552706768       -4.5968071492  WZ2       2076            0.0000000000
      8724      2908  TIP3      H2             20.2814050248        5.8062406768       -6.0556071492  WZ2       2076            0.0000000000
      8725      2909  TIP3      OH2            14.3336150248        8.1378606768       -5.8658571492  WZ2       2077            0.0000000000
      8726      2909  TIP3      H1             14.4762050248        7.1915606768       -5.8456971492  WZ2       2077            0.0000000000
      8727      2909  TIP3      H2             14.2275150248        8.3448406768       -6.7943671492  WZ2       2077            0.0000000000
      8728      2910  TIP3      OH2             7.4884450248        6.2395006768       -8.5933771492  WZ2       2078            0.0000000000
      8729      2910  TIP3      H1              7.5315550248        7.0993506768       -9.0117471492  WZ2       2078            0.0000000000
      8730      2910  TIP3      H2              7.0308550248        5.6869706768       -9.2270571492  WZ2       2078            0.0000000000
      8731      2911  TIP3      OH2            15.2107150248        6.3700606768      -10.1925471492  WZ2       2079            0.0000000000
      8732      2911  TIP3      H1             15.8571450248        6.0413806768       -9.5677871492  WZ2       2079            0.0000000000
      8733      2911  TIP3      H2             15.7206550248        6.8879606768      -10.8154071492  WZ2       2079            0.0000000000
      8734      2912  TIP3      OH2             4.1085950248        8.6360806768       -7.8312371492  WZ2       2080            0.0000000000
      8735      2912  TIP3      H1              4.7622550248        8.0862506768       -7.3992271492  WZ2       2080            0.0000000000
      8736      2912  TIP3      H2              4.1325250248        8.3619806768       -8.7480371492  WZ2       2080            0.0000000000
      8737      2913  TIP3      OH2             9.2650450248       10.1862106768       -8.6160871492  WZ2       2081            0.0000000000
      8738      2913  TIP3      H1              9.8811450248        9.6597506768       -8.1066871492  WZ2       2081            0.0000000000
      8739      2913  TIP3      H2              8.6789250248        9.5460806768       -9.0197271492  WZ2       2081            0.0000000000
      8740      2914  TIP3      OH2            20.2473550248        6.8230706768       -3.0967371492  WZ2       2082            0.0000000000
      8741      2914  TIP3      H1             19.5588150248        7.4811406768       -3.1920771492  WZ2       2082            0.0000000000
      8742      2914  TIP3      H2             20.2628150248        6.6258606768       -2.1601971492  WZ2       2082            0.0000000000
      8743      2915  TIP3      OH2             6.2986350248        5.1573406768       -4.5192971492  WZ2       2083            0.0000000000
      8744      2915  TIP3      H1              6.0798050248        5.6874006768       -5.2856971492  WZ2       2083            0.0000000000
      8745      2915  TIP3      H2              5.6307250248        5.3838906768       -3.8721571492  WZ2       2083            0.0000000000
      8746      2916  TIP3      OH2            13.6676150248       14.6574506768      -10.9753871492  WZ2       2084            0.0000000000
      8747      2916  TIP3      H1             13.3721250248       14.3346806768      -11.8266971492  WZ2       2084            0.0000000000
      8748      2916  TIP3      H2             13.3433950248       15.5571206768      -10.9341271492  WZ2       2084            0.0000000000
      8749      2917  TIP3      OH2             8.8677750248       12.8329106768       -4.2319271492  WZ2       2085            0.0000000000
      8750      2917  TIP3      H1              8.1276850248       13.4310606768       -4.1284071492  WZ2       2085            0.0000000000
      8751      2917  TIP3      H2              9.5817250248       13.3868706768       -4.5475671492  WZ2       2085            0.0000000000
      8752      2918  TIP3      OH2            16.9745550248        5.6609906768       -8.2119571492  WZ2       2086            0.0000000000
      8753      2918  TIP3      H1             16.7593550248        4.8953306768       -7.6793571492  WZ2       2086            0.0000000000
      8754      2918  TIP3      H2             17.6302950248        6.1334506768       -7.6991071492  WZ2       2086            0.0000000000
      8755      2919  TIP3      OH2             5.8923650248        7.0495206768       -6.5670771492  WZ2       2087            0.0000000000
      8756      2919  TIP3      H1              6.5059950248        7.6822806768       -6.1938371492  WZ2       2087            0.0000000000
      8757      2919  TIP3      H2              6.4044350248        6.5770206768       -7.2233871492  WZ2       2087            0.0000000000
      8758      2920  TIP3      OH2             7.2752050248       14.7972106768       -3.4447771492  WZ2       2088            0.0000000000
      8759      2920  TIP3      H1              7.2699650248       15.6765606768       -3.8228471492  WZ2       2088            0.0000000000
      8760      2920  TIP3      H2              6.4216150248       14.7136206768       -3.0197871492  WZ2       2088            0.0000000000
      8761      2921  TIP3      OH2             3.3962950248       14.4680006768      -12.6628471492  WZ2       2089            0.0000000000
      8762      2921  TIP3      H1              3.1243850248       14.6971006768      -13.5515571492  WZ2       2089            0.0000000000
      8763      2921  TIP3      H2              3.4418650248       15.3058806768      -12.2023171492  WZ2       2089            0.0000000000
      8764      2922  TIP3      OH2            17.0212650248       16.0895906768       -5.9499971492  WZ2       2090            0.0000000000
      8765      2922  TIP3      H1             16.0796350248       16.1479806768       -5.7883071492  WZ2       2090            0.0000000000
      8766      2922  TIP3      H2             17.2978750248       16.9956406768       -6.0870271492  WZ2       2090            0.0000000000
      8767      2923  TIP3      OH2            17.3219650248        4.3761206768       -4.5326071492  WZ2       2091            0.0000000000
      8768      2923  TIP3      H1             16.5858850248        4.9868306768       -4.5704771492  WZ2       2091            0.0000000000
      8769      2923  TIP3      H2             18.0053650248        4.7910206768       -5.0589671492  WZ2       2091            0.0000000000
      8770      2924  TIP3      OH2            10.3251050248        2.4628506768       -7.0668071492  WZ2       2092            0.0000000000
      8771      2924  TIP3      H1             10.2075250248        1.5144506768       -7.1209771492  WZ2       2092            0.0000000000
      8772      2924  TIP3      H2              9.4701150248        2.7954606768       -6.7936971492  WZ2       2092            0.0000000000
      8773      2925  TIP3      OH2            15.2733850248       17.8709406768       -9.3248371492  WZ2       2093            0.0000000000
      8774      2925  TIP3      H1             15.6986150248       17.1637306768       -9.8098771492  WZ2       2093            0.0000000000
      8775      2925  TIP3      H2             15.5903850248       18.6722106768       -9.7416171492  WZ2       2093            0.0000000000
      8776      2926  TIP3      OH2            16.4330350248       15.7717906768      -10.8161771492  WZ2       2094            0.0000000000
      8777      2926  TIP3      H1             16.1755150248       15.0818006768      -11.4275871492  WZ2       2094            0.0000000000
      8778      2926  TIP3      H2             16.5041150248       15.3289106768       -9.9705871492  WZ2       2094            0.0000000000
      8779      2927  TIP3      OH2            18.1190550248       14.3384606768       -2.3388271492  WZ2       2095            0.0000000000
      8780      2927  TIP3      H1             18.2586850248       13.7467106768       -3.0781271492  WZ2       2095            0.0000000000
      8781      2927  TIP3      H2             18.2863350248       15.2110506768       -2.6949471492  WZ2       2095            0.0000000000
      8782      2928  TIP3      OH2            12.5915950248       11.3004106768      -12.5662271492  WZ2       2096            0.0000000000
      8783      2928  TIP3      H1             11.8801450248       11.8353806768      -12.9181771492  WZ2       2096            0.0000000000
      8784      2928  TIP3      H2             13.2825550248       11.3556206768      -13.2263371492  WZ2       2096            0.0000000000
      8785      2929  TIP3      OH2            12.6455150248        9.7578406768      -15.5277271492  WZ2       2097            0.0000000000
      8786      2929  TIP3      H1             13.3465050248        9.7805306768      -14.8763271492  WZ2       2097            0.0000000000
      8787      2929  TIP3      H2             12.9478050248        9.1298106768      -16.1837971492  WZ2       2097            0.0000000000
      8788      2930  TIP3      OH2            19.9609850248       10.6782606768       -4.2727871492  WZ2       2098            0.0000000000
      8789      2930  TIP3      H1             19.3083950248       11.3728206768       -4.1836971492  WZ2       2098            0.0000000000
      8790      2930  TIP3      H2             20.4260150248       10.8883506768       -5.0826271492  WZ2       2098            0.0000000000
      8791      2931  TIP3      OH2            15.9973650248       11.5097406768      -11.6146371492  WZ2       2099            0.0000000000
      8792      2931  TIP3      H1             15.2654650248       11.7381106768      -11.0415771492  WZ2       2099            0.0000000000
      8793      2931  TIP3      H2             16.4445850248       10.7960106768      -11.1598871492  WZ2       2099            0.0000000000
      8794      2932  TIP3      OH2            15.8947150248        9.6840006768       -2.5469371492  WZ2       2100            0.0000000000
      8795      2932  TIP3      H1             15.9746250248       10.4474406768       -1.9750871492  WZ2       2100            0.0000000000
      8796      2932  TIP3      H2             15.2934850248        9.9632406768       -3.2374271492  WZ2       2100            0.0000000000
      8797      2933  TIP3      OH2             7.6427350248       12.1403606768       -9.7321371492  WZ2       2101            0.0000000000
      8798      2933  TIP3      H1              7.3122550248       11.7697006768      -10.5504371492  WZ2       2101            0.0000000000
      8799      2933  TIP3      H2              8.2311450248       11.4697606768       -9.3853071492  WZ2       2101            0.0000000000
      8800      2934  TIP3      OH2             9.0094850248       15.5684206768       -7.0509171492  WZ2       2102            0.0000000000
      8801      2934  TIP3      H1              8.9146150248       14.9897306768       -7.8074571492  WZ2       2102            0.0000000000
      8802      2934  TIP3      H2              9.7388450248       15.1969906768       -6.5546371492  WZ2       2102            0.0000000000
      8803      2935  TIP3      OH2             8.0092850248       10.9089206768       -6.0986371492  WZ2       2103            0.0000000000
      8804      2935  TIP3      H1              8.5745350248       11.0303406768       -6.8615171492  WZ2       2103            0.0000000000
      8805      2935  TIP3      H2              8.3281750248       11.5464206768       -5.4597871492  WZ2       2103            0.0000000000
      8806      2936  TIP3      OH2            14.3185050248       16.4121106768       -5.3645871492  WZ2       2104            0.0000000000
      8807      2936  TIP3      H1             14.0781650248       17.0744206768       -4.7166671492  WZ2       2104            0.0000000000
      8808      2936  TIP3      H2             14.1203250248       15.5776306768       -4.9396271492  WZ2       2104            0.0000000000
      8809      2937  TIP3      OH2             8.8893550248       15.3081906768       -1.3814471492  WZ2       2105            0.0000000000
      8810      2937  TIP3      H1              8.5781050248       16.0905106768       -0.9261271492  WZ2       2105            0.0000000000
      8811      2937  TIP3      H2              8.2393750248       15.1551006768       -2.0672471492  WZ2       2105            0.0000000000
      8812      2938  TIP3      OH2            14.8683150248       10.6720306768      -13.9295171492  WZ2       2106            0.0000000000
      8813      2938  TIP3      H1             15.4478650248       10.8220606768      -13.1826271492  WZ2       2106            0.0000000000
      8814      2938  TIP3      H2             15.2823150248       11.1427706768      -14.6528771492  WZ2       2106            0.0000000000
      8815      2939  TIP3      OH2             5.8093450248       11.5063006768       -2.1528771492  WZ2       2107            0.0000000000
      8816      2939  TIP3      H1              5.8796650248       12.1569806768       -1.4543771492  WZ2       2107            0.0000000000
      8817      2939  TIP3      H2              4.9185650248       11.6090506768       -2.4877871492  WZ2       2107            0.0000000000
      8818      2940  TIP3      OH2            12.5948050248       17.4088806768      -10.4942071492  WZ2       2108            0.0000000000
      8819      2940  TIP3      H1             13.0685650248       17.7045106768       -9.7167871492  WZ2       2108            0.0000000000
      8820      2940  TIP3      H2             12.0317350248       18.1470406768      -10.7272471492  WZ2       2108            0.0000000000
      8821      2941  TIP3      OH2             7.1289450248       17.3796906768       -0.6180671492  WZ2       2109            0.0000000000
      8822      2941  TIP3      H1              7.1364750248       17.2436606768       -1.5655171492  WZ2       2109            0.0000000000
      8823      2941  TIP3      H2              6.2129850248       17.2625006768       -0.3660671492  WZ2       2109            0.0000000000
      8824      2942  TIP3      OH2            18.5671550248        2.4220706768      -14.1165471492  WZ2       2110            0.0000000000
      8825      2942  TIP3      H1             17.6672250248        2.5609706768      -13.8214871492  WZ2       2110            0.0000000000
      8826      2942  TIP3      H2             18.8189950248        3.2535306768      -14.5183771492  WZ2       2110            0.0000000000
      8827      2943  TIP3      OH2             6.6330050248       11.2097906768      -12.1428571492  WZ2       2111            0.0000000000
      8828      2943  TIP3      H1              6.3411350248       11.9779606768      -12.6337271492  WZ2       2111            0.0000000000
      8829      2943  TIP3      H2              5.9585250248       10.5504106768      -12.3057171492  WZ2       2111            0.0000000000
      8830      2944  TIP3      OH2            19.7562950248       16.7883106768      -15.7401571492  WZ2       2112            0.0000000000
      8831      2944  TIP3      H1             19.8296450248       17.7273306768      -15.5696271492  WZ2       2112            0.0000000000
      8832      2944  TIP3      H2             20.6618050248       16.4831706768      -15.7964271492  WZ2       2112            0.0000000000
      8833      2945  TIP3      OH2             2.7260150248       13.5727106768       -3.3278771492  WZ2       2113            0.0000000000
      8834      2945  TIP3      H1              2.2248550248       13.5446506768       -4.1429071492  WZ2       2113            0.0000000000
      8835      2945  TIP3      H2              2.7313850248       12.6670306768       -3.0181471492  WZ2       2113            0.0000000000
      8836      2946  TIP3      OH2             2.4762850248       16.3530906768       -6.4438571492  WZ2       2114            0.0000000000
      8837      2946  TIP3      H1              3.4223450248       16.2087906768       -6.4629071492  WZ2       2114            0.0000000000
      8838      2946  TIP3      H2              2.3639150248       17.1373706768       -5.9067371492  WZ2       2114            0.0000000000
      8839      2947  TIP3      OH2            20.6741350248       17.0190606768       -0.7614871492  WZ2       2115            0.0000000000
      8840      2947  TIP3      H1             20.6248150248       16.0638706768       -0.7987271492  WZ2       2115            0.0000000000
      8841      2947  TIP3      H2             19.8473650248       17.2865906768       -0.3601071492  WZ2       2115            0.0000000000
      8842      2948  TIP3      OH2            11.6525350248       16.5929806768       -1.8853471492  WZ2       2116            0.0000000000
      8843      2948  TIP3      H1             11.7399950248       17.4194406768       -1.4104371492  WZ2       2116            0.0000000000
      8844      2948  TIP3      H2             10.7890450248       16.2633606768       -1.6364171492  WZ2       2116            0.0000000000
      8845      2949  TIP3      OH2            12.0671150248       20.3653506768      -12.0792871492  WZ2       2117            0.0000000000
      8846      2949  TIP3      H1             11.9917150248       20.2440706768      -13.0257671492  WZ2       2117            0.0000000000
      8847      2949  TIP3      H2             12.0999850248       21.3146206768      -11.9608271492  WZ2       2117            0.0000000000
      8848      2950  TIP3      OH2             5.7204950248       19.1540506768      -10.2983871492  WZ2       2118            0.0000000000
      8849      2950  TIP3      H1              5.8725350248       18.8060906768       -9.4197371492  WZ2       2118            0.0000000000
      8850      2950  TIP3      H2              4.8695350248       18.7977806768      -10.5536671492  WZ2       2118            0.0000000000
      8851      2951  TIP3      OH2            15.1687150248       19.5193706768      -15.0770471492  WZ2       2119            0.0000000000
      8852      2951  TIP3      H1             15.5435550248       18.7749806768      -15.5477871492  WZ2       2119            0.0000000000
      8853      2951  TIP3      H2             15.1730850248       19.2494306768      -14.1587171492  WZ2       2119            0.0000000000
      8854      2952  TIP3      OH2            14.8375250248       19.4450806768      -12.3278271492  WZ2       2120            0.0000000000
      8855      2952  TIP3      H1             13.9025050248       19.5452706768      -12.1491271492  WZ2       2120            0.0000000000
      8856      2952  TIP3      H2             15.1177150248       18.7356806768      -11.7495071492  WZ2       2120            0.0000000000
      8857      2953  TIP3      OH2            17.8261150248        8.5123106768       -0.2812671492  WZ2       2121            0.0000000000
      8858      2953  TIP3      H1             17.4187950248        8.9928706768       -1.0019371492  WZ2       2121            0.0000000000
      8859      2953  TIP3      H2             17.8666850248        7.6069106768       -0.5891871492  WZ2       2121            0.0000000000
      8860      2954  TIP3      OH2             4.9750650248       14.8962506768       -2.2845971492  WZ2       2122            0.0000000000
      8861      2954  TIP3      H1              5.1911950248       14.5348106768       -1.4250171492  WZ2       2122            0.0000000000
      8862      2954  TIP3      H2              4.1195350248       14.5216306768       -2.4942471492  WZ2       2122            0.0000000000
      8863      2955  TIP3      OH2             7.5938650248        3.3663006768       -6.2891771492  WZ2       2123            0.0000000000
      8864      2955  TIP3      H1              6.7322350248        3.2791206768       -6.6968871492  WZ2       2123            0.0000000000
      8865      2955  TIP3      H2              7.5714350248        4.2223106768       -5.8614171492  WZ2       2123            0.0000000000
      8866      2956  TIP3      OH2            12.2566450248        3.0883406768       -2.9144771492  WZ2       2124            0.0000000000
      8867      2956  TIP3      H1             12.6769550248        2.6730506768       -2.1614171492  WZ2       2124            0.0000000000
      8868      2956  TIP3      H2             11.3236050248        2.9096706768       -2.7972771492  WZ2       2124            0.0000000000
      8869      2957  TIP3      OH2            15.5831350248        6.8438606768       -2.0610271492  WZ2       2125            0.0000000000
      8870      2957  TIP3      H1             15.0690850248        6.7180806768       -1.2634271492  WZ2       2125            0.0000000000
      8871      2957  TIP3      H2             15.4276050248        7.7561706768       -2.3054071492  WZ2       2125            0.0000000000
      8872      2958  TIP3      OH2            16.3456250248       11.7048606768      -16.2997271492  WZ2       2126            0.0000000000
      8873      2958  TIP3      H1             16.3877050248       11.4822506768      -17.2297271492  WZ2       2126            0.0000000000
      8874      2958  TIP3      H2             17.1948350248       12.1035706768      -16.1097371492  WZ2       2126            0.0000000000
      8875      2959  TIP3      OH2            11.9183750248        5.5806806768      -15.6293971492  WZ2       2127            0.0000000000
      8876      2959  TIP3      H1             11.6648550248        5.5998406768      -14.7065871492  WZ2       2127            0.0000000000
      8877      2959  TIP3      H2             11.6615850248        4.7092206768      -15.9307771492  WZ2       2127            0.0000000000
      8878      2960  TIP3      OH2             7.6848750248        8.3317506768       -5.1941571492  WZ2       2128            0.0000000000
      8879      2960  TIP3      H1              7.0430850248        8.2914806768       -4.4851471492  WZ2       2128            0.0000000000
      8880      2960  TIP3      H2              7.7220750248        9.2582206768       -5.4318571492  WZ2       2128            0.0000000000
      8881      2961  TIP3      OH2             7.6817850248        8.5527606768      -10.2821571492  WZ2       2129            0.0000000000
      8882      2961  TIP3      H1              6.7890750248        8.2123706768      -10.3407771492  WZ2       2129            0.0000000000
      8883      2961  TIP3      H2              8.1324450248        8.1758506768      -11.0378371492  WZ2       2129            0.0000000000
      8884      2962  TIP3      OH2            13.2173350248        8.9687906768      -11.4650771492  WZ2       2130            0.0000000000
      8885      2962  TIP3      H1             12.8083650248        9.7836506768      -11.7565971492  WZ2       2130            0.0000000000
      8886      2962  TIP3      H2             13.9379550248        8.8288006768      -12.0793671492  WZ2       2130            0.0000000000
      8887      2963  TIP3      OH2            12.3194950248        9.1444306768        0.0229928508  WZ2       2131            0.0000000000
      8888      2963  TIP3      H1             11.7568750248        8.4395906768        0.3437728508  WZ2       2131            0.0000000000
      8889      2963  TIP3      H2             13.1458350248        9.0236206768        0.4907528508  WZ2       2131            0.0000000000
      8890      2964  TIP3      OH2            14.2221050248        8.4148306768       -8.6511071492  WZ2       2132            0.0000000000
      8891      2964  TIP3      H1             14.0265550248        9.0205106768       -9.3660471492  WZ2       2132            0.0000000000
      8892      2964  TIP3      H2             14.4033650248        7.5813506768       -9.0854771492  WZ2       2132            0.0000000000
      8893      2965  TIP3      OH2             5.4349250248        8.6521006768       -3.3269571492  WZ2       2133            0.0000000000
      8894      2965  TIP3      H1              5.3968650248        9.0522606768       -2.4582471492  WZ2       2133            0.0000000000
      8895      2965  TIP3      H2              4.9440350248        7.8353406768       -3.2366671492  WZ2       2133            0.0000000000
      8896      2966  TIP3      OH2             8.8006650248        6.0263306768      -16.5283571492  WZ2       2134            0.0000000000
      8897      2966  TIP3      H1              8.3697350248        5.5813406768      -15.7986171492  WZ2       2134            0.0000000000
      8898      2966  TIP3      H2              8.0825350248        6.3979606768      -17.0406071492  WZ2       2134            0.0000000000
      8899      2967  TIP3      OH2             2.0430050248        5.7682806768       -9.4764871492  WZ2       2135            0.0000000000
      8900      2967  TIP3      H1              2.6737750248        5.7394906768       -8.7570971492  WZ2       2135            0.0000000000
      8901      2967  TIP3      H2              2.4924350248        5.3431506768      -10.2068971492  WZ2       2135            0.0000000000
      8902      2968  TIP3      OH2             3.3172150248        6.5144806768      -14.0524471492  WZ2       2136            0.0000000000
      8903      2968  TIP3      H1              3.7913850248        7.1054706768      -14.6373571492  WZ2       2136            0.0000000000
      8904      2968  TIP3      H2              2.5998550248        7.0447706768      -13.7054371492  WZ2       2136            0.0000000000
      8905      2969  TIP3      OH2            13.4860250248       10.0529606768       -3.9798671492  WZ2       2137            0.0000000000
      8906      2969  TIP3      H1             13.8095050248        9.4219306768       -4.6228171492  WZ2       2137            0.0000000000
      8907      2969  TIP3      H2             13.0459550248        9.5181806768       -3.3191271492  WZ2       2137            0.0000000000
      8908      2970  TIP3      OH2            10.2633150248        5.9805106768       -9.1957471492  WZ2       2138            0.0000000000
      8909      2970  TIP3      H1              9.3524250248        6.0371906768       -8.9071471492  WZ2       2138            0.0000000000
      8910      2970  TIP3      H2             10.7686050248        5.9200606768       -8.3850271492  WZ2       2138            0.0000000000
      8911      2971  TIP3      OH2             5.0916550248        7.6091406768      -10.3689871492  WZ2       2139            0.0000000000
      8912      2971  TIP3      H1              4.2024550248        7.7086906768      -10.7090271492  WZ2       2139            0.0000000000
      8913      2971  TIP3      H2              5.3881450248        6.7674406768      -10.7151971492  WZ2       2139            0.0000000000
      8914      2972  TIP3      OH2             8.7448350248        7.6094006768      -12.7125271492  WZ2       2140            0.0000000000
      8915      2972  TIP3      H1              9.6763850248        7.7384006768      -12.5342171492  WZ2       2140            0.0000000000
      8916      2972  TIP3      H2              8.5298650248        8.2788306768      -13.3620571492  WZ2       2140            0.0000000000
      8917      2973  TIP3      OH2            14.6685050248        5.2151406768       -5.9315671492  WZ2       2141            0.0000000000
      8918      2973  TIP3      H1             13.9916650248        5.3464506768       -5.2675971492  WZ2       2141            0.0000000000
      8919      2973  TIP3      H2             14.1829950248        5.0600906768       -6.7417971492  WZ2       2141            0.0000000000
      8920      2974  TIP3      OH2             7.4188550248        8.8036206768      -15.1459171492  WZ2       2142            0.0000000000
      8921      2974  TIP3      H1              6.8763650248        8.4240006768      -15.8371571492  WZ2       2142            0.0000000000
      8922      2974  TIP3      H2              8.2523450248        8.9980906768      -15.5745071492  WZ2       2142            0.0000000000
      8923      2975  TIP3      OH2            17.9560150248       20.8866806768        0.3451928508  WZ2       2143            0.0000000000
      8924      2975  TIP3      H1             18.1558850248       21.3108706768       -0.4892771492  WZ2       2143            0.0000000000
      8925      2975  TIP3      H2             18.6113850248       21.2305006768        0.9522328508  WZ2       2143            0.0000000000
      8926      2976  TIP3      OH2             5.5539950248       13.3608106768       -0.0467571492  WZ2       2144            0.0000000000
      8927      2976  TIP3      H1              6.2862350248       13.6154006768        0.5146928508  WZ2       2144            0.0000000000
      8928      2976  TIP3      H2              4.7738650248       13.5653506768        0.4687828508  WZ2       2144            0.0000000000
      8929      2977  TIP3      OH2            11.5832850248        8.7678106768       -7.3087871492  WZ2       2145            0.0000000000
      8930      2977  TIP3      H1             12.1476250248        8.2214706768       -7.8558271492  WZ2       2145            0.0000000000
      8931      2977  TIP3      H2             11.4356250248        8.2460006768       -6.5200271492  WZ2       2145            0.0000000000
      8932      2978  TIP3      OH2             6.5852550248        4.9044206768      -10.8903071492  WZ2       2146            0.0000000000
      8933      2978  TIP3      H1              6.2682050248        4.0019506768      -10.9257671492  WZ2       2146            0.0000000000
      8934      2978  TIP3      H2              7.3666650248        4.9061606768      -11.4431471492  WZ2       2146            0.0000000000
      8935      2979  TIP3      OH2            10.2098750248        7.1564206768       -4.8947471492  WZ2       2147            0.0000000000
      8936      2979  TIP3      H1              9.3744050248        7.6103706768       -4.7845071492  WZ2       2147            0.0000000000
      8937      2979  TIP3      H2             10.7339350248        7.4322706768       -4.1427571492  WZ2       2147            0.0000000000
      8938      2980  TIP3      OH2            10.7541350248       13.3691906768      -13.2101071492  WZ2       2148            0.0000000000
      8939      2980  TIP3      H1             10.0092350248       12.8617206768      -13.5323171492  WZ2       2148            0.0000000000
      8940      2980  TIP3      H2             10.6198550248       13.4179906768      -12.2636271492  WZ2       2148            0.0000000000
      8941      2981  TIP3      OH2            17.9040250248       12.5020106768       -4.4233471492  WZ2       2149            0.0000000000
      8942      2981  TIP3      H1             18.5459050248       12.9586406768       -4.9671271492  WZ2       2149            0.0000000000
      8943      2981  TIP3      H2             17.0737150248       12.6152506768       -4.8859371492  WZ2       2149            0.0000000000
      8944      2982  TIP3      OH2            14.6518150248        6.1831806768      -15.0108471492  WZ2       2150            0.0000000000
      8945      2982  TIP3      H1             13.7132350248        6.2947406768      -15.1619671492  WZ2       2150            0.0000000000
      8946      2982  TIP3      H2             14.9490250248        7.0398706768      -14.7042771492  WZ2       2150            0.0000000000
      8947      2983  TIP3      OH2            12.2733450248       13.5535206768       -1.9731971492  WZ2       2151            0.0000000000
      8948      2983  TIP3      H1             11.9279550248       13.1717606768       -1.1662371492  WZ2       2151            0.0000000000
      8949      2983  TIP3      H2             12.0733550248       14.4868806768       -1.9019071492  WZ2       2151            0.0000000000
      8950      2984  TIP3      OH2            15.3701650248        8.0504506768      -13.3501071492  WZ2       2152            0.0000000000
      8951      2984  TIP3      H1             16.2620650248        7.9129506768      -13.0309871492  WZ2       2152            0.0000000000
      8952      2984  TIP3      H2             15.4265250248        8.8410606768      -13.8867571492  WZ2       2152            0.0000000000
      8953      2985  TIP3      OH2             5.8789650248       12.6641906768       -7.4403171492  WZ2       2153            0.0000000000
      8954      2985  TIP3      H1              6.6236850248       12.6617606768       -8.0416671492  WZ2       2153            0.0000000000
      8955      2985  TIP3      H2              5.9566250248       11.8405706768       -6.9588071492  WZ2       2153            0.0000000000
      8956      2986  TIP3      OH2            12.8795450248       14.8276206768      -14.1846471492  WZ2       2154            0.0000000000
      8957      2986  TIP3      H1             12.5843850248       15.6544106768      -13.8031671492  WZ2       2154            0.0000000000
      8958      2986  TIP3      H2             12.1765450248       14.2083106768      -13.9885071492  WZ2       2154            0.0000000000
      8959      2987  TIP3      OH2             2.8869350248       11.1248806768       -2.1254671492  WZ2       2155            0.0000000000
      8960      2987  TIP3      H1              3.1097950248       10.7068406768       -1.2937171492  WZ2       2155            0.0000000000
      8961      2987  TIP3      H2              2.2849450248       10.5123806768       -2.5481871492  WZ2       2155            0.0000000000
      8962      2988  TIP3      OH2             9.9034250248       10.6418706768        0.0875028508  WZ2       2156            0.0000000000
      8963      2988  TIP3      H1              9.6075050248       10.4761706768       -0.8075871492  WZ2       2156            0.0000000000
      8964      2988  TIP3      H2             10.8349450248       10.4219006768        0.0768928508  WZ2       2156            0.0000000000
      8965      2989  TIP3      OH2            14.5237050248       16.0150706768       -2.0226971492  WZ2       2157            0.0000000000
      8966      2989  TIP3      H1             13.6231350248       16.1983306768       -2.2903071492  WZ2       2157            0.0000000000
      8967      2989  TIP3      H2             14.5578150248       16.2740006768       -1.1018171492  WZ2       2157            0.0000000000
      8968      2990  TIP3      OH2            20.2550350248        8.2598606768      -13.6554371492  WZ2       2158            0.0000000000
      8969      2990  TIP3      H1             19.7006650248        7.8636606768      -14.3276871492  WZ2       2158            0.0000000000
      8970      2990  TIP3      H2             20.3553950248        9.1703806768      -13.9331071492  WZ2       2158            0.0000000000
      8971      2991  TIP3      OH2            20.2182350248       14.0600306768       -0.8182871492  WZ2       2159            0.0000000000
      8972      2991  TIP3      H1             19.3670850248       14.2984106768       -1.1856471492  WZ2       2159            0.0000000000
      8973      2991  TIP3      H2             20.8085750248       14.0433506768       -1.5715771492  WZ2       2159            0.0000000000
      8974      2992  TIP3      OH2            18.5502050248       17.0459006768      -13.1902271492  WZ2       2160            0.0000000000
      8975      2992  TIP3      H1             18.1773150248       16.2202806768      -12.8811671492  WZ2       2160            0.0000000000
      8976      2992  TIP3      H2             18.8275550248       16.8628406768      -14.0878871492  WZ2       2160            0.0000000000
      8977      2993  TIP3      OH2            15.7105950248       11.8538506768       -6.1690371492  WZ2       2161            0.0000000000
      8978      2993  TIP3      H1             14.7822850248       11.6220406768       -6.1961071492  WZ2       2161            0.0000000000
      8979      2993  TIP3      H2             16.1617050248       11.0768306768       -6.4991571492  WZ2       2161            0.0000000000
      8980      2994  TIP3      OH2             8.2539050248       16.1820106768      -10.0361671492  WZ2       2162            0.0000000000
      8981      2994  TIP3      H1              8.7811250248       16.9554506768      -10.2362871492  WZ2       2162            0.0000000000
      8982      2994  TIP3      H2              7.3737550248       16.4069306768      -10.3377671492  WZ2       2162            0.0000000000
      8983      2995  TIP3      OH2             4.0086750248       11.0444206768      -15.4489271492  WZ2       2163            0.0000000000
      8984      2995  TIP3      H1              4.6246650248       11.6711406768      -15.0694471492  WZ2       2163            0.0000000000
      8985      2995  TIP3      H2              3.1469350248       11.3604006768      -15.1772771492  WZ2       2163            0.0000000000
      8986      2996  TIP3      OH2             9.6811350248       13.8450006768      -10.4597371492  WZ2       2164            0.0000000000
      8987      2996  TIP3      H1              9.4401350248       14.7704406768      -10.4182071492  WZ2       2164            0.0000000000
      8988      2996  TIP3      H2              8.9404950248       13.3861306768      -10.0633471492  WZ2       2164            0.0000000000
      8989      2997  TIP3      OH2            10.1957950248       17.9943606768       -4.1446271492  WZ2       2165            0.0000000000
      8990      2997  TIP3      H1             10.5582650248       18.8489206768       -4.3781871492  WZ2       2165            0.0000000000
      8991      2997  TIP3      H2             10.7273150248       17.7025206768       -3.4039971492  WZ2       2165            0.0000000000
      8992      2998  TIP3      OH2             8.3642150248       18.8667606768      -10.9145171492  WZ2       2166            0.0000000000
      8993      2998  TIP3      H1              7.4142650248       18.9725006768      -10.8631871492  WZ2       2166            0.0000000000
      8994      2998  TIP3      H2              8.7160250248       19.6875006768      -10.5697671492  WZ2       2166            0.0000000000
      8995      2999  TIP3      OH2            13.7398750248       14.0934306768       -4.4440671492  WZ2       2167            0.0000000000
      8996      2999  TIP3      H1             13.3140050248       13.8656006768       -3.6176671492  WZ2       2167            0.0000000000
      8997      2999  TIP3      H2             14.3204550248       13.3546106768       -4.6265371492  WZ2       2167            0.0000000000
      8998      3000  TIP3      OH2            15.9427650248       15.0224806768      -15.3701671492  WZ2       2168            0.0000000000
      8999      3000  TIP3      H1             16.2960750248       14.6424606768      -14.5658171492  WZ2       2168            0.0000000000
      9000      3000  TIP3      H2             14.9941150248       14.9289606768      -15.2832371492  WZ2       2168            0.0000000000
      9001      3001  TIP3      OH2            16.3982950248       18.6453806768       -1.9745871492  WZ2       2169            0.0000000000
      9002      3001  TIP3      H1             15.7966150248       18.0896706768       -2.4699571492  WZ2       2169            0.0000000000
      9003      3001  TIP3      H2             16.6796650248       19.3123606768       -2.6008471492  WZ2       2169            0.0000000000
      9004      3002  TIP3      OH2            20.4462050248       19.5017306768      -15.1691471492  WZ2       2170            0.0000000000
      9005      3002  TIP3      H1             21.1899950248       20.0877806768      -15.3089871492  WZ2       2170            0.0000000000
      9006      3002  TIP3      H2             19.7520150248       20.0703106768      -14.8359071492  WZ2       2170            0.0000000000
      9007      3003  TIP3      OH2             4.5208850248        5.8781506768       -2.5673271492  WZ2       2171            0.0000000000
      9008      3003  TIP3      H1              3.6281150248        6.2166906768       -2.6349271492  WZ2       2171            0.0000000000
      9009      3003  TIP3      H2              4.4221650248        5.0227606768       -2.1492471492  WZ2       2171            0.0000000000
      9010      3004  TIP3      OH2            16.8086950248       13.6946806768      -13.1433771492  WZ2       2172            0.0000000000
      9011      3004  TIP3      H1             16.5314550248       12.9666106768      -12.5872671492  WZ2       2172            0.0000000000
      9012      3004  TIP3      H2             17.7359950248       13.8138806768      -12.9381171492  WZ2       2172            0.0000000000
      9013      3005  TIP3      OH2             4.1720850248       17.6825906768       -4.1323871492  WZ2       2173            0.0000000000
      9014      3005  TIP3      H1              4.3891150248       16.7508306768       -4.1634171492  WZ2       2173            0.0000000000
      9015      3005  TIP3      H2              4.4184350248       17.9570906768       -3.2491071492  WZ2       2173            0.0000000000
      9016      3006  TIP3      OH2            10.0335450248       16.1340906768      -16.9231671492  WZ2       2174            0.0000000000
      9017      3006  TIP3      H1             10.2725250248       15.3859006768      -17.4702771492  WZ2       2174            0.0000000000
      9018      3006  TIP3      H2              9.7646750248       15.7462606768      -16.0903871492  WZ2       2174            0.0000000000
      9019      3007  TIP3      OH2             8.9706050248       15.7044706768      -14.4669071492  WZ2       2175            0.0000000000
      9020      3007  TIP3      H1              9.1174050248       15.1844506768      -13.6768171492  WZ2       2175            0.0000000000
      9021      3007  TIP3      H2              8.9677750248       16.6112306768      -14.1603171492  WZ2       2175            0.0000000000
      9022      3008  TIP3      OH2             5.4237150248       12.9568006768      -13.9563671492  WZ2       2176            0.0000000000
      9023      3008  TIP3      H1              4.7376450248       13.3090506768      -13.3893971492  WZ2       2176            0.0000000000
      9024      3008  TIP3      H2              5.9465050248       13.7197606768      -14.2029371492  WZ2       2176            0.0000000000
      9025      3009  TIP3      OH2            13.2552250248        5.6191806768       -3.6774671492  WZ2       2177            0.0000000000
      9026      3009  TIP3      H1             13.9540150248        5.6930506768       -3.0274971492  WZ2       2177            0.0000000000
      9027      3009  TIP3      H2             12.8743650248        4.7546806768       -3.5231771492  WZ2       2177            0.0000000000
      9028      3010  TIP3      OH2            14.0397150248        5.2713506768      -12.5802371492  WZ2       2178            0.0000000000
      9029      3010  TIP3      H1             14.2595450248        5.7428906768      -13.3836971492  WZ2       2178            0.0000000000
      9030      3010  TIP3      H2             14.5981150248        5.6656106768      -11.9101771492  WZ2       2178            0.0000000000
      9031      3011  TIP3      OH2            11.7083250248       17.4018306768      -13.7174871492  WZ2       2179            0.0000000000
      9032      3011  TIP3      H1             10.8919350248       17.8988006768      -13.6650571492  WZ2       2179            0.0000000000
      9033      3011  TIP3      H2             12.2379550248       17.8771806768      -14.3576071492  WZ2       2179            0.0000000000
      9034      3012  TIP3      OH2            11.2397050248        6.9992306768      -11.7453971492  WZ2       2180            0.0000000000
      9035      3012  TIP3      H1             12.0519650248        7.5035506768      -11.6992271492  WZ2       2180            0.0000000000
      9036      3012  TIP3      H2             10.9950050248        6.8542006768      -10.8314371492  WZ2       2180            0.0000000000
      9037      3013  TIP3      OH2            11.7753450248        7.9855006768       -2.5607371492  WZ2       2181            0.0000000000
      9038      3013  TIP3      H1             11.8943750248        8.5590406768       -1.8036971492  WZ2       2181            0.0000000000
      9039      3013  TIP3      H2             12.4308050248        7.2974406768       -2.4459571492  WZ2       2181            0.0000000000
      9040      3014  TIP3      OH2            12.1233750248        4.0805306768      -10.8072871492  WZ2       2182            0.0000000000
      9041      3014  TIP3      H1             11.7767250248        4.6975906768      -10.1628571492  WZ2       2182            0.0000000000
      9042      3014  TIP3      H2             12.7820650248        4.5811006768      -11.2887371492  WZ2       2182            0.0000000000
      9043      3015  TIP3      OH2             9.0466350248       18.4455506768      -13.7357971492  WZ2       2183            0.0000000000
      9044      3015  TIP3      H1              9.2075050248       19.2453006768      -14.2365371492  WZ2       2183            0.0000000000
      9045      3015  TIP3      H2              8.8494150248       18.7521506768      -12.8507371492  WZ2       2183            0.0000000000
      9046      3016  TIP3      OH2             7.7810750248        5.1434706768      -14.1200371492  WZ2       2184            0.0000000000
      9047      3016  TIP3      H1              7.6975550248        6.0317806768      -13.7733971492  WZ2       2184            0.0000000000
      9048      3016  TIP3      H2              8.6711050248        4.8781406768      -13.8883571492  WZ2       2184            0.0000000000
      9049      3017  TIP3      OH2            17.9799250248        5.8925306768       -1.7257671492  WZ2       2185            0.0000000000
      9050      3017  TIP3      H1             17.0635050248        6.1547006768       -1.8133971492  WZ2       2185            0.0000000000
      9051      3017  TIP3      H2             18.3154250248        5.8894306768       -2.6222371492  WZ2       2185            0.0000000000
      9052      3018  TIP3      OH2            16.5820250248        9.6426306768       -7.6300371492  WZ2       2186            0.0000000000
      9053      3018  TIP3      H1             15.7844650248        9.2276506768       -7.9585371492  WZ2       2186            0.0000000000
      9054      3018  TIP3      H2             17.0271350248        8.9520006768       -7.1389871492  WZ2       2186            0.0000000000
      9055      3019  TIP3      OH2             6.0396050248       15.5706906768      -15.0595871492  WZ2       2187            0.0000000000
      9056      3019  TIP3      H1              6.6317550248       16.2701706768      -14.7833471492  WZ2       2187            0.0000000000
      9057      3019  TIP3      H2              6.4989050248       15.1376406768      -15.7791271492  WZ2       2187            0.0000000000
      9058      3020  TIP3      OH2             4.3555250248        8.2349906768      -15.9436471492  WZ2       2188            0.0000000000
      9059      3020  TIP3      H1              4.3107850248        9.1743006768      -15.7649471492  WZ2       2188            0.0000000000
      9060      3020  TIP3      H2              3.4678450248        7.9994806768      -16.2134371492  WZ2       2188            0.0000000000
      9061      3021  TIP3      OH2            17.6684850248       18.8988806768       -6.0076871492  WZ2       2189            0.0000000000
      9062      3021  TIP3      H1             17.5129150248       19.5773206768       -6.6647571492  WZ2       2189            0.0000000000
      9063      3021  TIP3      H2             18.6011250248       18.9708106768       -5.8046271492  WZ2       2189            0.0000000000
      9064      3022  TIP3      OH2             5.1637250248        3.0166506768       -7.2705471492  WZ2       2190            0.0000000000
      9065      3022  TIP3      H1              4.9347050248        3.0759006768       -8.1980471492  WZ2       2190            0.0000000000
      9066      3022  TIP3      H2              4.7210650248        2.2252006768       -6.9641371492  WZ2       2190            0.0000000000
      9067      3023  TIP3      OH2             4.0940550248       16.9573606768      -11.1099671492  WZ2       2191            0.0000000000
      9068      3023  TIP3      H1              3.2619150248       17.4296306768      -11.0828271492  WZ2       2191            0.0000000000
      9069      3023  TIP3      H2              4.6398850248       17.4671206768      -11.7086571492  WZ2       2191            0.0000000000
      9070      3024  TIP3      OH2             3.3824250248       19.5697306768        0.2198328508  WZ2       2192            0.0000000000
      9071      3024  TIP3      H1              3.9226450248       19.3531306768        0.9797528508  WZ2       2192            0.0000000000
      9072      3024  TIP3      H2              2.9012250248       18.7643306768        0.0300828508  WZ2       2192            0.0000000000
      9073      3025  TIP3      OH2             7.9797650248       18.4891706768        1.8402528508  WZ2       2193            0.0000000000
      9074      3025  TIP3      H1              8.7474850248       18.0302506768        2.1811728508  WZ2       2193            0.0000000000
      9075      3025  TIP3      H2              7.9583850248       18.2631506768        0.9103728508  WZ2       2193            0.0000000000
      9076      3026  TIP3      OH2            12.0717250248       17.9972306768      -16.7845671492  WZ2       2194            0.0000000000
      9077      3026  TIP3      H1             11.4278250248       17.3660906768      -16.4631971492  WZ2       2194            0.0000000000
      9078      3026  TIP3      H2             12.8335550248       17.4660306768      -17.0162171492  WZ2       2194            0.0000000000
      9079      3027  TIP3      OH2            14.5566350248       16.8692806768        0.5694028508  WZ2       2195            0.0000000000
      9080      3027  TIP3      H1             14.2055850248       16.0125806768        0.8124428508  WZ2       2195            0.0000000000
      9081      3027  TIP3      H2             15.2829550248       17.0119506768        1.1763028508  WZ2       2195            0.0000000000
      9082      3028  TIP3      OH2            16.6760150248       17.8142206768      -16.5507671492  WZ2       2196            0.0000000000
      9083      3028  TIP3      H1             16.9590550248       17.0197406768      -16.0980771492  WZ2       2196            0.0000000000
      9084      3028  TIP3      H2             17.4158050248       18.0473206768      -17.1116571492  WZ2       2196            0.0000000000
      9085      3029  TIP3      OH2             3.2893750248       13.3801406768        1.1742628508  WZ2       2197            0.0000000000
      9086      3029  TIP3      H1              3.4334250248       12.4782106768        0.8879328508  WZ2       2197            0.0000000000
      9087      3029  TIP3      H2              2.5171150248       13.6663506768        0.6864928508  WZ2       2197            0.0000000000
      9088      3030  TIP3      OH2             7.6307450248       13.7237106768      -16.6932771492  WZ2       2198            0.0000000000
      9089      3030  TIP3      H1              7.6951550248       12.9296706768      -16.1626371492  WZ2       2198            0.0000000000
      9090      3030  TIP3      H2              8.2836650248       13.6049906768      -17.3830771492  WZ2       2198            0.0000000000
      9091      3031  TIP3      OH2             9.9449850248       13.3499506768        0.6069028508  WZ2       2199            0.0000000000
      9092      3031  TIP3      H1              9.6163650248       13.6207606768       -0.2503571492  WZ2       2199            0.0000000000
      9093      3031  TIP3      H2             10.0968050248       12.4089306768        0.5194028508  WZ2       2199            0.0000000000
      9094      3032  TIP3      OH2            12.9830850248       14.7708806768      -16.9574771492  WZ2       2200            0.0000000000
      9095      3032  TIP3      H1             12.7144950248       14.9510906768      -16.0565871492  WZ2       2200            0.0000000000
      9096      3032  TIP3      H2             12.7766450248       13.8455006768      -17.0888971492  WZ2       2200            0.0000000000
      9097      3033  TIP3      OH2            15.6795050248       13.2656806768       -2.0098671492  WZ2       2201            0.0000000000
      9098      3033  TIP3      H1             16.4249850248       13.8540506768       -2.1294671492  WZ2       2201            0.0000000000
      9099      3033  TIP3      H2             14.9221850248       13.8476506768       -1.9465571492  WZ2       2201            0.0000000000
      9100      3034  TIP3      OH2             4.1220250248       10.5804706768        0.5941928508  WZ2       2202            0.0000000000
      9101      3034  TIP3      H1              4.5301450248        9.7231306768        0.4732528508  WZ2       2202            0.0000000000
      9102      3034  TIP3      H2              3.8617850248       10.5946006768        1.5152228508  WZ2       2202            0.0000000000
      9103      3035  TIP3      OH2             8.7801250248       11.6963306768      -14.3874771492  WZ2       2203            0.0000000000
      9104      3035  TIP3      H1              8.3203250248       11.2121606768      -13.7016271492  WZ2       2203            0.0000000000
      9105      3035  TIP3      H2              9.0349950248       11.0278706768      -15.0234271492  WZ2       2203            0.0000000000
      9106      3036  TIP3      OH2             8.0690550248        9.5890406768       -2.0315171492  WZ2       2204            0.0000000000
      9107      3036  TIP3      H1              7.4506650248       10.2637006768       -1.7510471492  WZ2       2204            0.0000000000
      9108      3036  TIP3      H2              8.4131750248        9.9104306768       -2.8648971492  WZ2       2204            0.0000000000
      9109      3037  TIP3      OH2             9.8511650248        9.9395106768      -16.1251571492  WZ2       2205            0.0000000000
      9110      3037  TIP3      H1              9.6706650248        9.7846306768      -17.0523271492  WZ2       2205            0.0000000000
      9111      3037  TIP3      H2             10.8012150248       10.0473806768      -16.0803671492  WZ2       2205            0.0000000000
      9112      3038  TIP3      OH2            13.0888750248       12.0605706768        1.2459628508  WZ2       2206            0.0000000000
      9113      3038  TIP3      H1             14.0419950248       12.1444806768        1.2185628508  WZ2       2206            0.0000000000
      9114      3038  TIP3      H2             12.9283350248       11.3487506768        1.8654528508  WZ2       2206            0.0000000000
      9115      3039  TIP3      OH2            19.2409950248       12.2939306768      -16.6793471492  WZ2       2207            0.0000000000
      9116      3039  TIP3      H1             18.9674750248       11.8694806768      -17.4925171492  WZ2       2207            0.0000000000
      9117      3039  TIP3      H2             19.2804050248       13.2253806768      -16.8963071492  WZ2       2207            0.0000000000
      9118      3040  TIP3      OH2             8.4084250248        6.9441206768       -0.9492071492  WZ2       2208            0.0000000000
      9119      3040  TIP3      H1              8.5585150248        6.2152506768       -1.5512371492  WZ2       2208            0.0000000000
      9120      3040  TIP3      H2              8.4106650248        7.7212906768       -1.5079871492  WZ2       2208            0.0000000000
      9121      3041  TIP3      OH2             8.8209950248        5.3137006768       -3.4564671492  WZ2       2209            0.0000000000
      9122      3041  TIP3      H1              9.3567450248        5.7653706768       -4.1085371492  WZ2       2209            0.0000000000
      9123      3041  TIP3      H2              7.9689550248        5.2056806768       -3.8790571492  WZ2       2209            0.0000000000
      9124      3042  TIP3      OH2            10.4028350248       10.7533206768       -3.2169471492  WZ2       2210            0.0000000000
      9125      3042  TIP3      H1             11.1533150248       10.5970706768       -3.7901671492  WZ2       2210            0.0000000000
      9126      3042  TIP3      H2             10.0636650248       11.6049806768       -3.4923971492  WZ2       2210            0.0000000000
      9127      3043  TIP3      OH2            14.8184550248        8.5685006768        1.8115828508  WZ2       2211            0.0000000000
      9128      3043  TIP3      H1             15.0105850248        7.6374406768        1.7000328508  WZ2       2211            0.0000000000
      9129      3043  TIP3      H2             15.6760850248        8.9934506768        1.8011228508  WZ2       2211            0.0000000000
      9130      3044  TIP3      OH2            16.1351750248       11.3570206768       -0.1111471492  WZ2       2212            0.0000000000
      9131      3044  TIP3      H1             15.8536750248       12.0664806768       -0.6887671492  WZ2       2212            0.0000000000
      9132      3044  TIP3      H2             17.0776050248       11.2843206768       -0.2620271492  WZ2       2212            0.0000000000
      9133      3045  TIP3      OH2             6.8870550248        8.1424706768        0.9623528508  WZ2       2213            0.0000000000
      9134      3045  TIP3      H1              6.1199550248        7.6099506768        0.7521128508  WZ2       2213            0.0000000000
      9135      3045  TIP3      H2              7.5659550248        7.8325106768        0.3629828508  WZ2       2213            0.0000000000
      9136      3046  TIP3      OH2             9.6265450248        2.7702706768       -3.0251071492  WZ2       2214            0.0000000000
      9137      3046  TIP3      H1              9.5285050248        3.7165906768       -3.1304871492  WZ2       2214            0.0000000000
      9138      3046  TIP3      H2              8.8841650248        2.3976506768       -3.5007571492  WZ2       2214            0.0000000000
      9139      3047  TIP3      OH2            10.8905950248        7.0918106768        0.5387328508  WZ2       2215            0.0000000000
      9140      3047  TIP3      H1             10.6551350248        6.8724806768        1.4402228508  WZ2       2215            0.0000000000
      9141      3047  TIP3      H2             10.1072850248        6.8849306768        0.0289828508  WZ2       2215            0.0000000000
      9142      3048  TIP3      OH2            13.6062550248        6.2191606768       -0.3859171492  WZ2       2216            0.0000000000
      9143      3048  TIP3      H1             12.6587950248        6.2511306768       -0.2535871492  WZ2       2216            0.0000000000
      9144      3048  TIP3      H2             13.9189250248        5.5938706768        0.2679028508  WZ2       2216            0.0000000000
      9145      3049  TIP3      OH2            15.2404050248        4.8532706768        1.6192728508  WZ2       2217            0.0000000000
      9146      3049  TIP3      H1             15.1435850248        3.9010006768        1.6134628508  WZ2       2217            0.0000000000
      9147      3049  TIP3      H2             14.9187150248        5.1219506768        2.4798228508  WZ2       2217            0.0000000000
      9148      3050  TIP3      OH2             5.0673350248        6.0628506768        0.6668228508  WZ2       2218            0.0000000000
      9149      3050  TIP3      H1              5.2790750248        5.3564606768        0.0565728508  WZ2       2218            0.0000000000
      9150      3050  TIP3      H2              4.9560850248        5.6254506768        1.5109428508  WZ2       2218            0.0000000000
      9151      3051  TIP3      OH2             9.8483550248        2.0640106768       -0.3538271492  WZ2       2219            0.0000000000
      9152      3051  TIP3      H1             10.5601950248        1.4242306768       -0.3679171492  WZ2       2219            0.0000000000
      9153      3051  TIP3      H2              9.7473950248        2.3308406768       -1.2675171492  WZ2       2219            0.0000000000
      9154      3052  TIP3      OH2            10.2021050248        3.7468506768        1.6998028508  WZ2       2220            0.0000000000
      9155      3052  TIP3      H1             10.0703250248        3.2712306768        0.8796528508  WZ2       2220            0.0000000000
      9156      3052  TIP3      H2              9.6028450248        4.4912106768        1.6445128508  WZ2       2220            0.0000000000
      9157      3053  TIP3      OH2             9.7483350248       20.6298806768      -15.1237971492  WZ2       2221            0.0000000000
      9158      3053  TIP3      H1             10.6814050248       20.7877506768      -14.9799571492  WZ2       2221            0.0000000000
      9159      3053  TIP3      H2              9.4842150248       21.3051806768      -15.7486471492  WZ2       2221            0.0000000000
      9160      3054  TIP3      OH2             3.3168250248       15.2662606768      -15.6409871492  WZ2       2222            0.0000000000
      9161      3054  TIP3      H1              4.2307450248       15.3451506768      -15.3675971492  WZ2       2222            0.0000000000
      9162      3054  TIP3      H2              3.3241350248       14.5792206768      -16.3074271492  WZ2       2222            0.0000000000
      9163      3055  TIP3      OH2             1.9658850248       20.6591106768      -10.5635971492  WZ2       2223            0.0000000000
      9164      3055  TIP3      H1              1.3185950248       20.1972806768      -11.0964771492  WZ2       2223            0.0000000000
      9165      3055  TIP3      H2              2.3203450248       19.9874406768       -9.9809771492  WZ2       2223            0.0000000000
      9166      3056  TIP3      OH2             2.8358050248       18.7398106768       -8.7589771492  WZ2       2224            0.0000000000
      9167      3056  TIP3      H1              2.5014850248       17.8595406768       -8.5869571492  WZ2       2224            0.0000000000
      9168      3056  TIP3      H2              3.0580450248       19.0853106768       -7.8944171492  WZ2       2224            0.0000000000
      9169      3057  TIP3      OH2            20.3842850248       19.5494506768       -5.7784971492  WZ2       2225            0.0000000000
      9170      3057  TIP3      H1             20.3629550248       19.7342906768       -4.8395571492  WZ2       2225            0.0000000000
      9171      3057  TIP3      H2             21.0749050248       20.1178506768       -6.1193571492  WZ2       2225            0.0000000000
      9172      3058  TIP3      OH2            19.9475750248       19.1165606768       -2.8565871492  WZ2       2226            0.0000000000
      9173      3058  TIP3      H1             19.4604450248       18.3809706768       -3.2278471492  WZ2       2226            0.0000000000
      9174      3058  TIP3      H2             20.4968450248       18.7229506768       -2.1786471492  WZ2       2226            0.0000000000
      9175      3059  TIP3      OH2            18.3983050248       14.9063706768        1.7814428508  WZ2       2227            0.0000000000
      9176      3059  TIP3      H1             17.5324150248       14.8013406768        2.1756728508  WZ2       2227            0.0000000000
      9177      3059  TIP3      H2             18.7748950248       15.6647006768        2.2279128508  WZ2       2227            0.0000000000
      9178      3060  TIP3      OH2            19.6992750248       13.1627406768      -12.7043071492  WZ2       2228            0.0000000000
      9179      3060  TIP3      H1             20.5494150248       13.5838306768      -12.5771471492  WZ2       2228            0.0000000000
      9180      3060  TIP3      H2             19.7047850248       12.4227506768      -12.0971671492  WZ2       2228            0.0000000000
      9181      3061  TIP3      OH2            20.0938350248       11.2164806768      -10.8807371492  WZ2       2229            0.0000000000
      9182      3061  TIP3      H1             19.3672950248       10.7367406768      -10.4829771492  WZ2       2229            0.0000000000
      9183      3061  TIP3      H2             20.6751650248       11.4219506768      -10.1485771492  WZ2       2229            0.0000000000
      9184      3062  TIP3      OH2            19.8529550248       14.0012306768       -5.9329771492  WZ2       2230            0.0000000000
      9185      3062  TIP3      H1             20.6863750248       13.6232306768       -6.2136171492  WZ2       2230            0.0000000000
      9186      3062  TIP3      H2             19.9649850248       14.9443506768       -6.0520671492  WZ2       2230            0.0000000000
      9187      3063  TIP3      OH2            18.3391850248       16.8789806768       -3.6261371492  WZ2       2231            0.0000000000
      9188      3063  TIP3      H1             17.6917150248       17.2041306768       -3.0006171492  WZ2       2231            0.0000000000
      9189      3063  TIP3      H2             17.8215850248       16.4387506768       -4.3003071492  WZ2       2231            0.0000000000
      9190      3064  TIP3      OH2            20.3621450248       11.1173306768      -14.4896071492  WZ2       2232            0.0000000000
      9191      3064  TIP3      H1             19.8402550248       11.4737406768      -15.2085171492  WZ2       2232            0.0000000000
      9192      3064  TIP3      H2             20.3290650248       11.7921106768      -13.8115171492  WZ2       2232            0.0000000000
      9193      3065  TIP3      OH2            18.7110450248        8.3568906768      -15.9388971492  WZ2       2233            0.0000000000
      9194      3065  TIP3      H1             18.8074850248        9.0235906768      -16.6189271492  WZ2       2233            0.0000000000
      9195      3065  TIP3      H2             18.5710050248        7.5415206768      -16.4203471492  WZ2       2233            0.0000000000
      9196      3066  TIP3      OH2            17.8805150248        9.7371306768      -10.3178671492  WZ2       2234            0.0000000000
      9197      3066  TIP3      H1             17.7303950248        8.7919906768      -10.3380871492  WZ2       2234            0.0000000000
      9198      3066  TIP3      H2             17.5269650248       10.0182706768       -9.4739571492  WZ2       2234            0.0000000000
      9199      3067  TIP3      OH2             2.9157550248       11.8153506768       -6.3074871492  WZ2       2235            0.0000000000
      9200      3067  TIP3      H1              3.1000450248       11.7335206768       -7.2431971492  WZ2       2235            0.0000000000
      9201      3067  TIP3      H2              3.7650450248       11.6910506768       -5.8838471492  WZ2       2235            0.0000000000
      9202      3068  TIP3      OH2            18.7368050248       11.7074606768       -0.6790371492  WZ2       2236            0.0000000000
      9203      3068  TIP3      H1             19.3195350248       10.9726906768       -0.4873171492  WZ2       2236            0.0000000000
      9204      3068  TIP3      H2             19.3007350248       12.4794906768       -0.6324571492  WZ2       2236            0.0000000000
      9205      3069  TIP3      OH2            20.2335150248        9.6100406768        0.0055028508  WZ2       2237            0.0000000000
      9206      3069  TIP3      H1             19.3701850248        9.2312506768       -0.1600271492  WZ2       2237            0.0000000000
      9207      3069  TIP3      H2             20.8378850248        8.8715206768       -0.0689171492  WZ2       2237            0.0000000000
      9208      3070  TIP3      OH2            17.9584250248        5.7648706768      -16.8213471492  WZ2       2238            0.0000000000
      9209      3070  TIP3      H1             18.5690050248        5.3935506768      -16.1845271492  WZ2       2238            0.0000000000
      9210      3070  TIP3      H2             17.1215750248        5.3435606768      -16.6253471492  WZ2       2238            0.0000000000
      9211      3071  TIP3      OH2            17.5909950248        7.3197106768      -11.8553571492  WZ2       2239            0.0000000000
      9212      3071  TIP3      H1             17.8707050248        6.4127506768      -11.7311871492  WZ2       2239            0.0000000000
      9213      3071  TIP3      H2             18.3501650248        7.7538606768      -12.2444371492  WZ2       2239            0.0000000000
      9214      3072  TIP3      OH2            18.2028250248        7.9014506768       -6.4194671492  WZ2       2240            0.0000000000
      9215      3072  TIP3      H1             19.1356250248        8.1134406768       -6.4538671492  WZ2       2240            0.0000000000
      9216      3072  TIP3      H2             17.9675750248        8.0026606768       -5.4971671492  WZ2       2240            0.0000000000
      9217      3073  TIP3      OH2            18.2320150248        8.6379806768       -3.6435271492  WZ2       2241            0.0000000000
      9218      3073  TIP3      H1             17.3891450248        8.9060206768       -3.2775471492  WZ2       2241            0.0000000000
      9219      3073  TIP3      H2             18.6744450248        9.4601706768       -3.8544171492  WZ2       2241            0.0000000000
      9220      3074  TIP3      OH2             2.5132350248        7.0858506768       -0.1666071492  WZ2       2242            0.0000000000
      9221      3074  TIP3      H1              3.4327250248        6.9636806768        0.0697028508  WZ2       2242            0.0000000000
      9222      3074  TIP3      H2              2.0636850248        6.3358206768        0.2227428508  WZ2       2242            0.0000000000
      9223      3075  TIP3      OH2            20.5151750248        2.6180006768        1.7099728508  WZ2       2243            0.0000000000
      9224      3075  TIP3      H1             20.8648750248        1.9643506768        1.1044428508  WZ2       2243            0.0000000000
      9225      3075  TIP3      H2             20.6621250248        3.4554106768        1.2702328508  WZ2       2243            0.0000000000
      9226      3076  TIP3      OH2            18.2044750248        4.5826406768      -11.8071571492  WZ2       2244            0.0000000000
      9227      3076  TIP3      H1             18.3869750248        4.1337906768      -10.9816571492  WZ2       2244            0.0000000000
      9228      3076  TIP3      H2             17.6047650248        3.9980806768      -12.2706971492  WZ2       2244            0.0000000000
      9229      3077  TIP3      OH2             3.7344850248        5.3980106768       -7.2753171492  WZ2       2245            0.0000000000
      9230      3077  TIP3      H1              4.1796450248        4.6062606768       -6.9733471492  WZ2       2245            0.0000000000
      9231      3077  TIP3      H2              4.2007850248        6.1145306768       -6.8447571492  WZ2       2245            0.0000000000
      9232      3078  TIP3      OH2             2.0385150248        8.3973106768       -6.2062971492  WZ2       2246            0.0000000000
      9233      3078  TIP3      H1              2.5304950248        8.1763606768       -6.9970971492  WZ2       2246            0.0000000000
      9234      3078  TIP3      H2              2.4006050248        9.2376506768       -5.9253471492  WZ2       2246            0.0000000000
      9235      3079  TIP3      OH2            20.0348950248        4.7274606768        0.0591028508  WZ2       2247            0.0000000000
      9236      3079  TIP3      H1             19.1174650248        4.9981706768        0.0234528508  WZ2       2247            0.0000000000
      9237      3079  TIP3      H2             20.1578350248        4.1923006768       -0.7249271492  WZ2       2247            0.0000000000
      9238      3080  TIP3      OH2            20.0710950248        4.6504506768      -15.2791271492  WZ2       2248            0.0000000000
      9239      3080  TIP3      H1             20.4833550248        3.9290206768      -15.7543271492  WZ2       2248            0.0000000000
      9240      3080  TIP3      H2             20.7527450248        5.3199106768      -15.2206971492  WZ2       2248            0.0000000000
      9241      3081  TIP3      OH2             2.3521650248        4.6552206768      -12.1520571492  WZ2       2249            0.0000000000
      9242      3081  TIP3      H1              1.4270050248        4.8638806768      -12.2815071492  WZ2       2249            0.0000000000
      9243      3081  TIP3      H2              2.8061550248        5.1393006768      -12.8418271492  WZ2       2249            0.0000000000
      9244      3082  TIP3      OH2            17.1228850248       19.6393906768      -10.2063171492  WZ2       2250            0.0000000000
      9245      3082  TIP3      H1             17.7751750248       19.2916006768      -10.8144071492  WZ2       2250            0.0000000000
      9246      3082  TIP3      H2             17.6332650248       20.1277106768       -9.5603471492  WZ2       2250            0.0000000000
      9247      3083  TIP3      OH2             2.3157050248        3.3931206768       -3.8078071492  WZ2       2251            0.0000000000
      9248      3083  TIP3      H1              1.6507550248        3.1471506768       -3.1647171492  WZ2       2251            0.0000000000
      9249      3083  TIP3      H2              1.8728350248        4.0151606768       -4.3850071492  WZ2       2251            0.0000000000
      9250      3084  TIP3      OH2             4.5076350248       16.5685306768        0.3367728508  WZ2       2252            0.0000000000
      9251      3084  TIP3      H1              3.6868850248       16.7431806768       -0.1237571492  WZ2       2252            0.0000000000
      9252      3084  TIP3      H2              4.2554150248       16.4950006768        1.2572128508  WZ2       2252            0.0000000000
      9253      3085  TIP3      OH2             7.4619250248       17.5426506768       -3.4048271492  WZ2       2253            0.0000000000
      9254      3085  TIP3      H1              7.0370350248       18.3525006768       -3.6873671492  WZ2       2253            0.0000000000
      9255      3085  TIP3      H2              8.3662050248       17.6280606768       -3.7068471492  WZ2       2253            0.0000000000
      9256      3086  TIP3      OH2            11.7730650248       18.9416506768       -0.4454571492  WZ2       2254            0.0000000000
      9257      3086  TIP3      H1             11.9578150248       18.6082606768        0.4325728508  WZ2       2254            0.0000000000
      9258      3086  TIP3      H2             12.6195150248       19.2515106768       -0.7675371492  WZ2       2254            0.0000000000
      9259      3087  TIP3      OH2            14.1181050248       20.2275406768       -1.2013171492  WZ2       2255            0.0000000000
      9260      3087  TIP3      H1             14.7949950248       19.5947706768       -1.4413971492  WZ2       2255            0.0000000000
      9261      3087  TIP3      H2             14.4399850248       20.6285906768       -0.3939871492  WZ2       2255            0.0000000000
      9262      3088  TIP3      OH2            19.0354850248        2.8170906768       -2.1218171492  WZ2       2256            0.0000000000
      9263      3088  TIP3      H1             18.2228350248        3.1421206768       -2.5093471492  WZ2       2256            0.0000000000
      9264      3088  TIP3      H2             19.2683350248        2.0569406768       -2.6549071492  WZ2       2256            0.0000000000
      9265      3089  TIP3      OH2             4.8635950248       20.7990406768       -3.3572971492  WZ2       2257            0.0000000000
      9266      3089  TIP3      H1              4.1432350248       21.2391406768       -3.8085271492  WZ2       2257            0.0000000000
      9267      3089  TIP3      H2              4.4979950248       20.5485106768       -2.5088971492  WZ2       2257            0.0000000000
      9268      3090  TIP3      OH2             7.3308550248       20.3994306768       -4.3275771492  WZ2       2258            0.0000000000
      9269      3090  TIP3      H1              6.4660750248       20.4712806768       -3.9235671492  WZ2       2258            0.0000000000
      9270      3090  TIP3      H2              7.2757550248       20.9461606768       -5.1113271492  WZ2       2258            0.0000000000
      9271      3091  TIP3      OH2            12.0414150248       20.2873206768       -5.1519771492  WZ2       2259            0.0000000000
      9272      3091  TIP3      H1             11.5848150248       20.8162906768       -5.8061371492  WZ2       2259            0.0000000000
      9273      3091  TIP3      H2             12.2042150248       20.8904606768       -4.4267471492  WZ2       2259            0.0000000000
      9274      3092  TIP3      OH2            14.3690450248       19.1652806768       -4.2069471492  WZ2       2260            0.0000000000
      9275      3092  TIP3      H1             13.4644150248       19.3303006768       -4.4727371492  WZ2       2260            0.0000000000
      9276      3092  TIP3      H2             14.7979050248       20.0185006768       -4.2726071492  WZ2       2260            0.0000000000
      9277      3093  TIP3      OH2            16.9732350248       20.7351906768       -3.9121671492  WZ2       2261            0.0000000000
      9278      3093  TIP3      H1             16.7914350248       21.6510806768       -4.1226771492  WZ2       2261            0.0000000000
      9279      3093  TIP3      H2             17.1500150248       20.3249006768       -4.7587071492  WZ2       2261            0.0000000000
      9280      3094  TIP3      OH2             4.2784050248       19.4222906768       -6.4471171492  WZ2       2262            0.0000000000
      9281      3094  TIP3      H1              4.2600050248       18.9968006768       -5.5898871492  WZ2       2262            0.0000000000
      9282      3094  TIP3      H2              5.0831950248       19.1037906768       -6.8558971492  WZ2       2262            0.0000000000
      9283      3095  TIP3      OH2             6.4197150248       18.1321606768       -7.7921271492  WZ2       2263            0.0000000000
      9284      3095  TIP3      H1              6.2007850248       17.2159006768       -7.6225271492  WZ2       2263            0.0000000000
      9285      3095  TIP3      H2              7.2439350248       18.2722006768       -7.3259871492  WZ2       2263            0.0000000000
      9286      3096  TIP3      OH2             8.9569650248       18.6020906768       -6.9433271492  WZ2       2264            0.0000000000
      9287      3096  TIP3      H1              9.1695350248       17.7139906768       -7.2302371492  WZ2       2264            0.0000000000
      9288      3096  TIP3      H2              9.0214750248       18.5678606768       -5.9889271492  WZ2       2264            0.0000000000
      9289      3097  TIP3      OH2            12.4653350248        4.2661506768       -7.7989971492  WZ2       2265            0.0000000000
      9290      3097  TIP3      H1             11.7910150248        3.6367106768       -7.5434171492  WZ2       2265            0.0000000000
      9291      3097  TIP3      H2             13.0292550248        3.7820406768       -8.4022071492  WZ2       2265            0.0000000000
      9292      3098  TIP3      OH2            17.6080550248        2.3735506768       -7.6862871492  WZ2       2266            0.0000000000
      9293      3098  TIP3      H1             18.2118150248        2.9210906768       -8.1881871492  WZ2       2266            0.0000000000
      9294      3098  TIP3      H2             16.7382550248        2.6925906768       -7.9268771492  WZ2       2266            0.0000000000
      9295      3099  TIP3      OH2            19.3350950248        3.5124206768       -9.3531971492  WZ2       2267            0.0000000000
      9296      3099  TIP3      H1             19.9468450248        2.9979906768       -9.8798371492  WZ2       2267            0.0000000000
      9297      3099  TIP3      H2             19.7174350248        4.3896306768       -9.3297571492  WZ2       2267            0.0000000000
      9298      3100  TIP3      OH2             4.7920850248        2.9001806768       -9.9770071492  WZ2       2268            0.0000000000
      9299      3100  TIP3      H1              4.0150650248        2.6656706768      -10.4844171492  WZ2       2268            0.0000000000
      9300      3100  TIP3      H2              5.3224450248        2.1033906768       -9.9682071492  WZ2       2268            0.0000000000
      9301      3101  TIP3      OH2             3.6284250248        2.6979906768      -14.1733971492  WZ2       2269            0.0000000000
      9302      3101  TIP3      H1              4.0674950248        3.3090406768      -14.7650471492  WZ2       2269            0.0000000000
      9303      3101  TIP3      H2              2.9946650248        3.2364006768      -13.6993971492  WZ2       2269            0.0000000000
      9304      3102  TIP3      OH2             9.3713450248        2.8268906768      -10.1636971492  WZ2       2270            0.0000000000
      9305      3102  TIP3      H1             10.2456850248        3.2153206768      -10.1932671492  WZ2       2270            0.0000000000
      9306      3102  TIP3      H2              9.2354250248        2.6116706768       -9.2409771492  WZ2       2270            0.0000000000
      9307      3103  TIP3      OH2            14.9281850248        2.8568706768       -8.5145271492  WZ2       2271            0.0000000000
      9308      3103  TIP3      H1             15.0043450248        2.9520306768       -9.4639271492  WZ2       2271            0.0000000000
      9309      3103  TIP3      H2             14.6531050248        1.9491606768       -8.3856171492  WZ2       2271            0.0000000000
      9310      3104  TIP3      OH2            16.2814450248        2.8826506768      -12.8220271492  WZ2       2272            0.0000000000
      9311      3104  TIP3      H1             15.5785550248        3.4975706768      -13.0318871492  WZ2       2272            0.0000000000
      9312      3104  TIP3      H2             15.8365850248        2.0453206768      -12.6909371492  WZ2       2272            0.0000000000
      9313      3105  TIP3      OH2             3.5293750248       18.6462106768      -13.2758871492  WZ2       2273            0.0000000000
      9314      3105  TIP3      H1              2.8443650248       18.6081006768      -13.9433771492  WZ2       2273            0.0000000000
      9315      3105  TIP3      H2              3.5330950248       19.5589706768      -12.9876771492  WZ2       2273            0.0000000000
      9316      3106  TIP3      OH2             5.4893350248        4.6141406768      -15.7309871492  WZ2       2274            0.0000000000
      9317      3106  TIP3      H1              5.9806750248        3.9843806768      -16.2584371492  WZ2       2274            0.0000000000
      9318      3106  TIP3      H2              6.1129650248        4.9100806768      -15.0678671492  WZ2       2274            0.0000000000
      9319      3107  TIP3      OH2            10.5153450248        4.9072906768      -13.2739371492  WZ2       2275            0.0000000000
      9320      3107  TIP3      H1             10.6934750248        4.2606106768      -12.5910771492  WZ2       2275            0.0000000000
      9321      3107  TIP3      H2             10.4619650248        5.7410606768      -12.8068271492  WZ2       2275            0.0000000000
      9322      3108  TIP3      OH2            12.3937250248       19.8557006768      -14.8782671492  WZ2       2276            0.0000000000
      9323      3108  TIP3      H1             13.2597450248       20.2224406768      -15.0564471492  WZ2       2276            0.0000000000
      9324      3108  TIP3      H2             12.1470050248       19.4165006768      -15.6921871492  WZ2       2276            0.0000000000
      9325      3109  TIP3      OH2            19.1026850248       19.4187306768      -12.1991571492  WZ2       2277            0.0000000000
      9326      3109  TIP3      H1             18.9083950248       18.6709406768      -12.7641971492  WZ2       2277            0.0000000000
      9327      3109  TIP3      H2             19.0636950248       20.1767406768      -12.7823671492  WZ2       2277            0.0000000000
      9328      3110  TIP3      OH2             4.7498850248        3.4143706768       -0.4593871492  WZ2       2278            0.0000000000
      9329      3110  TIP3      H1              4.3837050248        2.6486306768       -0.0169171492  WZ2       2278            0.0000000000
      9330      3110  TIP3      H2              5.6627350248        3.4433906768       -0.1728771492  WZ2       2278            0.0000000000
      9331      3111  TIP3      OH2             6.7229650248        2.7648106768        1.0763228508  WZ2       2279            0.0000000000
      9332      3111  TIP3      H1              7.6213250248        2.4908306768        0.8916628508  WZ2       2279            0.0000000000
      9333      3111  TIP3      H2              6.3362750248        2.0224106768        1.5405828508  WZ2       2279            0.0000000000
      9334      3112  TIP3      OH2             5.3474950248       19.5662906768      -16.2506771492  WZ2       2280            0.0000000000
      9335      3112  TIP3      H1              5.0799550248       19.8525806768      -15.3773671492  WZ2       2280            0.0000000000
      9336      3112  TIP3      H2              6.1187550248       19.0202106768      -16.0984271492  WZ2       2280            0.0000000000
      9337      3113  TIP3      OH2            15.1441950248        2.0973406768        1.2586028508  WZ2       2281            0.0000000000
      9338      3113  TIP3      H1             15.2209150248        1.6714106768        2.1123728508  WZ2       2281            0.0000000000
      9339      3113  TIP3      H2             16.0378550248        2.1108106768        0.9159528508  WZ2       2281            0.0000000000
      9340      3114  TIP3      OH2            18.3203050248       18.1699706768       -0.0489771492  WZ2       2282            0.0000000000
      9341      3114  TIP3      H1             17.5384950248       17.9837706768       -0.5689171492  WZ2       2282            0.0000000000
      9342      3114  TIP3      H2             18.2482950248       19.0994006768        0.1682728508  WZ2       2282            0.0000000000
      9343      3115  TIP3      OH2            32.7263450248       12.0564106768      -10.0182571492  WZ2       2283            0.0000000000
      9344      3115  TIP3      H1             32.8154550248       13.0002306768      -10.1505471492  WZ2       2283            0.0000000000
      9345      3115  TIP3      H2             32.0881050248       11.7810506768      -10.6763171492  WZ2       2283            0.0000000000
      9346      3116  TIP3      OH2            31.6594750248       11.3114806768       -6.5994371492  WZ2       2284            0.0000000000
      9347      3116  TIP3      H1             31.6212250248       10.6651106768       -5.8944771492  WZ2       2284            0.0000000000
      9348      3116  TIP3      H2             31.3371250248       10.8449206768       -7.3705671492  WZ2       2284            0.0000000000
      9349      3117  TIP3      OH2            24.0279750248       10.9256906768       -5.0064471492  WZ2       2285            0.0000000000
      9350      3117  TIP3      H1             24.0691850248       10.3000206768       -4.2832071492  WZ2       2285            0.0000000000
      9351      3117  TIP3      H2             24.7307450248       11.5495506768       -4.8244071492  WZ2       2285            0.0000000000
      9352      3118  TIP3      OH2            35.3654950248       14.2505206768       -8.2979271492  WZ2       2286            0.0000000000
      9353      3118  TIP3      H1             34.9247650248       13.5301206768       -7.8473671492  WZ2       2286            0.0000000000
      9354      3118  TIP3      H2             35.3524650248       14.9712406768       -7.6681571492  WZ2       2286            0.0000000000
      9355      3119  TIP3      OH2            24.9512850248       15.3755806768       -6.4715371492  WZ2       2287            0.0000000000
      9356      3119  TIP3      H1             24.5818050248       14.5736306768       -6.8411071492  WZ2       2287            0.0000000000
      9357      3119  TIP3      H2             25.8923950248       15.2070706768       -6.4251971492  WZ2       2287            0.0000000000
      9358      3120  TIP3      OH2            21.5613350248        9.0358406768      -11.0786571492  WZ2       2288            0.0000000000
      9359      3120  TIP3      H1             21.1136750248        9.8817106768      -11.0970071492  WZ2       2288            0.0000000000
      9360      3120  TIP3      H2             21.0004550248        8.4562606768      -11.5941471492  WZ2       2288            0.0000000000
      9361      3121  TIP3      OH2            22.2719450248       11.1978006768       -8.9528571492  WZ2       2289            0.0000000000
      9362      3121  TIP3      H1             22.4852950248       10.4279606768       -8.4255571492  WZ2       2289            0.0000000000
      9363      3121  TIP3      H2             23.0097050248       11.2874706768       -9.5560971492  WZ2       2289            0.0000000000
      9364      3122  TIP3      OH2            30.0489150248       13.7436206768       -6.1933371492  WZ2       2291            0.0000000000
      9365      3122  TIP3      H1             30.3527050248       13.0577606768       -6.7879271492  WZ2       2291            0.0000000000
      9366      3122  TIP3      H2             30.7703150248       13.8624906768       -5.5755371492  WZ2       2291            0.0000000000
      9367      3123  TIP3      OH2            33.1896150248        8.1378606768       -5.8658571492  WZ2       2292            0.0000000000
      9368      3123  TIP3      H1             33.3322050248        7.1915606768       -5.8456971492  WZ2       2292            0.0000000000
      9369      3123  TIP3      H2             33.0835150248        8.3448406768       -6.7943671492  WZ2       2292            0.0000000000
      9370      3124  TIP3      OH2            26.3444450248        6.2395006768       -8.5933771492  WZ2       2293            0.0000000000
      9371      3124  TIP3      H1             26.3875550248        7.0993506768       -9.0117471492  WZ2       2293            0.0000000000
      9372      3124  TIP3      H2             25.8868550248        5.6869706768       -9.2270571492  WZ2       2293            0.0000000000
      9373      3125  TIP3      OH2            34.0667150248        6.3700606768      -10.1925471492  WZ2       2294            0.0000000000
      9374      3125  TIP3      H1             34.7131450248        6.0413806768       -9.5677871492  WZ2       2294            0.0000000000
      9375      3125  TIP3      H2             34.5766550248        6.8879606768      -10.8154071492  WZ2       2294            0.0000000000
      9376      3126  TIP3      OH2            22.9645950248        8.6360806768       -7.8312371492  WZ2       2295            0.0000000000
      9377      3126  TIP3      H1             23.6182550248        8.0862506768       -7.3992271492  WZ2       2295            0.0000000000
      9378      3126  TIP3      H2             22.9885250248        8.3619806768       -8.7480371492  WZ2       2295            0.0000000000
      9379      3127  TIP3      OH2            28.1210450248       10.1862106768       -8.6160871492  WZ2       2296            0.0000000000
      9380      3127  TIP3      H1             28.7371450248        9.6597506768       -8.1066871492  WZ2       2296            0.0000000000
      9381      3127  TIP3      H2             27.5349250248        9.5460806768       -9.0197271492  WZ2       2296            0.0000000000
      9382      3128  TIP3      OH2            25.1546350248        5.1573406768       -4.5192971492  WZ2       2297            0.0000000000
      9383      3128  TIP3      H1             24.9358050248        5.6874006768       -5.2856971492  WZ2       2297            0.0000000000
      9384      3128  TIP3      H2             24.4867250248        5.3838906768       -3.8721571492  WZ2       2297            0.0000000000
      9385      3129  TIP3      OH2            32.5236150248       14.6574506768      -10.9753871492  WZ2       2298            0.0000000000
      9386      3129  TIP3      H1             32.2281250248       14.3346806768      -11.8266971492  WZ2       2298            0.0000000000
      9387      3129  TIP3      H2             32.1993950248       15.5571206768      -10.9341271492  WZ2       2298            0.0000000000
      9388      3130  TIP3      OH2            27.7237750248       12.8329106768       -4.2319271492  WZ2       2299            0.0000000000
      9389      3130  TIP3      H1             26.9836850248       13.4310606768       -4.1284071492  WZ2       2299            0.0000000000
      9390      3130  TIP3      H2             28.4377250248       13.3868706768       -4.5475671492  WZ2       2299            0.0000000000
      9391      3131  TIP3      OH2            24.7483650248        7.0495206768       -6.5670771492  WZ2       2300            0.0000000000
      9392      3131  TIP3      H1             25.3619950248        7.6822806768       -6.1938371492  WZ2       2300            0.0000000000
      9393      3131  TIP3      H2             25.2604350248        6.5770206768       -7.2233871492  WZ2       2300            0.0000000000
      9394      3132  TIP3      OH2            26.1312050248       14.7972106768       -3.4447771492  WZ2       2301            0.0000000000
      9395      3132  TIP3      H1             26.1259650248       15.6765606768       -3.8228471492  WZ2       2301            0.0000000000
      9396      3132  TIP3      H2             25.2776150248       14.7136206768       -3.0197871492  WZ2       2301            0.0000000000
      9397      3133  TIP3      OH2            22.2522950248       14.4680006768      -12.6628471492  WZ2       2302            0.0000000000
      9398      3133  TIP3      H1             21.9803850248       14.6971006768      -13.5515571492  WZ2       2302            0.0000000000
      9399      3133  TIP3      H2             22.2978650248       15.3058806768      -12.2023171492  WZ2       2302            0.0000000000
      9400      3134  TIP3      OH2            29.1811050248        2.4628506768       -7.0668071492  WZ2       2303            0.0000000000
      9401      3134  TIP3      H1             29.0635250248        1.5144506768       -7.1209771492  WZ2       2303            0.0000000000
      9402      3134  TIP3      H2             28.3261150248        2.7954606768       -6.7936971492  WZ2       2303            0.0000000000
      9403      3135  TIP3      OH2            31.4475950248       11.3004106768      -12.5662271492  WZ2       2306            0.0000000000
      9404      3135  TIP3      H1             30.7361450248       11.8353806768      -12.9181771492  WZ2       2306            0.0000000000
      9405      3135  TIP3      H2             32.1385550248       11.3556206768      -13.2263371492  WZ2       2306            0.0000000000
      9406      3136  TIP3      OH2            31.5015150248        9.7578406768      -15.5277271492  WZ2       2307            0.0000000000
      9407      3136  TIP3      H1             32.2025050248        9.7805306768      -14.8763271492  WZ2       2307            0.0000000000
      9408      3136  TIP3      H2             31.8038050248        9.1298106768      -16.1837971492  WZ2       2307            0.0000000000
      9409      3137  TIP3      OH2            34.8533650248       11.5097406768      -11.6146371492  WZ2       2308            0.0000000000
      9410      3137  TIP3      H1             34.1214650248       11.7381106768      -11.0415771492  WZ2       2308            0.0000000000
      9411      3137  TIP3      H2             35.3005850248       10.7960106768      -11.1598871492  WZ2       2308            0.0000000000
      9412      3138  TIP3      OH2            34.7507150248        9.6840006768       -2.5469371492  WZ2       2309            0.0000000000
      9413      3138  TIP3      H1             34.8306250248       10.4474406768       -1.9750871492  WZ2       2309            0.0000000000
      9414      3138  TIP3      H2             34.1494850248        9.9632406768       -3.2374271492  WZ2       2309            0.0000000000
      9415      3139  TIP3      OH2            26.4987350248       12.1403606768       -9.7321371492  WZ2       2310            0.0000000000
      9416      3139  TIP3      H1             26.1682550248       11.7697006768      -10.5504371492  WZ2       2310            0.0000000000
      9417      3139  TIP3      H2             27.0871450248       11.4697606768       -9.3853071492  WZ2       2310            0.0000000000
      9418      3140  TIP3      OH2            27.8654850248       15.5684206768       -7.0509171492  WZ2       2311            0.0000000000
      9419      3140  TIP3      H1             27.7706150248       14.9897306768       -7.8074571492  WZ2       2311            0.0000000000
      9420      3140  TIP3      H2             28.5948450248       15.1969906768       -6.5546371492  WZ2       2311            0.0000000000
      9421      3141  TIP3      OH2            26.8652850248       10.9089206768       -6.0986371492  WZ2       2312            0.0000000000
      9422      3141  TIP3      H1             27.4305350248       11.0303406768       -6.8615171492  WZ2       2312            0.0000000000
      9423      3141  TIP3      H2             27.1841750248       11.5464206768       -5.4597871492  WZ2       2312            0.0000000000
      9424      3142  TIP3      OH2            33.1745050248       16.4121106768       -5.3645871492  WZ2       2313            0.0000000000
      9425      3142  TIP3      H1             32.9341650248       17.0744206768       -4.7166671492  WZ2       2313            0.0000000000
      9426      3142  TIP3      H2             32.9763250248       15.5776306768       -4.9396271492  WZ2       2313            0.0000000000
      9427      3143  TIP3      OH2            27.7453550248       15.3081906768       -1.3814471492  WZ2       2314            0.0000000000
      9428      3143  TIP3      H1             27.4341050248       16.0905106768       -0.9261271492  WZ2       2314            0.0000000000
      9429      3143  TIP3      H2             27.0953750248       15.1551006768       -2.0672471492  WZ2       2314            0.0000000000
      9430      3144  TIP3      OH2            33.7243150248       10.6720306768      -13.9295171492  WZ2       2315            0.0000000000
      9431      3144  TIP3      H1             34.3038650248       10.8220606768      -13.1826271492  WZ2       2315            0.0000000000
      9432      3144  TIP3      H2             34.1383150248       11.1427706768      -14.6528771492  WZ2       2315            0.0000000000
      9433      3145  TIP3      OH2            24.6653450248       11.5063006768       -2.1528771492  WZ2       2316            0.0000000000
      9434      3145  TIP3      H1             24.7356650248       12.1569806768       -1.4543771492  WZ2       2316            0.0000000000
      9435      3145  TIP3      H2             23.7745650248       11.6090506768       -2.4877871492  WZ2       2316            0.0000000000
      9436      3146  TIP3      OH2            31.4508050248       17.4088806768      -10.4942071492  WZ2       2317            0.0000000000
      9437      3146  TIP3      H1             31.9245650248       17.7045106768       -9.7167871492  WZ2       2317            0.0000000000
      9438      3146  TIP3      H2             30.8877350248       18.1470406768      -10.7272471492  WZ2       2317            0.0000000000
      9439      3147  TIP3      OH2            25.9849450248       17.3796906768       -0.6180671492  WZ2       2318            0.0000000000
      9440      3147  TIP3      H1             25.9924750248       17.2436606768       -1.5655171492  WZ2       2318            0.0000000000
      9441      3147  TIP3      H2             25.0689850248       17.2625006768       -0.3660671492  WZ2       2318            0.0000000000
      9442      3148  TIP3      OH2            25.4890050248       11.2097906768      -12.1428571492  WZ2       2319            0.0000000000
      9443      3148  TIP3      H1             25.1971350248       11.9779606768      -12.6337271492  WZ2       2319            0.0000000000
      9444      3148  TIP3      H2             24.8145250248       10.5504106768      -12.3057171492  WZ2       2319            0.0000000000
      9445      3149  TIP3      OH2            21.5820150248       13.5727106768       -3.3278771492  WZ2       2320            0.0000000000
      9446      3149  TIP3      H1             21.0808550248       13.5446506768       -4.1429071492  WZ2       2320            0.0000000000
      9447      3149  TIP3      H2             21.5873850248       12.6670306768       -3.0181471492  WZ2       2320            0.0000000000
      9448      3150  TIP3      OH2            21.3322850248       16.3530906768       -6.4438571492  WZ2       2321            0.0000000000
      9449      3150  TIP3      H1             22.2783450248       16.2087906768       -6.4629071492  WZ2       2321            0.0000000000
      9450      3150  TIP3      H2             21.2199150248       17.1373706768       -5.9067371492  WZ2       2321            0.0000000000
      9451      3151  TIP3      OH2            30.5085350248       16.5929806768       -1.8853471492  WZ2       2322            0.0000000000
      9452      3151  TIP3      H1             30.5959950248       17.4194406768       -1.4104371492  WZ2       2322            0.0000000000
      9453      3151  TIP3      H2             29.6450450248       16.2633606768       -1.6364171492  WZ2       2322            0.0000000000
      9454      3152  TIP3      OH2            30.9231150248       20.3653506768      -12.0792871492  WZ2       2323            0.0000000000
      9455      3152  TIP3      H1             30.8477150248       20.2440706768      -13.0257671492  WZ2       2323            0.0000000000
      9456      3152  TIP3      H2             30.9559850248       21.3146206768      -11.9608271492  WZ2       2323            0.0000000000
      9457      3153  TIP3      OH2            24.5764950248       19.1540506768      -10.2983871492  WZ2       2324            0.0000000000
      9458      3153  TIP3      H1             24.7285350248       18.8060906768       -9.4197371492  WZ2       2324            0.0000000000
      9459      3153  TIP3      H2             23.7255350248       18.7977806768      -10.5536671492  WZ2       2324            0.0000000000
      9460      3154  TIP3      OH2            23.8310650248       14.8962506768       -2.2845971492  WZ2       2327            0.0000000000
      9461      3154  TIP3      H1             24.0471950248       14.5348106768       -1.4250171492  WZ2       2327            0.0000000000
      9462      3154  TIP3      H2             22.9755350248       14.5216306768       -2.4942471492  WZ2       2327            0.0000000000
      9463      3155  TIP3      OH2            26.4498650248        3.3663006768       -6.2891771492  WZ2       2328            0.0000000000
      9464      3155  TIP3      H1             25.5882350248        3.2791206768       -6.6968871492  WZ2       2328            0.0000000000
      9465      3155  TIP3      H2             26.4274350248        4.2223106768       -5.8614171492  WZ2       2328            0.0000000000
      9466      3156  TIP3      OH2            31.1126450248        3.0883406768       -2.9144771492  WZ2       2329            0.0000000000
      9467      3156  TIP3      H1             31.5329550248        2.6730506768       -2.1614171492  WZ2       2329            0.0000000000
      9468      3156  TIP3      H2             30.1796050248        2.9096706768       -2.7972771492  WZ2       2329            0.0000000000
      9469      3157  TIP3      OH2            34.4391350248        6.8438606768       -2.0610271492  WZ2       2330            0.0000000000
      9470      3157  TIP3      H1             33.9250850248        6.7180806768       -1.2634271492  WZ2       2330            0.0000000000
      9471      3157  TIP3      H2             34.2836050248        7.7561706768       -2.3054071492  WZ2       2330            0.0000000000
      9472      3158  TIP3      OH2            30.7743750248        5.5806806768      -15.6293971492  WZ2       2332            0.0000000000
      9473      3158  TIP3      H1             30.5208550248        5.5998406768      -14.7065871492  WZ2       2332            0.0000000000
      9474      3158  TIP3      H2             30.5175850248        4.7092206768      -15.9307771492  WZ2       2332            0.0000000000
      9475      3159  TIP3      OH2            26.5408750248        8.3317506768       -5.1941571492  WZ2       2333            0.0000000000
      9476      3159  TIP3      H1             25.8990850248        8.2914806768       -4.4851471492  WZ2       2333            0.0000000000
      9477      3159  TIP3      H2             26.5780750248        9.2582206768       -5.4318571492  WZ2       2333            0.0000000000
      9478      3160  TIP3      OH2            26.5377850248        8.5527606768      -10.2821571492  WZ2       2334            0.0000000000
      9479      3160  TIP3      H1             25.6450750248        8.2123706768      -10.3407771492  WZ2       2334            0.0000000000
      9480      3160  TIP3      H2             26.9884450248        8.1758506768      -11.0378371492  WZ2       2334            0.0000000000
      9481      3161  TIP3      OH2            32.0733350248        8.9687906768      -11.4650771492  WZ2       2335            0.0000000000
      9482      3161  TIP3      H1             31.6643650248        9.7836506768      -11.7565971492  WZ2       2335            0.0000000000
      9483      3161  TIP3      H2             32.7939550248        8.8288006768      -12.0793671492  WZ2       2335            0.0000000000
      9484      3162  TIP3      OH2            31.1754950248        9.1444306768        0.0229928508  WZ2       2336            0.0000000000
      9485      3162  TIP3      H1             30.6128750248        8.4395906768        0.3437728508  WZ2       2336            0.0000000000
      9486      3162  TIP3      H2             32.0018350248        9.0236206768        0.4907528508  WZ2       2336            0.0000000000
      9487      3163  TIP3      OH2            33.0781050248        8.4148306768       -8.6511071492  WZ2       2337            0.0000000000
      9488      3163  TIP3      H1             32.8825550248        9.0205106768       -9.3660471492  WZ2       2337            0.0000000000
      9489      3163  TIP3      H2             33.2593650248        7.5813506768       -9.0854771492  WZ2       2337            0.0000000000
      9490      3164  TIP3      OH2            24.2909250248        8.6521006768       -3.3269571492  WZ2       2338            0.0000000000
      9491      3164  TIP3      H1             24.2528650248        9.0522606768       -2.4582471492  WZ2       2338            0.0000000000
      9492      3164  TIP3      H2             23.8000350248        7.8353406768       -3.2366671492  WZ2       2338            0.0000000000
      9493      3165  TIP3      OH2            27.6566650248        6.0263306768      -16.5283571492  WZ2       2339            0.0000000000
      9494      3165  TIP3      H1             27.2257350248        5.5813406768      -15.7986171492  WZ2       2339            0.0000000000
      9495      3165  TIP3      H2             26.9385350248        6.3979606768      -17.0406071492  WZ2       2339            0.0000000000
      9496      3166  TIP3      OH2            20.8990050248        5.7682806768       -9.4764871492  WZ2       2340            0.0000000000
      9497      3166  TIP3      H1             21.5297750248        5.7394906768       -8.7570971492  WZ2       2340            0.0000000000
      9498      3166  TIP3      H2             21.3484350248        5.3431506768      -10.2068971492  WZ2       2340            0.0000000000
      9499      3167  TIP3      OH2            22.1732150248        6.5144806768      -14.0524471492  WZ2       2341            0.0000000000
      9500      3167  TIP3      H1             22.6473850248        7.1054706768      -14.6373571492  WZ2       2341            0.0000000000
      9501      3167  TIP3      H2             21.4558550248        7.0447706768      -13.7054371492  WZ2       2341            0.0000000000
      9502      3168  TIP3      OH2            32.3420250248       10.0529606768       -3.9798671492  WZ2       2342            0.0000000000
      9503      3168  TIP3      H1             32.6655050248        9.4219306768       -4.6228171492  WZ2       2342            0.0000000000
      9504      3168  TIP3      H2             31.9019550248        9.5181806768       -3.3191271492  WZ2       2342            0.0000000000
      9505      3169  TIP3      OH2            29.1193150248        5.9805106768       -9.1957471492  WZ2       2343            0.0000000000
      9506      3169  TIP3      H1             28.2084250248        6.0371906768       -8.9071471492  WZ2       2343            0.0000000000
      9507      3169  TIP3      H2             29.6246050248        5.9200606768       -8.3850271492  WZ2       2343            0.0000000000
      9508      3170  TIP3      OH2            23.9476550248        7.6091406768      -10.3689871492  WZ2       2344            0.0000000000
      9509      3170  TIP3      H1             23.0584550248        7.7086906768      -10.7090271492  WZ2       2344            0.0000000000
      9510      3170  TIP3      H2             24.2441450248        6.7674406768      -10.7151971492  WZ2       2344            0.0000000000
      9511      3171  TIP3      OH2            27.6008350248        7.6094006768      -12.7125271492  WZ2       2345            0.0000000000
      9512      3171  TIP3      H1             28.5323850248        7.7384006768      -12.5342171492  WZ2       2345            0.0000000000
      9513      3171  TIP3      H2             27.3858650248        8.2788306768      -13.3620571492  WZ2       2345            0.0000000000
      9514      3172  TIP3      OH2            33.5245050248        5.2151406768       -5.9315671492  WZ2       2346            0.0000000000
      9515      3172  TIP3      H1             32.8476650248        5.3464506768       -5.2675971492  WZ2       2346            0.0000000000
      9516      3172  TIP3      H2             33.0389950248        5.0600906768       -6.7417971492  WZ2       2346            0.0000000000
      9517      3173  TIP3      OH2            26.2748550248        8.8036206768      -15.1459171492  WZ2       2347            0.0000000000
      9518      3173  TIP3      H1             25.7323650248        8.4240006768      -15.8371571492  WZ2       2347            0.0000000000
      9519      3173  TIP3      H2             27.1083450248        8.9980906768      -15.5745071492  WZ2       2347            0.0000000000
      9520      3174  TIP3      OH2            24.4099950248       13.3608106768       -0.0467571492  WZ2       2348            0.0000000000
      9521      3174  TIP3      H1             25.1422350248       13.6154006768        0.5146928508  WZ2       2348            0.0000000000
      9522      3174  TIP3      H2             23.6298650248       13.5653506768        0.4687828508  WZ2       2348            0.0000000000
      9523      3175  TIP3      OH2            30.4392850248        8.7678106768       -7.3087871492  WZ2       2349            0.0000000000
      9524      3175  TIP3      H1             31.0036250248        8.2214706768       -7.8558271492  WZ2       2349            0.0000000000
      9525      3175  TIP3      H2             30.2916250248        8.2460006768       -6.5200271492  WZ2       2349            0.0000000000
      9526      3176  TIP3      OH2            25.4412550248        4.9044206768      -10.8903071492  WZ2       2350            0.0000000000
      9527      3176  TIP3      H1             25.1242050248        4.0019506768      -10.9257671492  WZ2       2350            0.0000000000
      9528      3176  TIP3      H2             26.2226650248        4.9061606768      -11.4431471492  WZ2       2350            0.0000000000
      9529      3177  TIP3      OH2            29.0658750248        7.1564206768       -4.8947471492  WZ2       2351            0.0000000000
      9530      3177  TIP3      H1             28.2304050248        7.6103706768       -4.7845071492  WZ2       2351            0.0000000000
      9531      3177  TIP3      H2             29.5899350248        7.4322706768       -4.1427571492  WZ2       2351            0.0000000000
      9532      3178  TIP3      OH2            29.6101350248       13.3691906768      -13.2101071492  WZ2       2352            0.0000000000
      9533      3178  TIP3      H1             28.8652350248       12.8617206768      -13.5323171492  WZ2       2352            0.0000000000
      9534      3178  TIP3      H2             29.4758550248       13.4179906768      -12.2636271492  WZ2       2352            0.0000000000
      9535      3179  TIP3      OH2            33.5078150248        6.1831806768      -15.0108471492  WZ2       2353            0.0000000000
      9536      3179  TIP3      H1             32.5692350248        6.2947406768      -15.1619671492  WZ2       2353            0.0000000000
      9537      3179  TIP3      H2             33.8050250248        7.0398706768      -14.7042771492  WZ2       2353            0.0000000000
      9538      3180  TIP3      OH2            31.1293450248       13.5535206768       -1.9731971492  WZ2       2354            0.0000000000
      9539      3180  TIP3      H1             30.7839550248       13.1717606768       -1.1662371492  WZ2       2354            0.0000000000
      9540      3180  TIP3      H2             30.9293550248       14.4868806768       -1.9019071492  WZ2       2354            0.0000000000
      9541      3181  TIP3      OH2            34.2261650248        8.0504506768      -13.3501071492  WZ2       2355            0.0000000000
      9542      3181  TIP3      H1             35.1180650248        7.9129506768      -13.0309871492  WZ2       2355            0.0000000000
      9543      3181  TIP3      H2             34.2825250248        8.8410606768      -13.8867571492  WZ2       2355            0.0000000000
      9544      3182  TIP3      OH2            24.7349650248       12.6641906768       -7.4403171492  WZ2       2356            0.0000000000
      9545      3182  TIP3      H1             25.4796850248       12.6617606768       -8.0416671492  WZ2       2356            0.0000000000
      9546      3182  TIP3      H2             24.8126250248       11.8405706768       -6.9588071492  WZ2       2356            0.0000000000
      9547      3183  TIP3      OH2            31.7355450248       14.8276206768      -14.1846471492  WZ2       2357            0.0000000000
      9548      3183  TIP3      H1             31.4403850248       15.6544106768      -13.8031671492  WZ2       2357            0.0000000000
      9549      3183  TIP3      H2             31.0325450248       14.2083106768      -13.9885071492  WZ2       2357            0.0000000000
      9550      3184  TIP3      OH2            21.7429350248       11.1248806768       -2.1254671492  WZ2       2358            0.0000000000
      9551      3184  TIP3      H1             21.9657950248       10.7068406768       -1.2937171492  WZ2       2358            0.0000000000
      9552      3184  TIP3      H2             21.1409450248       10.5123806768       -2.5481871492  WZ2       2358            0.0000000000
      9553      3185  TIP3      OH2            28.7594250248       10.6418706768        0.0875028508  WZ2       2359            0.0000000000
      9554      3185  TIP3      H1             28.4635050248       10.4761706768       -0.8075871492  WZ2       2359            0.0000000000
      9555      3185  TIP3      H2             29.6909450248       10.4219006768        0.0768928508  WZ2       2359            0.0000000000
      9556      3186  TIP3      OH2            33.3797050248       16.0150706768       -2.0226971492  WZ2       2360            0.0000000000
      9557      3186  TIP3      H1             32.4791350248       16.1983306768       -2.2903071492  WZ2       2360            0.0000000000
      9558      3186  TIP3      H2             33.4138150248       16.2740006768       -1.1018171492  WZ2       2360            0.0000000000
      9559      3187  TIP3      OH2            34.5665950248       11.8538506768       -6.1690371492  WZ2       2361            0.0000000000
      9560      3187  TIP3      H1             33.6382850248       11.6220406768       -6.1961071492  WZ2       2361            0.0000000000
      9561      3187  TIP3      H2             35.0177050248       11.0768306768       -6.4991571492  WZ2       2361            0.0000000000
      9562      3188  TIP3      OH2            27.1099050248       16.1820106768      -10.0361671492  WZ2       2362            0.0000000000
      9563      3188  TIP3      H1             27.6371250248       16.9554506768      -10.2362871492  WZ2       2362            0.0000000000
      9564      3188  TIP3      H2             26.2297550248       16.4069306768      -10.3377671492  WZ2       2362            0.0000000000
      9565      3189  TIP3      OH2            22.8646750248       11.0444206768      -15.4489271492  WZ2       2363            0.0000000000
      9566      3189  TIP3      H1             23.4806650248       11.6711406768      -15.0694471492  WZ2       2363            0.0000000000
      9567      3189  TIP3      H2             22.0029350248       11.3604006768      -15.1772771492  WZ2       2363            0.0000000000
      9568      3190  TIP3      OH2            28.5371350248       13.8450006768      -10.4597371492  WZ2       2364            0.0000000000
      9569      3190  TIP3      H1             28.2961350248       14.7704406768      -10.4182071492  WZ2       2364            0.0000000000
      9570      3190  TIP3      H2             27.7964950248       13.3861306768      -10.0633471492  WZ2       2364            0.0000000000
      9571      3191  TIP3      OH2            29.0517950248       17.9943606768       -4.1446271492  WZ2       2365            0.0000000000
      9572      3191  TIP3      H1             29.4142650248       18.8489206768       -4.3781871492  WZ2       2365            0.0000000000
      9573      3191  TIP3      H2             29.5833150248       17.7025206768       -3.4039971492  WZ2       2365            0.0000000000
      9574      3192  TIP3      OH2            27.2202150248       18.8667606768      -10.9145171492  WZ2       2366            0.0000000000
      9575      3192  TIP3      H1             26.2702650248       18.9725006768      -10.8631871492  WZ2       2366            0.0000000000
      9576      3192  TIP3      H2             27.5720250248       19.6875006768      -10.5697671492  WZ2       2366            0.0000000000
      9577      3193  TIP3      OH2            32.5958750248       14.0934306768       -4.4440671492  WZ2       2367            0.0000000000
      9578      3193  TIP3      H1             32.1700050248       13.8656006768       -3.6176671492  WZ2       2367            0.0000000000
      9579      3193  TIP3      H2             33.1764550248       13.3546106768       -4.6265371492  WZ2       2367            0.0000000000
      9580      3194  TIP3      OH2            23.3768850248        5.8781506768       -2.5673271492  WZ2       2370            0.0000000000
      9581      3194  TIP3      H1             22.4841150248        6.2166906768       -2.6349271492  WZ2       2370            0.0000000000
      9582      3194  TIP3      H2             23.2781650248        5.0227606768       -2.1492471492  WZ2       2370            0.0000000000
      9583      3195  TIP3      OH2            35.6646950248       13.6946806768      -13.1433771492  WZ2       2371            0.0000000000
      9584      3195  TIP3      H1             35.3874550248       12.9666106768      -12.5872671492  WZ2       2371            0.0000000000
      9585      3195  TIP3      H2             36.5919950248       13.8138806768      -12.9381171492  WZ2       2371            0.0000000000
      9586      3196  TIP3      OH2            23.0280850248       17.6825906768       -4.1323871492  WZ2       2372            0.0000000000
      9587      3196  TIP3      H1             23.2451150248       16.7508306768       -4.1634171492  WZ2       2372            0.0000000000
      9588      3196  TIP3      H2             23.2744350248       17.9570906768       -3.2491071492  WZ2       2372            0.0000000000
      9589      3197  TIP3      OH2            27.8266050248       15.7044706768      -14.4669071492  WZ2       2374            0.0000000000
      9590      3197  TIP3      H1             27.9734050248       15.1844506768      -13.6768171492  WZ2       2374            0.0000000000
      9591      3197  TIP3      H2             27.8237750248       16.6112306768      -14.1603171492  WZ2       2374            0.0000000000
      9592      3198  TIP3      OH2            24.2797150248       12.9568006768      -13.9563671492  WZ2       2375            0.0000000000
      9593      3198  TIP3      H1             23.5936450248       13.3090506768      -13.3893971492  WZ2       2375            0.0000000000
      9594      3198  TIP3      H2             24.8025050248       13.7197606768      -14.2029371492  WZ2       2375            0.0000000000
      9595      3199  TIP3      OH2            32.1112250248        5.6191806768       -3.6774671492  WZ2       2376            0.0000000000
      9596      3199  TIP3      H1             32.8100150248        5.6930506768       -3.0274971492  WZ2       2376            0.0000000000
      9597      3199  TIP3      H2             31.7303650248        4.7546806768       -3.5231771492  WZ2       2376            0.0000000000
      9598      3200  TIP3      OH2            32.8957150248        5.2713506768      -12.5802371492  WZ2       2377            0.0000000000
      9599      3200  TIP3      H1             33.1155450248        5.7428906768      -13.3836971492  WZ2       2377            0.0000000000
      9600      3200  TIP3      H2             33.4541150248        5.6656106768      -11.9101771492  WZ2       2377            0.0000000000
      9601      3201  TIP3      OH2            30.5643250248       17.4018306768      -13.7174871492  WZ2       2378            0.0000000000
      9602      3201  TIP3      H1             29.7479350248       17.8988006768      -13.6650571492  WZ2       2378            0.0000000000
      9603      3201  TIP3      H2             31.0939550248       17.8771806768      -14.3576071492  WZ2       2378            0.0000000000
      9604      3202  TIP3      OH2            30.0957050248        6.9992306768      -11.7453971492  WZ2       2379            0.0000000000
      9605      3202  TIP3      H1             30.9079650248        7.5035506768      -11.6992271492  WZ2       2379            0.0000000000
      9606      3202  TIP3      H2             29.8510050248        6.8542006768      -10.8314371492  WZ2       2379            0.0000000000
      9607      3203  TIP3      OH2            30.6313450248        7.9855006768       -2.5607371492  WZ2       2380            0.0000000000
      9608      3203  TIP3      H1             30.7503750248        8.5590406768       -1.8036971492  WZ2       2380            0.0000000000
      9609      3203  TIP3      H2             31.2868050248        7.2974406768       -2.4459571492  WZ2       2380            0.0000000000
      9610      3204  TIP3      OH2            30.9793750248        4.0805306768      -10.8072871492  WZ2       2381            0.0000000000
      9611      3204  TIP3      H1             30.6327250248        4.6975906768      -10.1628571492  WZ2       2381            0.0000000000
      9612      3204  TIP3      H2             31.6380650248        4.5811006768      -11.2887371492  WZ2       2381            0.0000000000
      9613      3205  TIP3      OH2            27.9026350248       18.4455506768      -13.7357971492  WZ2       2382            0.0000000000
      9614      3205  TIP3      H1             28.0635050248       19.2453006768      -14.2365371492  WZ2       2382            0.0000000000
      9615      3205  TIP3      H2             27.7054150248       18.7521506768      -12.8507371492  WZ2       2382            0.0000000000
      9616      3206  TIP3      OH2            26.6370750248        5.1434706768      -14.1200371492  WZ2       2383            0.0000000000
      9617      3206  TIP3      H1             26.5535550248        6.0317806768      -13.7733971492  WZ2       2383            0.0000000000
      9618      3206  TIP3      H2             27.5271050248        4.8781406768      -13.8883571492  WZ2       2383            0.0000000000
      9619      3207  TIP3      OH2            35.4380250248        9.6426306768       -7.6300371492  WZ2       2384            0.0000000000
      9620      3207  TIP3      H1             34.6404650248        9.2276506768       -7.9585371492  WZ2       2384            0.0000000000
      9621      3207  TIP3      H2             35.8831350248        8.9520006768       -7.1389871492  WZ2       2384            0.0000000000
      9622      3208  TIP3      OH2            24.8956050248       15.5706906768      -15.0595871492  WZ2       2385            0.0000000000
      9623      3208  TIP3      H1             25.4877550248       16.2701706768      -14.7833471492  WZ2       2385            0.0000000000
      9624      3208  TIP3      H2             25.3549050248       15.1376406768      -15.7791271492  WZ2       2385            0.0000000000
      9625      3209  TIP3      OH2            23.2115250248        8.2349906768      -15.9436471492  WZ2       2386            0.0000000000
      9626      3209  TIP3      H1             23.1667850248        9.1743006768      -15.7649471492  WZ2       2386            0.0000000000
      9627      3209  TIP3      H2             22.3238450248        7.9994806768      -16.2134371492  WZ2       2386            0.0000000000
      9628      3210  TIP3      OH2            24.0197250248        3.0166506768       -7.2705471492  WZ2       2387            0.0000000000
      9629      3210  TIP3      H1             23.7907050248        3.0759006768       -8.1980471492  WZ2       2387            0.0000000000
      9630      3210  TIP3      H2             23.5770650248        2.2252006768       -6.9641371492  WZ2       2387            0.0000000000
      9631      3211  TIP3      OH2            22.9500550248       16.9573606768      -11.1099671492  WZ2       2388            0.0000000000
      9632      3211  TIP3      H1             22.1179150248       17.4296306768      -11.0828271492  WZ2       2388            0.0000000000
      9633      3211  TIP3      H2             23.4958850248       17.4671206768      -11.7086571492  WZ2       2388            0.0000000000
      9634      3212  TIP3      OH2            22.2384250248       19.5697306768        0.2198328508  WZ2       2389            0.0000000000
      9635      3212  TIP3      H1             22.7786450248       19.3531306768        0.9797528508  WZ2       2389            0.0000000000
      9636      3212  TIP3      H2             21.7572250248       18.7643306768        0.0300828508  WZ2       2389            0.0000000000
      9637      3213  TIP3      OH2            26.8357650248       18.4891706768        1.8402528508  WZ2       2390            0.0000000000
      9638      3213  TIP3      H1             27.6034850248       18.0302506768        2.1811728508  WZ2       2390            0.0000000000
      9639      3213  TIP3      H2             26.8143850248       18.2631506768        0.9103728508  WZ2       2390            0.0000000000
      9640      3214  TIP3      OH2            33.4126350248       16.8692806768        0.5694028508  WZ2       2392            0.0000000000
      9641      3214  TIP3      H1             33.0615850248       16.0125806768        0.8124428508  WZ2       2392            0.0000000000
      9642      3214  TIP3      H2             34.1389550248       17.0119506768        1.1763028508  WZ2       2392            0.0000000000
      9643      3215  TIP3      OH2            22.1453750248       13.3801406768        1.1742628508  WZ2       2394            0.0000000000
      9644      3215  TIP3      H1             22.2894250248       12.4782106768        0.8879328508  WZ2       2394            0.0000000000
      9645      3215  TIP3      H2             21.3731150248       13.6663506768        0.6864928508  WZ2       2394            0.0000000000
      9646      3216  TIP3      OH2            26.4867450248       13.7237106768      -16.6932771492  WZ2       2395            0.0000000000
      9647      3216  TIP3      H1             26.5511550248       12.9296706768      -16.1626371492  WZ2       2395            0.0000000000
      9648      3216  TIP3      H2             27.1396650248       13.6049906768      -17.3830771492  WZ2       2395            0.0000000000
      9649      3217  TIP3      OH2            28.8009850248       13.3499506768        0.6069028508  WZ2       2396            0.0000000000
      9650      3217  TIP3      H1             28.4723650248       13.6207606768       -0.2503571492  WZ2       2396            0.0000000000
      9651      3217  TIP3      H2             28.9528050248       12.4089306768        0.5194028508  WZ2       2396            0.0000000000
      9652      3218  TIP3      OH2            34.5355050248       13.2656806768       -2.0098671492  WZ2       2398            0.0000000000
      9653      3218  TIP3      H1             35.2809850248       13.8540506768       -2.1294671492  WZ2       2398            0.0000000000
      9654      3218  TIP3      H2             33.7781850248       13.8476506768       -1.9465571492  WZ2       2398            0.0000000000
      9655      3219  TIP3      OH2            22.9780250248       10.5804706768        0.5941928508  WZ2       2399            0.0000000000
      9656      3219  TIP3      H1             23.3861450248        9.7231306768        0.4732528508  WZ2       2399            0.0000000000
      9657      3219  TIP3      H2             22.7177850248       10.5946006768        1.5152228508  WZ2       2399            0.0000000000
      9658      3220  TIP3      OH2            27.6361250248       11.6963306768      -14.3874771492  WZ2       2400            0.0000000000
      9659      3220  TIP3      H1             27.1763250248       11.2121606768      -13.7016271492  WZ2       2400            0.0000000000
      9660      3220  TIP3      H2             27.8909950248       11.0278706768      -15.0234271492  WZ2       2400            0.0000000000
      9661      3221  TIP3      OH2            26.9250550248        9.5890406768       -2.0315171492  WZ2       2401            0.0000000000
      9662      3221  TIP3      H1             26.3066650248       10.2637006768       -1.7510471492  WZ2       2401            0.0000000000
      9663      3221  TIP3      H2             27.2691750248        9.9104306768       -2.8648971492  WZ2       2401            0.0000000000
      9664      3222  TIP3      OH2            28.7071650248        9.9395106768      -16.1251571492  WZ2       2402            0.0000000000
      9665      3222  TIP3      H1             28.5266650248        9.7846306768      -17.0523271492  WZ2       2402            0.0000000000
      9666      3222  TIP3      H2             29.6572150248       10.0473806768      -16.0803671492  WZ2       2402            0.0000000000
      9667      3223  TIP3      OH2            31.9448750248       12.0605706768        1.2459628508  WZ2       2403            0.0000000000
      9668      3223  TIP3      H1             32.8979950248       12.1444806768        1.2185628508  WZ2       2403            0.0000000000
      9669      3223  TIP3      H2             31.7843350248       11.3487506768        1.8654528508  WZ2       2403            0.0000000000
      9670      3224  TIP3      OH2            27.2644250248        6.9441206768       -0.9492071492  WZ2       2404            0.0000000000
      9671      3224  TIP3      H1             27.4145150248        6.2152506768       -1.5512371492  WZ2       2404            0.0000000000
      9672      3224  TIP3      H2             27.2666650248        7.7212906768       -1.5079871492  WZ2       2404            0.0000000000
      9673      3225  TIP3      OH2            27.6769950248        5.3137006768       -3.4564671492  WZ2       2405            0.0000000000
      9674      3225  TIP3      H1             28.2127450248        5.7653706768       -4.1085371492  WZ2       2405            0.0000000000
      9675      3225  TIP3      H2             26.8249550248        5.2056806768       -3.8790571492  WZ2       2405            0.0000000000
      9676      3226  TIP3      OH2            29.2588350248       10.7533206768       -3.2169471492  WZ2       2406            0.0000000000
      9677      3226  TIP3      H1             30.0093150248       10.5970706768       -3.7901671492  WZ2       2406            0.0000000000
      9678      3226  TIP3      H2             28.9196650248       11.6049806768       -3.4923971492  WZ2       2406            0.0000000000
      9679      3227  TIP3      OH2            33.6744550248        8.5685006768        1.8115828508  WZ2       2407            0.0000000000
      9680      3227  TIP3      H1             33.8665850248        7.6374406768        1.7000328508  WZ2       2407            0.0000000000
      9681      3227  TIP3      H2             34.5320850248        8.9934506768        1.8011228508  WZ2       2407            0.0000000000
      9682      3228  TIP3      OH2            34.9911750248       11.3570206768       -0.1111471492  WZ2       2408            0.0000000000
      9683      3228  TIP3      H1             34.7096750248       12.0664806768       -0.6887671492  WZ2       2408            0.0000000000
      9684      3228  TIP3      H2             35.9336050248       11.2843206768       -0.2620271492  WZ2       2408            0.0000000000
      9685      3229  TIP3      OH2            25.7430550248        8.1424706768        0.9623528508  WZ2       2409            0.0000000000
      9686      3229  TIP3      H1             24.9759550248        7.6099506768        0.7521128508  WZ2       2409            0.0000000000
      9687      3229  TIP3      H2             26.4219550248        7.8325106768        0.3629828508  WZ2       2409            0.0000000000
      9688      3230  TIP3      OH2            28.4825450248        2.7702706768       -3.0251071492  WZ2       2410            0.0000000000
      9689      3230  TIP3      H1             28.3845050248        3.7165906768       -3.1304871492  WZ2       2410            0.0000000000
      9690      3230  TIP3      H2             27.7401650248        2.3976506768       -3.5007571492  WZ2       2410            0.0000000000
      9691      3231  TIP3      OH2            29.7465950248        7.0918106768        0.5387328508  WZ2       2411            0.0000000000
      9692      3231  TIP3      H1             29.5111350248        6.8724806768        1.4402228508  WZ2       2411            0.0000000000
      9693      3231  TIP3      H2             28.9632850248        6.8849306768        0.0289828508  WZ2       2411            0.0000000000
      9694      3232  TIP3      OH2            32.4622550248        6.2191606768       -0.3859171492  WZ2       2412            0.0000000000
      9695      3232  TIP3      H1             31.5147950248        6.2511306768       -0.2535871492  WZ2       2412            0.0000000000
      9696      3232  TIP3      H2             32.7749250248        5.5938706768        0.2679028508  WZ2       2412            0.0000000000
      9697      3233  TIP3      OH2            34.0964050248        4.8532706768        1.6192728508  WZ2       2413            0.0000000000
      9698      3233  TIP3      H1             33.9995850248        3.9010006768        1.6134628508  WZ2       2413            0.0000000000
      9699      3233  TIP3      H2             33.7747150248        5.1219506768        2.4798228508  WZ2       2413            0.0000000000
      9700      3234  TIP3      OH2            23.9233350248        6.0628506768        0.6668228508  WZ2       2414            0.0000000000
      9701      3234  TIP3      H1             24.1350750248        5.3564606768        0.0565728508  WZ2       2414            0.0000000000
      9702      3234  TIP3      H2             23.8120850248        5.6254506768        1.5109428508  WZ2       2414            0.0000000000
      9703      3235  TIP3      OH2            28.7043550248        2.0640106768       -0.3538271492  WZ2       2415            0.0000000000
      9704      3235  TIP3      H1             29.4161950248        1.4242306768       -0.3679171492  WZ2       2415            0.0000000000
      9705      3235  TIP3      H2             28.6033950248        2.3308406768       -1.2675171492  WZ2       2415            0.0000000000
      9706      3236  TIP3      OH2            29.0581050248        3.7468506768        1.6998028508  WZ2       2416            0.0000000000
      9707      3236  TIP3      H1             28.9263250248        3.2712306768        0.8796528508  WZ2       2416            0.0000000000
      9708      3236  TIP3      H2             28.4588450248        4.4912106768        1.6445128508  WZ2       2416            0.0000000000
      9709      3237  TIP3      OH2            22.1728250248       15.2662606768      -15.6409871492  WZ2       2418            0.0000000000
      9710      3237  TIP3      H1             23.0867450248       15.3451506768      -15.3675971492  WZ2       2418            0.0000000000
      9711      3237  TIP3      H2             22.1801350248       14.5792206768      -16.3074271492  WZ2       2418            0.0000000000
      9712      3238  TIP3      OH2            20.8218850248       20.6591106768      -10.5635971492  WZ2       2419            0.0000000000
      9713      3238  TIP3      H1             20.1745950248       20.1972806768      -11.0964771492  WZ2       2419            0.0000000000
      9714      3238  TIP3      H2             21.1763450248       19.9874406768       -9.9809771492  WZ2       2419            0.0000000000
      9715      3239  TIP3      OH2            21.6918050248       18.7398106768       -8.7589771492  WZ2       2420            0.0000000000
      9716      3239  TIP3      H1             21.3574850248       17.8595406768       -8.5869571492  WZ2       2420            0.0000000000
      9717      3239  TIP3      H2             21.9140450248       19.0853106768       -7.8944171492  WZ2       2420            0.0000000000
      9718      3240  TIP3      OH2            21.7717550248       11.8153506768       -6.3074871492  WZ2       2421            0.0000000000
      9719      3240  TIP3      H1             21.9560450248       11.7335206768       -7.2431971492  WZ2       2421            0.0000000000
      9720      3240  TIP3      H2             22.6210450248       11.6910506768       -5.8838471492  WZ2       2421            0.0000000000
      9721      3241  TIP3      OH2            21.3692350248        7.0858506768       -0.1666071492  WZ2       2422            0.0000000000
      9722      3241  TIP3      H1             22.2887250248        6.9636806768        0.0697028508  WZ2       2422            0.0000000000
      9723      3241  TIP3      H2             20.9196850248        6.3358206768        0.2227428508  WZ2       2422            0.0000000000
      9724      3242  TIP3      OH2            22.5904850248        5.3980106768       -7.2753171492  WZ2       2423            0.0000000000
      9725      3242  TIP3      H1             23.0356450248        4.6062606768       -6.9733471492  WZ2       2423            0.0000000000
      9726      3242  TIP3      H2             23.0567850248        6.1145306768       -6.8447571492  WZ2       2423            0.0000000000
      9727      3243  TIP3      OH2            20.8945150248        8.3973106768       -6.2062971492  WZ2       2424            0.0000000000
      9728      3243  TIP3      H1             21.3864950248        8.1763606768       -6.9970971492  WZ2       2424            0.0000000000
      9729      3243  TIP3      H2             21.2566050248        9.2376506768       -5.9253471492  WZ2       2424            0.0000000000
      9730      3244  TIP3      OH2            21.2081650248        4.6552206768      -12.1520571492  WZ2       2425            0.0000000000
      9731      3244  TIP3      H1             20.2830050248        4.8638806768      -12.2815071492  WZ2       2425            0.0000000000
      9732      3244  TIP3      H2             21.6621550248        5.1393006768      -12.8418271492  WZ2       2425            0.0000000000
      9733      3245  TIP3      OH2            21.1717050248        3.3931206768       -3.8078071492  WZ2       2426            0.0000000000
      9734      3245  TIP3      H1             20.5067550248        3.1471506768       -3.1647171492  WZ2       2426            0.0000000000
      9735      3245  TIP3      H2             20.7288350248        4.0151606768       -4.3850071492  WZ2       2426            0.0000000000
      9736      3246  TIP3      OH2            23.3636350248       16.5685306768        0.3367728508  WZ2       2427            0.0000000000
      9737      3246  TIP3      H1             22.5428850248       16.7431806768       -0.1237571492  WZ2       2427            0.0000000000
      9738      3246  TIP3      H2             23.1114150248       16.4950006768        1.2572128508  WZ2       2427            0.0000000000
      9739      3247  TIP3      OH2            26.3179250248       17.5426506768       -3.4048271492  WZ2       2428            0.0000000000
      9740      3247  TIP3      H1             25.8930350248       18.3525006768       -3.6873671492  WZ2       2428            0.0000000000
      9741      3247  TIP3      H2             27.2222050248       17.6280606768       -3.7068471492  WZ2       2428            0.0000000000
      9742      3248  TIP3      OH2            30.6290650248       18.9416506768       -0.4454571492  WZ2       2429            0.0000000000
      9743      3248  TIP3      H1             30.8138150248       18.6082606768        0.4325728508  WZ2       2429            0.0000000000
      9744      3248  TIP3      H2             31.4755150248       19.2515106768       -0.7675371492  WZ2       2429            0.0000000000
      9745      3249  TIP3      OH2            23.7195950248       20.7990406768       -3.3572971492  WZ2       2431            0.0000000000
      9746      3249  TIP3      H1             22.9992350248       21.2391406768       -3.8085271492  WZ2       2431            0.0000000000
      9747      3249  TIP3      H2             23.3539950248       20.5485106768       -2.5088971492  WZ2       2431            0.0000000000
      9748      3250  TIP3      OH2            26.1868550248       20.3994306768       -4.3275771492  WZ2       2432            0.0000000000
      9749      3250  TIP3      H1             25.3220750248       20.4712806768       -3.9235671492  WZ2       2432            0.0000000000
      9750      3250  TIP3      H2             26.1317550248       20.9461606768       -5.1113271492  WZ2       2432            0.0000000000
      9751      3251  TIP3      OH2            30.8974150248       20.2873206768       -5.1519771492  WZ2       2433            0.0000000000
      9752      3251  TIP3      H1             30.4408150248       20.8162906768       -5.8061371492  WZ2       2433            0.0000000000
      9753      3251  TIP3      H2             31.0602150248       20.8904606768       -4.4267471492  WZ2       2433            0.0000000000
      9754      3252  TIP3      OH2            23.1344050248       19.4222906768       -6.4471171492  WZ2       2435            0.0000000000
      9755      3252  TIP3      H1             23.1160050248       18.9968006768       -5.5898871492  WZ2       2435            0.0000000000
      9756      3252  TIP3      H2             23.9391950248       19.1037906768       -6.8558971492  WZ2       2435            0.0000000000
      9757      3253  TIP3      OH2            25.2757150248       18.1321606768       -7.7921271492  WZ2       2436            0.0000000000
      9758      3253  TIP3      H1             25.0567850248       17.2159006768       -7.6225271492  WZ2       2436            0.0000000000
      9759      3253  TIP3      H2             26.0999350248       18.2722006768       -7.3259871492  WZ2       2436            0.0000000000
      9760      3254  TIP3      OH2            27.8129650248       18.6020906768       -6.9433271492  WZ2       2437            0.0000000000
      9761      3254  TIP3      H1             28.0255350248       17.7139906768       -7.2302371492  WZ2       2437            0.0000000000
      9762      3254  TIP3      H2             27.8774750248       18.5678606768       -5.9889271492  WZ2       2437            0.0000000000
      9763      3255  TIP3      OH2            31.3213350248        4.2661506768       -7.7989971492  WZ2       2438            0.0000000000
      9764      3255  TIP3      H1             30.6470150248        3.6367106768       -7.5434171492  WZ2       2438            0.0000000000
      9765      3255  TIP3      H2             31.8852550248        3.7820406768       -8.4022071492  WZ2       2438            0.0000000000
      9766      3256  TIP3      OH2            23.6480850248        2.9001806768       -9.9770071492  WZ2       2439            0.0000000000
      9767      3256  TIP3      H1             22.8710650248        2.6656706768      -10.4844171492  WZ2       2439            0.0000000000
      9768      3256  TIP3      H2             24.1784450248        2.1033906768       -9.9682071492  WZ2       2439            0.0000000000
      9769      3257  TIP3      OH2            22.4844250248        2.6979906768      -14.1733971492  WZ2       2440            0.0000000000
      9770      3257  TIP3      H1             22.9234950248        3.3090406768      -14.7650471492  WZ2       2440            0.0000000000
      9771      3257  TIP3      H2             21.8506650248        3.2364006768      -13.6993971492  WZ2       2440            0.0000000000
      9772      3258  TIP3      OH2            28.2273450248        2.8268906768      -10.1636971492  WZ2       2441            0.0000000000
      9773      3258  TIP3      H1             29.1016850248        3.2153206768      -10.1932671492  WZ2       2441            0.0000000000
      9774      3258  TIP3      H2             28.0914250248        2.6116706768       -9.2409771492  WZ2       2441            0.0000000000
      9775      3259  TIP3      OH2            33.7841850248        2.8568706768       -8.5145271492  WZ2       2442            0.0000000000
      9776      3259  TIP3      H1             33.8603450248        2.9520306768       -9.4639271492  WZ2       2442            0.0000000000
      9777      3259  TIP3      H2             33.5091050248        1.9491606768       -8.3856171492  WZ2       2442            0.0000000000
      9778      3260  TIP3      OH2            35.1374450248        2.8826506768      -12.8220271492  WZ2       2443            0.0000000000
      9779      3260  TIP3      H1             34.4345550248        3.4975706768      -13.0318871492  WZ2       2443            0.0000000000
      9780      3260  TIP3      H2             34.6925850248        2.0453206768      -12.6909371492  WZ2       2443            0.0000000000
      9781      3261  TIP3      OH2            22.3853750248       18.6462106768      -13.2758871492  WZ2       2444            0.0000000000
      9782      3261  TIP3      H1             21.7003650248       18.6081006768      -13.9433771492  WZ2       2444            0.0000000000
      9783      3261  TIP3      H2             22.3890950248       19.5589706768      -12.9876771492  WZ2       2444            0.0000000000
      9784      3262  TIP3      OH2            24.3453350248        4.6141406768      -15.7309871492  WZ2       2445            0.0000000000
      9785      3262  TIP3      H1             24.8366750248        3.9843806768      -16.2584371492  WZ2       2445            0.0000000000
      9786      3262  TIP3      H2             24.9689650248        4.9100806768      -15.0678671492  WZ2       2445            0.0000000000
      9787      3263  TIP3      OH2            29.3713450248        4.9072906768      -13.2739371492  WZ2       2446            0.0000000000
      9788      3263  TIP3      H1             29.5494750248        4.2606106768      -12.5910771492  WZ2       2446            0.0000000000
      9789      3263  TIP3      H2             29.3179650248        5.7410606768      -12.8068271492  WZ2       2446            0.0000000000
      9790      3264  TIP3      OH2            23.6058850248        3.4143706768       -0.4593871492  WZ2       2448            0.0000000000
      9791      3264  TIP3      H1             23.2397050248        2.6486306768       -0.0169171492  WZ2       2448            0.0000000000
      9792      3264  TIP3      H2             24.5187350248        3.4433906768       -0.1728771492  WZ2       2448            0.0000000000
      9793      3265  TIP3      OH2            25.5789650248        2.7648106768        1.0763228508  WZ2       2449            0.0000000000
      9794      3265  TIP3      H1             26.4773250248        2.4908306768        0.8916628508  WZ2       2449            0.0000000000
      9795      3265  TIP3      H2             25.1922750248        2.0224106768        1.5405828508  WZ2       2449            0.0000000000
      9796      3266  TIP3      OH2            24.2034950248       19.5662906768      -16.2506771492  WZ2       2450            0.0000000000
      9797      3266  TIP3      H1             23.9359550248       19.8525806768      -15.3773671492  WZ2       2450            0.0000000000
      9798      3266  TIP3      H2             24.9747550248       19.0202106768      -16.0984271492  WZ2       2450            0.0000000000
      9799      3267  TIP3      OH2            34.0001950248        2.0973406768        1.2586028508  WZ2       2451            0.0000000000
      9800      3267  TIP3      H1             34.0769150248        1.6714106768        2.1123728508  WZ2       2451            0.0000000000
      9801      3267  TIP3      H2             34.8938550248        2.1108106768        0.9159528508  WZ2       2451            0.0000000000
      9802      3268  TIP3      OH2           -17.8561049752       24.2011506768       -5.3327171492  WZ2       2460            0.0000000000
      9803      3268  TIP3      H1            -17.8068849752       24.8112706768       -4.5968071492  WZ2       2460            0.0000000000
      9804      3268  TIP3      H2            -17.4305949752       24.6622406768       -6.0556071492  WZ2       2460            0.0000000000
      9805      3269  TIP3      OH2           -23.3783849752       26.9938606768       -5.8658571492  WZ2       2461            0.0000000000
      9806      3269  TIP3      H1            -23.2357949752       26.0475606768       -5.8456971492  WZ2       2461            0.0000000000
      9807      3269  TIP3      H2            -23.4844849752       27.2008406768       -6.7943671492  WZ2       2461            0.0000000000
      9808      3270  TIP3      OH2           -22.5012849752       25.2260606768      -10.1925471492  WZ2       2463            0.0000000000
      9809      3270  TIP3      H1            -21.8548549752       24.8973806768       -9.5677871492  WZ2       2463            0.0000000000
      9810      3270  TIP3      H2            -21.9913449752       25.7439606768      -10.8154071492  WZ2       2463            0.0000000000
      9811      3271  TIP3      OH2           -17.4646449752       25.6790706768       -3.0967371492  WZ2       2466            0.0000000000
      9812      3271  TIP3      H1            -18.1531849752       26.3371406768       -3.1920771492  WZ2       2466            0.0000000000
      9813      3271  TIP3      H2            -17.4491849752       25.4818606768       -2.1601971492  WZ2       2466            0.0000000000
      9814      3272  TIP3      OH2           -20.7374449752       24.5169906768       -8.2119571492  WZ2       2470            0.0000000000
      9815      3272  TIP3      H1            -20.9526449752       23.7513306768       -7.6793571492  WZ2       2470            0.0000000000
      9816      3272  TIP3      H2            -20.0817049752       24.9894506768       -7.6991071492  WZ2       2470            0.0000000000
      9817      3273  TIP3      OH2           -20.3900349752       23.2321206768       -4.5326071492  WZ2       2475            0.0000000000
      9818      3273  TIP3      H1            -21.1261149752       23.8428306768       -4.5704771492  WZ2       2475            0.0000000000
      9819      3273  TIP3      H2            -19.7066349752       23.6470206768       -5.0589671492  WZ2       2475            0.0000000000
      9820      3274  TIP3      OH2           -17.7510149752       29.5342606768       -4.2727871492  WZ2       2481            0.0000000000
      9821      3274  TIP3      H1            -18.4036049752       30.2288206768       -4.1836971492  WZ2       2481            0.0000000000
      9822      3274  TIP3      H2            -17.2859849752       29.7443506768       -5.0826271492  WZ2       2481            0.0000000000
      9823      3275  TIP3      OH2           -21.7146349752       30.3657406768      -11.6146371492  WZ2       2482            0.0000000000
      9824      3275  TIP3      H1            -22.4465349752       30.5941106768      -11.0415771492  WZ2       2482            0.0000000000
      9825      3275  TIP3      H2            -21.2674149752       29.6520106768      -11.1598871492  WZ2       2482            0.0000000000
      9826      3276  TIP3      OH2           -21.8172849752       28.5400006768       -2.5469371492  WZ2       2483            0.0000000000
      9827      3276  TIP3      H1            -21.7373749752       29.3034406768       -1.9750871492  WZ2       2483            0.0000000000
      9828      3276  TIP3      H2            -22.4185149752       28.8192406768       -3.2374271492  WZ2       2483            0.0000000000
      9829      3277  TIP3      OH2           -22.8436849752       29.5280306768      -13.9295171492  WZ2       2489            0.0000000000
      9830      3277  TIP3      H1            -22.2641349752       29.6780606768      -13.1826271492  WZ2       2489            0.0000000000
      9831      3277  TIP3      H2            -22.4296849752       29.9987706768      -14.6528771492  WZ2       2489            0.0000000000
      9832      3278  TIP3      OH2           -19.1448449752       21.2780706768      -14.1165471492  WZ2       2491            0.0000000000
      9833      3278  TIP3      H1            -20.0447749752       21.4169706768      -13.8214871492  WZ2       2491            0.0000000000
      9834      3278  TIP3      H2            -18.8930049752       22.1095306768      -14.5183771492  WZ2       2491            0.0000000000
      9835      3279  TIP3      OH2           -19.8858849752       27.3683106768       -0.2812671492  WZ2       2497            0.0000000000
      9836      3279  TIP3      H1            -20.2932049752       27.8488706768       -1.0019371492  WZ2       2497            0.0000000000
      9837      3279  TIP3      H2            -19.8453149752       26.4629106768       -0.5891871492  WZ2       2497            0.0000000000
      9838      3280  TIP3      OH2           -25.4553549752       21.9443406768       -2.9144771492  WZ2       2500            0.0000000000
      9839      3280  TIP3      H1            -25.0350449752       21.5290506768       -2.1614171492  WZ2       2500            0.0000000000
      9840      3280  TIP3      H2            -26.3883949752       21.7656706768       -2.7972771492  WZ2       2500            0.0000000000
      9841      3281  TIP3      OH2           -22.1288649752       25.6998606768       -2.0610271492  WZ2       2501            0.0000000000
      9842      3281  TIP3      H1            -22.6429149752       25.5740806768       -1.2634271492  WZ2       2501            0.0000000000
      9843      3281  TIP3      H2            -22.2843949752       26.6121706768       -2.3054071492  WZ2       2501            0.0000000000
      9844      3282  TIP3      OH2           -24.4946649752       27.8247906768      -11.4650771492  WZ2       2506            0.0000000000
      9845      3282  TIP3      H1            -24.9036349752       28.6396506768      -11.7565971492  WZ2       2506            0.0000000000
      9846      3282  TIP3      H2            -23.7740449752       27.6848006768      -12.0793671492  WZ2       2506            0.0000000000
      9847      3283  TIP3      OH2           -23.4898949752       27.2708306768       -8.6511071492  WZ2       2508            0.0000000000
      9848      3283  TIP3      H1            -23.6854449752       27.8765106768       -9.3660471492  WZ2       2508            0.0000000000
      9849      3283  TIP3      H2            -23.3086349752       26.4373506768       -9.0854771492  WZ2       2508            0.0000000000
      9850      3284  TIP3      OH2           -24.2259749752       28.9089606768       -3.9798671492  WZ2       2513            0.0000000000
      9851      3284  TIP3      H1            -23.9024949752       28.2779306768       -4.6228171492  WZ2       2513            0.0000000000
      9852      3284  TIP3      H2            -24.6660449752       28.3741806768       -3.3191271492  WZ2       2513            0.0000000000
      9853      3285  TIP3      OH2           -23.0434949752       24.0711406768       -5.9315671492  WZ2       2517            0.0000000000
      9854      3285  TIP3      H1            -23.7203349752       24.2024506768       -5.2675971492  WZ2       2517            0.0000000000
      9855      3285  TIP3      H2            -23.5290049752       23.9160906768       -6.7417971492  WZ2       2517            0.0000000000
      9856      3286  TIP3      OH2           -19.8079749752       31.3580106768       -4.4233471492  WZ2       2524            0.0000000000
      9857      3286  TIP3      H1            -19.1660949752       31.8146406768       -4.9671271492  WZ2       2524            0.0000000000
      9858      3286  TIP3      H2            -20.6382849752       31.4712506768       -4.8859371492  WZ2       2524            0.0000000000
      9859      3287  TIP3      OH2           -23.0601849752       25.0391806768      -15.0108471492  WZ2       2525            0.0000000000
      9860      3287  TIP3      H1            -23.9987649752       25.1507406768      -15.1619671492  WZ2       2525            0.0000000000
      9861      3287  TIP3      H2            -22.7629749752       25.8958706768      -14.7042771492  WZ2       2525            0.0000000000
      9862      3288  TIP3      OH2           -22.3418349752       26.9064506768      -13.3501071492  WZ2       2527            0.0000000000
      9863      3288  TIP3      H1            -21.4499349752       26.7689506768      -13.0309871492  WZ2       2527            0.0000000000
      9864      3288  TIP3      H2            -22.2854749752       27.6970606768      -13.8867571492  WZ2       2527            0.0000000000
      9865      3289  TIP3      OH2           -17.4569649752       27.1158606768      -13.6554371492  WZ2       2533            0.0000000000
      9866      3289  TIP3      H1            -18.0113349752       26.7196606768      -14.3276871492  WZ2       2533            0.0000000000
      9867      3289  TIP3      H2            -17.3566049752       28.0263806768      -13.9331071492  WZ2       2533            0.0000000000
      9868      3290  TIP3      OH2           -22.0014049752       30.7098506768       -6.1690371492  WZ2       2535            0.0000000000
      9869      3290  TIP3      H1            -22.9297149752       30.4780406768       -6.1961071492  WZ2       2535            0.0000000000
      9870      3290  TIP3      H2            -21.5502949752       29.9328306768       -6.4991571492  WZ2       2535            0.0000000000
      9871      3291  TIP3      OH2           -20.9033049752       32.5506806768      -13.1433771492  WZ2       2542            0.0000000000
      9872      3291  TIP3      H1            -21.1805449752       31.8226106768      -12.5872671492  WZ2       2542            0.0000000000
      9873      3291  TIP3      H2            -19.9760049752       32.6698806768      -12.9381171492  WZ2       2542            0.0000000000
      9874      3292  TIP3      OH2           -24.4567749752       24.4751806768       -3.6774671492  WZ2       2546            0.0000000000
      9875      3292  TIP3      H1            -23.7579849752       24.5490506768       -3.0274971492  WZ2       2546            0.0000000000
      9876      3292  TIP3      H2            -24.8376349752       23.6106806768       -3.5231771492  WZ2       2546            0.0000000000
      9877      3293  TIP3      OH2           -23.6722849752       24.1273506768      -12.5802371492  WZ2       2547            0.0000000000
      9878      3293  TIP3      H1            -23.4524549752       24.5988906768      -13.3836971492  WZ2       2547            0.0000000000
      9879      3293  TIP3      H2            -23.1138849752       24.5216106768      -11.9101771492  WZ2       2547            0.0000000000
      9880      3294  TIP3      OH2           -25.5886249752       22.9365306768      -10.8072871492  WZ2       2550            0.0000000000
      9881      3294  TIP3      H1            -25.9352749752       23.5535906768      -10.1628571492  WZ2       2550            0.0000000000
      9882      3294  TIP3      H2            -24.9299349752       23.4371006768      -11.2887371492  WZ2       2550            0.0000000000
      9883      3295  TIP3      OH2           -19.7320749752       24.7485306768       -1.7257671492  WZ2       2552            0.0000000000
      9884      3295  TIP3      H1            -20.6484949752       25.0107006768       -1.8133971492  WZ2       2552            0.0000000000
      9885      3295  TIP3      H2            -19.3965749752       24.7454306768       -2.6222371492  WZ2       2552            0.0000000000
      9886      3296  TIP3      OH2           -21.1299749752       28.4986306768       -7.6300371492  WZ2       2553            0.0000000000
      9887      3296  TIP3      H1            -21.9275349752       28.0836506768       -7.9585371492  WZ2       2553            0.0000000000
      9888      3296  TIP3      H2            -20.6848649752       27.8080006768       -7.1389871492  WZ2       2553            0.0000000000
      9889      3297  TIP3      OH2           -22.0324949752       32.1216806768       -2.0098671492  WZ2       2563            0.0000000000
      9890      3297  TIP3      H1            -21.2870149752       32.7100506768       -2.1294671492  WZ2       2563            0.0000000000
      9891      3297  TIP3      H2            -22.7898149752       32.7036506768       -1.9465571492  WZ2       2563            0.0000000000
      9892      3298  TIP3      OH2           -22.8935449752       27.4245006768        1.8115828508  WZ2       2573            0.0000000000
      9893      3298  TIP3      H1            -22.7014149752       26.4934406768        1.7000328508  WZ2       2573            0.0000000000
      9894      3298  TIP3      H2            -22.0359149752       27.8494506768        1.8011228508  WZ2       2573            0.0000000000
      9895      3299  TIP3      OH2           -21.5768249752       30.2130206768       -0.1111471492  WZ2       2574            0.0000000000
      9896      3299  TIP3      H1            -21.8583249752       30.9224806768       -0.6887671492  WZ2       2574            0.0000000000
      9897      3299  TIP3      H2            -20.6343949752       30.1403206768       -0.2620271492  WZ2       2574            0.0000000000
      9898      3300  TIP3      OH2           -24.1057449752       25.0751606768       -0.3859171492  WZ2       2578            0.0000000000
      9899      3300  TIP3      H1            -25.0532049752       25.1071306768       -0.2535871492  WZ2       2578            0.0000000000
      9900      3300  TIP3      H2            -23.7930749752       24.4498706768        0.2679028508  WZ2       2578            0.0000000000
      9901      3301  TIP3      OH2           -22.4715949752       23.7092706768        1.6192728508  WZ2       2579            0.0000000000
      9902      3301  TIP3      H1            -22.5684149752       22.7570006768        1.6134628508  WZ2       2579            0.0000000000
      9903      3301  TIP3      H2            -22.7932849752       23.9779506768        2.4798228508  WZ2       2579            0.0000000000
      9904      3302  TIP3      OH2           -18.0127249752       32.0187406768      -12.7043071492  WZ2       2585            0.0000000000
      9905      3302  TIP3      H1            -17.1625849752       32.4398306768      -12.5771471492  WZ2       2585            0.0000000000
      9906      3302  TIP3      H2            -18.0072149752       31.2787506768      -12.0971671492  WZ2       2585            0.0000000000
      9907      3303  TIP3      OH2           -17.6181649752       30.0724806768      -10.8807371492  WZ2       2586            0.0000000000
      9908      3303  TIP3      H1            -18.3447049752       29.5927406768      -10.4829771492  WZ2       2586            0.0000000000
      9909      3303  TIP3      H2            -17.0368349752       30.2779506768      -10.1485771492  WZ2       2586            0.0000000000
      9910      3304  TIP3      OH2           -17.3498549752       29.9733306768      -14.4896071492  WZ2       2589            0.0000000000
      9911      3304  TIP3      H1            -17.8717449752       30.3297406768      -15.2085171492  WZ2       2589            0.0000000000
      9912      3304  TIP3      H2            -17.3829349752       30.6481106768      -13.8115171492  WZ2       2589            0.0000000000
      9913      3305  TIP3      OH2           -19.0009549752       27.2128906768      -15.9388971492  WZ2       2590            0.0000000000
      9914      3305  TIP3      H1            -18.9045149752       27.8795906768      -16.6189271492  WZ2       2590            0.0000000000
      9915      3305  TIP3      H2            -19.1409949752       26.3975206768      -16.4203471492  WZ2       2590            0.0000000000
      9916      3306  TIP3      OH2           -19.8314849752       28.5931306768      -10.3178671492  WZ2       2591            0.0000000000
      9917      3306  TIP3      H1            -19.9816049752       27.6479906768      -10.3380871492  WZ2       2591            0.0000000000
      9918      3306  TIP3      H2            -20.1850349752       28.8742706768       -9.4739571492  WZ2       2591            0.0000000000
      9919      3307  TIP3      OH2           -18.9751949752       30.5634606768       -0.6790371492  WZ2       2593            0.0000000000
      9920      3307  TIP3      H1            -18.3924649752       29.8286906768       -0.4873171492  WZ2       2593            0.0000000000
      9921      3307  TIP3      H2            -18.4112649752       31.3354906768       -0.6324571492  WZ2       2593            0.0000000000
      9922      3308  TIP3      OH2           -17.4784849752       28.4660406768        0.0055028508  WZ2       2594            0.0000000000
      9923      3308  TIP3      H1            -18.3418149752       28.0872506768       -0.1600271492  WZ2       2594            0.0000000000
      9924      3308  TIP3      H2            -16.8741149752       27.7275206768       -0.0689171492  WZ2       2594            0.0000000000
      9925      3309  TIP3      OH2           -19.7535749752       24.6208706768      -16.8213471492  WZ2       2595            0.0000000000
      9926      3309  TIP3      H1            -19.1429949752       24.2495506768      -16.1845271492  WZ2       2595            0.0000000000
      9927      3309  TIP3      H2            -20.5904249752       24.1995606768      -16.6253471492  WZ2       2595            0.0000000000
      9928      3310  TIP3      OH2           -20.1210049752       26.1757106768      -11.8553571492  WZ2       2596            0.0000000000
      9929      3310  TIP3      H1            -19.8412949752       25.2687506768      -11.7311871492  WZ2       2596            0.0000000000
      9930      3310  TIP3      H2            -19.3618349752       26.6098606768      -12.2444371492  WZ2       2596            0.0000000000
      9931      3311  TIP3      OH2           -19.5091749752       26.7574506768       -6.4194671492  WZ2       2597            0.0000000000
      9932      3311  TIP3      H1            -18.5763749752       26.9694406768       -6.4538671492  WZ2       2597            0.0000000000
      9933      3311  TIP3      H2            -19.7444249752       26.8586606768       -5.4971671492  WZ2       2597            0.0000000000
      9934      3312  TIP3      OH2           -19.4799849752       27.4939806768       -3.6435271492  WZ2       2598            0.0000000000
      9935      3312  TIP3      H1            -20.3228549752       27.7620206768       -3.2775471492  WZ2       2598            0.0000000000
      9936      3312  TIP3      H2            -19.0375549752       28.3161706768       -3.8544171492  WZ2       2598            0.0000000000
      9937      3313  TIP3      OH2           -17.1968249752       21.4740006768        1.7099728508  WZ2       2600            0.0000000000
      9938      3313  TIP3      H1            -16.8471249752       20.8203506768        1.1044428508  WZ2       2600            0.0000000000
      9939      3313  TIP3      H2            -17.0498749752       22.3114106768        1.2702328508  WZ2       2600            0.0000000000
      9940      3314  TIP3      OH2           -19.5075249752       23.4386406768      -11.8071571492  WZ2       2601            0.0000000000
      9941      3314  TIP3      H1            -19.3250249752       22.9897906768      -10.9816571492  WZ2       2601            0.0000000000
      9942      3314  TIP3      H2            -20.1072349752       22.8540806768      -12.2706971492  WZ2       2601            0.0000000000
      9943      3315  TIP3      OH2           -17.6771049752       23.5834606768        0.0591028508  WZ2       2604            0.0000000000
      9944      3315  TIP3      H1            -18.5945349752       23.8541706768        0.0234528508  WZ2       2604            0.0000000000
      9945      3315  TIP3      H2            -17.5541649752       23.0483006768       -0.7249271492  WZ2       2604            0.0000000000
      9946      3316  TIP3      OH2           -17.6409049752       23.5064506768      -15.2791271492  WZ2       2605            0.0000000000
      9947      3316  TIP3      H1            -17.2286449752       22.7850206768      -15.7543271492  WZ2       2605            0.0000000000
      9948      3316  TIP3      H2            -16.9592549752       24.1759106768      -15.2206971492  WZ2       2605            0.0000000000
      9949      3317  TIP3      OH2           -18.6765149752       21.6730906768       -2.1218171492  WZ2       2609            0.0000000000
      9950      3317  TIP3      H1            -19.4891649752       21.9981206768       -2.5093471492  WZ2       2609            0.0000000000
      9951      3317  TIP3      H2            -18.4436649752       20.9129406768       -2.6549071492  WZ2       2609            0.0000000000
      9952      3318  TIP3      OH2           -25.2466649752       23.1221506768       -7.7989971492  WZ2       2610            0.0000000000
      9953      3318  TIP3      H1            -25.9209849752       22.4927106768       -7.5434171492  WZ2       2610            0.0000000000
      9954      3318  TIP3      H2            -24.6827449752       22.6380406768       -8.4022071492  WZ2       2610            0.0000000000
      9955      3319  TIP3      OH2           -20.1039449752       21.2295506768       -7.6862871492  WZ2       2611            0.0000000000
      9956      3319  TIP3      H1            -19.5001849752       21.7770906768       -8.1881871492  WZ2       2611            0.0000000000
      9957      3319  TIP3      H2            -20.9737449752       21.5485906768       -7.9268771492  WZ2       2611            0.0000000000
      9958      3320  TIP3      OH2           -18.3769049752       22.3684206768       -9.3531971492  WZ2       2612            0.0000000000
      9959      3320  TIP3      H1            -17.7651549752       21.8539906768       -9.8798371492  WZ2       2612            0.0000000000
      9960      3320  TIP3      H2            -17.9945649752       23.2456306768       -9.3297571492  WZ2       2612            0.0000000000
      9961      3321  TIP3      OH2           -22.7838149752       21.7128706768       -8.5145271492  WZ2       2616            0.0000000000
      9962      3321  TIP3      H1            -22.7076549752       21.8080306768       -9.4639271492  WZ2       2616            0.0000000000
      9963      3321  TIP3      H2            -23.0588949752       20.8051606768       -8.3856171492  WZ2       2616            0.0000000000
      9964      3322  TIP3      OH2           -21.4305549752       21.7386506768      -12.8220271492  WZ2       2617            0.0000000000
      9965      3322  TIP3      H1            -22.1334449752       22.3535706768      -13.0318871492  WZ2       2617            0.0000000000
      9966      3322  TIP3      H2            -21.8754149752       20.9013206768      -12.6909371492  WZ2       2617            0.0000000000
      9967      3323  TIP3      OH2           -22.5678049752       20.9533406768        1.2586028508  WZ2       2622            0.0000000000
      9968      3323  TIP3      H1            -22.4910849752       20.5274106768        2.1123728508  WZ2       2622            0.0000000000
      9969      3323  TIP3      H2            -21.6741449752       20.9668106768        0.9159528508  WZ2       2622            0.0000000000
      9970      3324  TIP3      OH2            -4.9856549752       30.9124106768      -10.0182571492  WZ2       2623            0.0000000000
      9971      3324  TIP3      H1             -4.8965449752       31.8562306768      -10.1505471492  WZ2       2623            0.0000000000
      9972      3324  TIP3      H2             -5.6238949752       30.6370506768      -10.6763171492  WZ2       2623            0.0000000000
      9973      3325  TIP3      OH2            -6.0525249752       30.1674806768       -6.5994371492  WZ2       2624            0.0000000000
      9974      3325  TIP3      H1             -6.0907749752       29.5211106768       -5.8944771492  WZ2       2624            0.0000000000
      9975      3325  TIP3      H2             -6.3748749752       29.7009206768       -7.3705671492  WZ2       2624            0.0000000000
      9976      3326  TIP3      OH2           -13.6840249752       29.7816906768       -5.0064471492  WZ2       2625            0.0000000000
      9977      3326  TIP3      H1            -13.6428149752       29.1560206768       -4.2832071492  WZ2       2625            0.0000000000
      9978      3326  TIP3      H2            -12.9812549752       30.4055506768       -4.8244071492  WZ2       2625            0.0000000000
      9979      3327  TIP3      OH2           -16.1506649752       27.8918406768      -11.0786571492  WZ2       2628            0.0000000000
      9980      3327  TIP3      H1            -16.5983249752       28.7377106768      -11.0970071492  WZ2       2628            0.0000000000
      9981      3327  TIP3      H2            -16.7115449752       27.3122606768      -11.5941471492  WZ2       2628            0.0000000000
      9982      3328  TIP3      OH2           -15.4400549752       30.0538006768       -8.9528571492  WZ2       2629            0.0000000000
      9983      3328  TIP3      H1            -15.2267049752       29.2839606768       -8.4255571492  WZ2       2629            0.0000000000
      9984      3328  TIP3      H2            -14.7022949752       30.1434706768       -9.5560971492  WZ2       2629            0.0000000000
      9985      3329  TIP3      OH2            -7.6630849752       32.5996206768       -6.1933371492  WZ2       2630            0.0000000000
      9986      3329  TIP3      H1             -7.3592949752       31.9137606768       -6.7879271492  WZ2       2630            0.0000000000
      9987      3329  TIP3      H2             -6.9416849752       32.7184906768       -5.5755371492  WZ2       2630            0.0000000000
      9988      3330  TIP3      OH2             0.9998950248       24.2011506768       -5.3327171492  WZ2       2631            0.0000000000
      9989      3330  TIP3      H1              1.0491150248       24.8112706768       -4.5968071492  WZ2       2631            0.0000000000
      9990      3330  TIP3      H2              1.4254050248       24.6622406768       -6.0556071492  WZ2       2631            0.0000000000
      9991      3331  TIP3      OH2            -4.5223849752       26.9938606768       -5.8658571492  WZ2       2632            0.0000000000
      9992      3331  TIP3      H1             -4.3797949752       26.0475606768       -5.8456971492  WZ2       2632            0.0000000000
      9993      3331  TIP3      H2             -4.6284849752       27.2008406768       -6.7943671492  WZ2       2632            0.0000000000
      9994      3332  TIP3      OH2           -11.3675549752       25.0955006768       -8.5933771492  WZ2       2633            0.0000000000
      9995      3332  TIP3      H1            -11.3244449752       25.9553506768       -9.0117471492  WZ2       2633            0.0000000000
      9996      3332  TIP3      H2            -11.8251449752       24.5429706768       -9.2270571492  WZ2       2633            0.0000000000
      9997      3333  TIP3      OH2            -3.6452849752       25.2260606768      -10.1925471492  WZ2       2634            0.0000000000
      9998      3333  TIP3      H1             -2.9988549752       24.8973806768       -9.5677871492  WZ2       2634            0.0000000000
      9999      3333  TIP3      H2             -3.1353449752       25.7439606768      -10.8154071492  WZ2       2634            0.0000000000
     10000      3334  TIP3      OH2           -14.7474049752       27.4920806768       -7.8312371492  WZ2       2635            0.0000000000
     10001      3334  TIP3      H1            -14.0937449752       26.9422506768       -7.3992271492  WZ2       2635            0.0000000000
     10002      3334  TIP3      H2            -14.7234749752       27.2179806768       -8.7480371492  WZ2       2635            0.0000000000
     10003      3335  TIP3      OH2            -9.5909549752       29.0422106768       -8.6160871492  WZ2       2636            0.0000000000
     10004      3335  TIP3      H1             -8.9748549752       28.5157506768       -8.1066871492  WZ2       2636            0.0000000000
     10005      3335  TIP3      H2            -10.1770749752       28.4020806768       -9.0197271492  WZ2       2636            0.0000000000
     10006      3336  TIP3      OH2             1.3913550248       25.6790706768       -3.0967371492  WZ2       2637            0.0000000000
     10007      3336  TIP3      H1              0.7028150248       26.3371406768       -3.1920771492  WZ2       2637            0.0000000000
     10008      3336  TIP3      H2              1.4068150248       25.4818606768       -2.1601971492  WZ2       2637            0.0000000000
     10009      3337  TIP3      OH2           -12.5573649752       24.0133406768       -4.5192971492  WZ2       2638            0.0000000000
     10010      3337  TIP3      H1            -12.7761949752       24.5434006768       -5.2856971492  WZ2       2638            0.0000000000
     10011      3337  TIP3      H2            -13.2252749752       24.2398906768       -3.8721571492  WZ2       2638            0.0000000000
     10012      3338  TIP3      OH2            -9.9882249752       31.6889106768       -4.2319271492  WZ2       2640            0.0000000000
     10013      3338  TIP3      H1            -10.7283149752       32.2870606768       -4.1284071492  WZ2       2640            0.0000000000
     10014      3338  TIP3      H2             -9.2742749752       32.2428706768       -4.5475671492  WZ2       2640            0.0000000000
     10015      3339  TIP3      OH2            -1.8814449752       24.5169906768       -8.2119571492  WZ2       2641            0.0000000000
     10016      3339  TIP3      H1             -2.0966449752       23.7513306768       -7.6793571492  WZ2       2641            0.0000000000
     10017      3339  TIP3      H2             -1.2257049752       24.9894506768       -7.6991071492  WZ2       2641            0.0000000000
     10018      3340  TIP3      OH2           -12.9636349752       25.9055206768       -6.5670771492  WZ2       2642            0.0000000000
     10019      3340  TIP3      H1            -12.3500049752       26.5382806768       -6.1938371492  WZ2       2642            0.0000000000
     10020      3340  TIP3      H2            -12.4515649752       25.4330206768       -7.2233871492  WZ2       2642            0.0000000000
     10021      3341  TIP3      OH2            -1.5340349752       23.2321206768       -4.5326071492  WZ2       2646            0.0000000000
     10022      3341  TIP3      H1             -2.2701149752       23.8428306768       -4.5704771492  WZ2       2646            0.0000000000
     10023      3341  TIP3      H2             -0.8506349752       23.6470206768       -5.0589671492  WZ2       2646            0.0000000000
     10024      3342  TIP3      OH2            -8.5308949752       21.3188506768       -7.0668071492  WZ2       2647            0.0000000000
     10025      3342  TIP3      H1             -8.6484749752       20.3704506768       -7.1209771492  WZ2       2647            0.0000000000
     10026      3342  TIP3      H2             -9.3858849752       21.6514606768       -6.7936971492  WZ2       2647            0.0000000000
     10027      3343  TIP3      OH2            -6.2644049752       30.1564106768      -12.5662271492  WZ2       2650            0.0000000000
     10028      3343  TIP3      H1             -6.9758549752       30.6913806768      -12.9181771492  WZ2       2650            0.0000000000
     10029      3343  TIP3      H2             -5.5734449752       30.2116206768      -13.2263371492  WZ2       2650            0.0000000000
     10030      3344  TIP3      OH2            -6.2104849752       28.6138406768      -15.5277271492  WZ2       2651            0.0000000000
     10031      3344  TIP3      H1             -5.5094949752       28.6365306768      -14.8763271492  WZ2       2651            0.0000000000
     10032      3344  TIP3      H2             -5.9081949752       27.9858106768      -16.1837971492  WZ2       2651            0.0000000000
     10033      3345  TIP3      OH2             1.1049850248       29.5342606768       -4.2727871492  WZ2       2652            0.0000000000
     10034      3345  TIP3      H1              0.4523950248       30.2288206768       -4.1836971492  WZ2       2652            0.0000000000
     10035      3345  TIP3      H2              1.5700150248       29.7443506768       -5.0826271492  WZ2       2652            0.0000000000
     10036      3346  TIP3      OH2            -2.8586349752       30.3657406768      -11.6146371492  WZ2       2653            0.0000000000
     10037      3346  TIP3      H1             -3.5905349752       30.5941106768      -11.0415771492  WZ2       2653            0.0000000000
     10038      3346  TIP3      H2             -2.4114149752       29.6520106768      -11.1598871492  WZ2       2653            0.0000000000
     10039      3347  TIP3      OH2            -2.9612849752       28.5400006768       -2.5469371492  WZ2       2654            0.0000000000
     10040      3347  TIP3      H1             -2.8813749752       29.3034406768       -1.9750871492  WZ2       2654            0.0000000000
     10041      3347  TIP3      H2             -3.5625149752       28.8192406768       -3.2374271492  WZ2       2654            0.0000000000
     10042      3348  TIP3      OH2           -11.2132649752       30.9963606768       -9.7321371492  WZ2       2655            0.0000000000
     10043      3348  TIP3      H1            -11.5437449752       30.6257006768      -10.5504371492  WZ2       2655            0.0000000000
     10044      3348  TIP3      H2            -10.6248549752       30.3257606768       -9.3853071492  WZ2       2655            0.0000000000
     10045      3349  TIP3      OH2           -10.8467149752       29.7649206768       -6.0986371492  WZ2       2657            0.0000000000
     10046      3349  TIP3      H1            -10.2814649752       29.8863406768       -6.8615171492  WZ2       2657            0.0000000000
     10047      3349  TIP3      H2            -10.5278249752       30.4024206768       -5.4597871492  WZ2       2657            0.0000000000
     10048      3350  TIP3      OH2            -3.9876849752       29.5280306768      -13.9295171492  WZ2       2660            0.0000000000
     10049      3350  TIP3      H1             -3.4081349752       29.6780606768      -13.1826271492  WZ2       2660            0.0000000000
     10050      3350  TIP3      H2             -3.5736849752       29.9987706768      -14.6528771492  WZ2       2660            0.0000000000
     10051      3351  TIP3      OH2           -13.0466549752       30.3623006768       -2.1528771492  WZ2       2661            0.0000000000
     10052      3351  TIP3      H1            -12.9763349752       31.0129806768       -1.4543771492  WZ2       2661            0.0000000000
     10053      3351  TIP3      H2            -13.9374349752       30.4650506768       -2.4877871492  WZ2       2661            0.0000000000
     10054      3352  TIP3      OH2            -0.2888449752       21.2780706768      -14.1165471492  WZ2       2662            0.0000000000
     10055      3352  TIP3      H1             -1.1887749752       21.4169706768      -13.8214871492  WZ2       2662            0.0000000000
     10056      3352  TIP3      H2             -0.0370049752       22.1095306768      -14.5183771492  WZ2       2662            0.0000000000
     10057      3353  TIP3      OH2           -12.2229949752       30.0657906768      -12.1428571492  WZ2       2663            0.0000000000
     10058      3353  TIP3      H1            -12.5148649752       30.8339606768      -12.6337271492  WZ2       2663            0.0000000000
     10059      3353  TIP3      H2            -12.8974749752       29.4064106768      -12.3057171492  WZ2       2663            0.0000000000
     10060      3354  TIP3      OH2           -16.1299849752       32.4287106768       -3.3278771492  WZ2       2665            0.0000000000
     10061      3354  TIP3      H1            -16.6311449752       32.4006506768       -4.1429071492  WZ2       2665            0.0000000000
     10062      3354  TIP3      H2            -16.1246149752       31.5230306768       -3.0181471492  WZ2       2665            0.0000000000
     10063      3355  TIP3      OH2            -1.0298849752       27.3683106768       -0.2812671492  WZ2       2668            0.0000000000
     10064      3355  TIP3      H1             -1.4372049752       27.8488706768       -1.0019371492  WZ2       2668            0.0000000000
     10065      3355  TIP3      H2             -0.9893149752       26.4629106768       -0.5891871492  WZ2       2668            0.0000000000
     10066      3356  TIP3      OH2           -11.2621349752       22.2223006768       -6.2891771492  WZ2       2670            0.0000000000
     10067      3356  TIP3      H1            -12.1237649752       22.1351206768       -6.6968871492  WZ2       2670            0.0000000000
     10068      3356  TIP3      H2            -11.2845649752       23.0783106768       -5.8614171492  WZ2       2670            0.0000000000
     10069      3357  TIP3      OH2            -6.5993549752       21.9443406768       -2.9144771492  WZ2       2671            0.0000000000
     10070      3357  TIP3      H1             -6.1790449752       21.5290506768       -2.1614171492  WZ2       2671            0.0000000000
     10071      3357  TIP3      H2             -7.5323949752       21.7656706768       -2.7972771492  WZ2       2671            0.0000000000
     10072      3358  TIP3      OH2            -3.2728649752       25.6998606768       -2.0610271492  WZ2       2672            0.0000000000
     10073      3358  TIP3      H1             -3.7869149752       25.5740806768       -1.2634271492  WZ2       2672            0.0000000000
     10074      3358  TIP3      H2             -3.4283949752       26.6121706768       -2.3054071492  WZ2       2672            0.0000000000
     10075      3359  TIP3      OH2            -2.5103749752       30.5608606768      -16.2997271492  WZ2       2673            0.0000000000
     10076      3359  TIP3      H1             -2.4682949752       30.3382506768      -17.2297271492  WZ2       2673            0.0000000000
     10077      3359  TIP3      H2             -1.6611649752       30.9595706768      -16.1097371492  WZ2       2673            0.0000000000
     10078      3360  TIP3      OH2            -6.9376249752       24.4366806768      -15.6293971492  WZ2       2674            0.0000000000
     10079      3360  TIP3      H1             -7.1911449752       24.4558406768      -14.7065871492  WZ2       2674            0.0000000000
     10080      3360  TIP3      H2             -7.1944149752       23.5652206768      -15.9307771492  WZ2       2674            0.0000000000
     10081      3361  TIP3      OH2           -11.1711249752       27.1877506768       -5.1941571492  WZ2       2675            0.0000000000
     10082      3361  TIP3      H1            -11.8129149752       27.1474806768       -4.4851471492  WZ2       2675            0.0000000000
     10083      3361  TIP3      H2            -11.1339249752       28.1142206768       -5.4318571492  WZ2       2675            0.0000000000
     10084      3362  TIP3      OH2           -11.1742149752       27.4087606768      -10.2821571492  WZ2       2676            0.0000000000
     10085      3362  TIP3      H1            -12.0669249752       27.0683706768      -10.3407771492  WZ2       2676            0.0000000000
     10086      3362  TIP3      H2            -10.7235549752       27.0318506768      -11.0378371492  WZ2       2676            0.0000000000
     10087      3363  TIP3      OH2            -5.6386649752       27.8247906768      -11.4650771492  WZ2       2677            0.0000000000
     10088      3363  TIP3      H1             -6.0476349752       28.6396506768      -11.7565971492  WZ2       2677            0.0000000000
     10089      3363  TIP3      H2             -4.9180449752       27.6848006768      -12.0793671492  WZ2       2677            0.0000000000
     10090      3364  TIP3      OH2            -6.5365049752       28.0004306768        0.0229928508  WZ2       2678            0.0000000000
     10091      3364  TIP3      H1             -7.0991249752       27.2955906768        0.3437728508  WZ2       2678            0.0000000000
     10092      3364  TIP3      H2             -5.7101649752       27.8796206768        0.4907528508  WZ2       2678            0.0000000000
     10093      3365  TIP3      OH2            -4.6338949752       27.2708306768       -8.6511071492  WZ2       2679            0.0000000000
     10094      3365  TIP3      H1             -4.8294449752       27.8765106768       -9.3660471492  WZ2       2679            0.0000000000
     10095      3365  TIP3      H2             -4.4526349752       26.4373506768       -9.0854771492  WZ2       2679            0.0000000000
     10096      3366  TIP3      OH2           -13.4210749752       27.5081006768       -3.3269571492  WZ2       2680            0.0000000000
     10097      3366  TIP3      H1            -13.4591349752       27.9082606768       -2.4582471492  WZ2       2680            0.0000000000
     10098      3366  TIP3      H2            -13.9119649752       26.6913406768       -3.2366671492  WZ2       2680            0.0000000000
     10099      3367  TIP3      OH2           -10.0553349752       24.8823306768      -16.5283571492  WZ2       2681            0.0000000000
     10100      3367  TIP3      H1            -10.4862649752       24.4373406768      -15.7986171492  WZ2       2681            0.0000000000
     10101      3367  TIP3      H2            -10.7734649752       25.2539606768      -17.0406071492  WZ2       2681            0.0000000000
     10102      3368  TIP3      OH2           -16.8129949752       24.6242806768       -9.4764871492  WZ2       2682            0.0000000000
     10103      3368  TIP3      H1            -16.1822249752       24.5954906768       -8.7570971492  WZ2       2682            0.0000000000
     10104      3368  TIP3      H2            -16.3635649752       24.1991506768      -10.2068971492  WZ2       2682            0.0000000000
     10105      3369  TIP3      OH2           -15.5387849752       25.3704806768      -14.0524471492  WZ2       2683            0.0000000000
     10106      3369  TIP3      H1            -15.0646149752       25.9614706768      -14.6373571492  WZ2       2683            0.0000000000
     10107      3369  TIP3      H2            -16.2561449752       25.9007706768      -13.7054371492  WZ2       2683            0.0000000000
     10108      3370  TIP3      OH2            -5.3699749752       28.9089606768       -3.9798671492  WZ2       2684            0.0000000000
     10109      3370  TIP3      H1             -5.0464949752       28.2779306768       -4.6228171492  WZ2       2684            0.0000000000
     10110      3370  TIP3      H2             -5.8100449752       28.3741806768       -3.3191271492  WZ2       2684            0.0000000000
     10111      3371  TIP3      OH2            -8.5926849752       24.8365106768       -9.1957471492  WZ2       2685            0.0000000000
     10112      3371  TIP3      H1             -9.5035749752       24.8931906768       -8.9071471492  WZ2       2685            0.0000000000
     10113      3371  TIP3      H2             -8.0873949752       24.7760606768       -8.3850271492  WZ2       2685            0.0000000000
     10114      3372  TIP3      OH2           -13.7643449752       26.4651406768      -10.3689871492  WZ2       2686            0.0000000000
     10115      3372  TIP3      H1            -14.6535449752       26.5646906768      -10.7090271492  WZ2       2686            0.0000000000
     10116      3372  TIP3      H2            -13.4678549752       25.6234406768      -10.7151971492  WZ2       2686            0.0000000000
     10117      3373  TIP3      OH2           -10.1111649752       26.4654006768      -12.7125271492  WZ2       2687            0.0000000000
     10118      3373  TIP3      H1             -9.1796149752       26.5944006768      -12.5342171492  WZ2       2687            0.0000000000
     10119      3373  TIP3      H2            -10.3261349752       27.1348306768      -13.3620571492  WZ2       2687            0.0000000000
     10120      3374  TIP3      OH2            -4.1874949752       24.0711406768       -5.9315671492  WZ2       2688            0.0000000000
     10121      3374  TIP3      H1             -4.8643349752       24.2024506768       -5.2675971492  WZ2       2688            0.0000000000
     10122      3374  TIP3      H2             -4.6730049752       23.9160906768       -6.7417971492  WZ2       2688            0.0000000000
     10123      3375  TIP3      OH2           -11.4371449752       27.6596206768      -15.1459171492  WZ2       2689            0.0000000000
     10124      3375  TIP3      H1            -11.9796349752       27.2800006768      -15.8371571492  WZ2       2689            0.0000000000
     10125      3375  TIP3      H2            -10.6036549752       27.8540906768      -15.5745071492  WZ2       2689            0.0000000000
     10126      3376  TIP3      OH2           -13.3020049752       32.2168106768       -0.0467571492  WZ2       2690            0.0000000000
     10127      3376  TIP3      H1            -12.5697649752       32.4714006768        0.5146928508  WZ2       2690            0.0000000000
     10128      3376  TIP3      H2            -14.0821349752       32.4213506768        0.4687828508  WZ2       2690            0.0000000000
     10129      3377  TIP3      OH2            -7.2727149752       27.6238106768       -7.3087871492  WZ2       2691            0.0000000000
     10130      3377  TIP3      H1             -6.7083749752       27.0774706768       -7.8558271492  WZ2       2691            0.0000000000
     10131      3377  TIP3      H2             -7.4203749752       27.1020006768       -6.5200271492  WZ2       2691            0.0000000000
     10132      3378  TIP3      OH2           -12.2707449752       23.7604206768      -10.8903071492  WZ2       2692            0.0000000000
     10133      3378  TIP3      H1            -12.5877949752       22.8579506768      -10.9257671492  WZ2       2692            0.0000000000
     10134      3378  TIP3      H2            -11.4893349752       23.7621606768      -11.4431471492  WZ2       2692            0.0000000000
     10135      3379  TIP3      OH2            -8.6461249752       26.0124206768       -4.8947471492  WZ2       2693            0.0000000000
     10136      3379  TIP3      H1             -9.4815949752       26.4663706768       -4.7845071492  WZ2       2693            0.0000000000
     10137      3379  TIP3      H2             -8.1220649752       26.2882706768       -4.1427571492  WZ2       2693            0.0000000000
     10138      3380  TIP3      OH2            -8.1018649752       32.2251906768      -13.2101071492  WZ2       2694            0.0000000000
     10139      3380  TIP3      H1             -8.8467649752       31.7177206768      -13.5323171492  WZ2       2694            0.0000000000
     10140      3380  TIP3      H2             -8.2361449752       32.2739906768      -12.2636271492  WZ2       2694            0.0000000000
     10141      3381  TIP3      OH2            -0.9519749752       31.3580106768       -4.4233471492  WZ2       2695            0.0000000000
     10142      3381  TIP3      H1             -0.3100949752       31.8146406768       -4.9671271492  WZ2       2695            0.0000000000
     10143      3381  TIP3      H2             -1.7822849752       31.4712506768       -4.8859371492  WZ2       2695            0.0000000000
     10144      3382  TIP3      OH2            -4.2041849752       25.0391806768      -15.0108471492  WZ2       2696            0.0000000000
     10145      3382  TIP3      H1             -5.1427649752       25.1507406768      -15.1619671492  WZ2       2696            0.0000000000
     10146      3382  TIP3      H2             -3.9069749752       25.8958706768      -14.7042771492  WZ2       2696            0.0000000000
     10147      3383  TIP3      OH2            -3.4858349752       26.9064506768      -13.3501071492  WZ2       2698            0.0000000000
     10148      3383  TIP3      H1             -2.5939349752       26.7689506768      -13.0309871492  WZ2       2698            0.0000000000
     10149      3383  TIP3      H2             -3.4294749752       27.6970606768      -13.8867571492  WZ2       2698            0.0000000000
     10150      3384  TIP3      OH2           -12.9770349752       31.5201906768       -7.4403171492  WZ2       2699            0.0000000000
     10151      3384  TIP3      H1            -12.2323149752       31.5177606768       -8.0416671492  WZ2       2699            0.0000000000
     10152      3384  TIP3      H2            -12.8993749752       30.6965706768       -6.9588071492  WZ2       2699            0.0000000000
     10153      3385  TIP3      OH2           -15.9690649752       29.9808806768       -2.1254671492  WZ2       2701            0.0000000000
     10154      3385  TIP3      H1            -15.7462049752       29.5628406768       -1.2937171492  WZ2       2701            0.0000000000
     10155      3385  TIP3      H2            -16.5710549752       29.3683806768       -2.5481871492  WZ2       2701            0.0000000000
     10156      3386  TIP3      OH2            -8.9525749752       29.4978706768        0.0875028508  WZ2       2702            0.0000000000
     10157      3386  TIP3      H1             -9.2484949752       29.3321706768       -0.8075871492  WZ2       2702            0.0000000000
     10158      3386  TIP3      H2             -8.0210549752       29.2779006768        0.0768928508  WZ2       2702            0.0000000000
     10159      3387  TIP3      OH2             1.3990350248       27.1158606768      -13.6554371492  WZ2       2704            0.0000000000
     10160      3387  TIP3      H1              0.8446650248       26.7196606768      -14.3276871492  WZ2       2704            0.0000000000
     10161      3387  TIP3      H2              1.4993950248       28.0263806768      -13.9331071492  WZ2       2704            0.0000000000
     10162      3388  TIP3      OH2            -3.1454049752       30.7098506768       -6.1690371492  WZ2       2706            0.0000000000
     10163      3388  TIP3      H1             -4.0737149752       30.4780406768       -6.1961071492  WZ2       2706            0.0000000000
     10164      3388  TIP3      H2             -2.6942949752       29.9328306768       -6.4991571492  WZ2       2706            0.0000000000
     10165      3389  TIP3      OH2           -14.8473249752       29.9004206768      -15.4489271492  WZ2       2708            0.0000000000
     10166      3389  TIP3      H1            -14.2313349752       30.5271406768      -15.0694471492  WZ2       2708            0.0000000000
     10167      3389  TIP3      H2            -15.7090649752       30.2164006768      -15.1772771492  WZ2       2708            0.0000000000
     10168      3390  TIP3      OH2           -14.3351149752       24.7341506768       -2.5673271492  WZ2       2712            0.0000000000
     10169      3390  TIP3      H1            -15.2278849752       25.0726906768       -2.6349271492  WZ2       2712            0.0000000000
     10170      3390  TIP3      H2            -14.4338349752       23.8787606768       -2.1492471492  WZ2       2712            0.0000000000
     10171      3391  TIP3      OH2            -2.0473049752       32.5506806768      -13.1433771492  WZ2       2713            0.0000000000
     10172      3391  TIP3      H1             -2.3245449752       31.8226106768      -12.5872671492  WZ2       2713            0.0000000000
     10173      3391  TIP3      H2             -1.1200049752       32.6698806768      -12.9381171492  WZ2       2713            0.0000000000
     10174      3392  TIP3      OH2           -13.4322849752       31.8128006768      -13.9563671492  WZ2       2716            0.0000000000
     10175      3392  TIP3      H1            -14.1183549752       32.1650506768      -13.3893971492  WZ2       2716            0.0000000000
     10176      3392  TIP3      H2            -12.9094949752       32.5757606768      -14.2029371492  WZ2       2716            0.0000000000
     10177      3393  TIP3      OH2            -5.6007749752       24.4751806768       -3.6774671492  WZ2       2717            0.0000000000
     10178      3393  TIP3      H1             -4.9019849752       24.5490506768       -3.0274971492  WZ2       2717            0.0000000000
     10179      3393  TIP3      H2             -5.9816349752       23.6106806768       -3.5231771492  WZ2       2717            0.0000000000
     10180      3394  TIP3      OH2            -4.8162849752       24.1273506768      -12.5802371492  WZ2       2718            0.0000000000
     10181      3394  TIP3      H1             -4.5964549752       24.5988906768      -13.3836971492  WZ2       2718            0.0000000000
     10182      3394  TIP3      H2             -4.2578849752       24.5216106768      -11.9101771492  WZ2       2718            0.0000000000
     10183      3395  TIP3      OH2            -7.6162949752       25.8552306768      -11.7453971492  WZ2       2719            0.0000000000
     10184      3395  TIP3      H1             -6.8040349752       26.3595506768      -11.6992271492  WZ2       2719            0.0000000000
     10185      3395  TIP3      H2             -7.8609949752       25.7102006768      -10.8314371492  WZ2       2719            0.0000000000
     10186      3396  TIP3      OH2            -7.0806549752       26.8415006768       -2.5607371492  WZ2       2720            0.0000000000
     10187      3396  TIP3      H1             -6.9616249752       27.4150406768       -1.8036971492  WZ2       2720            0.0000000000
     10188      3396  TIP3      H2             -6.4251949752       26.1534406768       -2.4459571492  WZ2       2720            0.0000000000
     10189      3397  TIP3      OH2            -6.7326249752       22.9365306768      -10.8072871492  WZ2       2721            0.0000000000
     10190      3397  TIP3      H1             -7.0792749752       23.5535906768      -10.1628571492  WZ2       2721            0.0000000000
     10191      3397  TIP3      H2             -6.0739349752       23.4371006768      -11.2887371492  WZ2       2721            0.0000000000
     10192      3398  TIP3      OH2           -11.0749249752       23.9994706768      -14.1200371492  WZ2       2722            0.0000000000
     10193      3398  TIP3      H1            -11.1584449752       24.8877806768      -13.7733971492  WZ2       2722            0.0000000000
     10194      3398  TIP3      H2            -10.1848949752       23.7341406768      -13.8883571492  WZ2       2722            0.0000000000
     10195      3399  TIP3      OH2            -0.8760749752       24.7485306768       -1.7257671492  WZ2       2723            0.0000000000
     10196      3399  TIP3      H1             -1.7924949752       25.0107006768       -1.8133971492  WZ2       2723            0.0000000000
     10197      3399  TIP3      H2             -0.5405749752       24.7454306768       -2.6222371492  WZ2       2723            0.0000000000
     10198      3400  TIP3      OH2            -2.2739749752       28.4986306768       -7.6300371492  WZ2       2724            0.0000000000
     10199      3400  TIP3      H1             -3.0715349752       28.0836506768       -7.9585371492  WZ2       2724            0.0000000000
     10200      3400  TIP3      H2             -1.8288649752       27.8080006768       -7.1389871492  WZ2       2724            0.0000000000
     10201      3401  TIP3      OH2           -14.5004749752       27.0909906768      -15.9436471492  WZ2       2726            0.0000000000
     10202      3401  TIP3      H1            -14.5452149752       28.0303006768      -15.7649471492  WZ2       2726            0.0000000000
     10203      3401  TIP3      H2            -15.3881549752       26.8554806768      -16.2134371492  WZ2       2726            0.0000000000
     10204      3402  TIP3      OH2           -13.6922749752       21.8726506768       -7.2705471492  WZ2       2727            0.0000000000
     10205      3402  TIP3      H1            -13.9212949752       21.9319006768       -8.1980471492  WZ2       2727            0.0000000000
     10206      3402  TIP3      H2            -14.1349349752       21.0812006768       -6.9641371492  WZ2       2727            0.0000000000
     10207      3403  TIP3      OH2           -15.5666249752       32.2361406768        1.1742628508  WZ2       2730            0.0000000000
     10208      3403  TIP3      H1            -15.4225749752       31.3342106768        0.8879328508  WZ2       2730            0.0000000000
     10209      3403  TIP3      H2            -16.3388849752       32.5223506768        0.6864928508  WZ2       2730            0.0000000000
     10210      3404  TIP3      OH2           -11.2252549752       32.5797106768      -16.6932771492  WZ2       2731            0.0000000000
     10211      3404  TIP3      H1            -11.1608449752       31.7856706768      -16.1626371492  WZ2       2731            0.0000000000
     10212      3404  TIP3      H2            -10.5723349752       32.4609906768      -17.3830771492  WZ2       2731            0.0000000000
     10213      3405  TIP3      OH2            -8.9110149752       32.2059506768        0.6069028508  WZ2       2732            0.0000000000
     10214      3405  TIP3      H1             -9.2396349752       32.4767606768       -0.2503571492  WZ2       2732            0.0000000000
     10215      3405  TIP3      H2             -8.7591949752       31.2649306768        0.5194028508  WZ2       2732            0.0000000000
     10216      3406  TIP3      OH2            -3.1764949752       32.1216806768       -2.0098671492  WZ2       2734            0.0000000000
     10217      3406  TIP3      H1             -2.4310149752       32.7100506768       -2.1294671492  WZ2       2734            0.0000000000
     10218      3406  TIP3      H2             -3.9338149752       32.7036506768       -1.9465571492  WZ2       2734            0.0000000000
     10219      3407  TIP3      OH2           -14.7339749752       29.4364706768        0.5941928508  WZ2       2735            0.0000000000
     10220      3407  TIP3      H1            -14.3258549752       28.5791306768        0.4732528508  WZ2       2735            0.0000000000
     10221      3407  TIP3      H2            -14.9942149752       29.4506006768        1.5152228508  WZ2       2735            0.0000000000
     10222      3408  TIP3      OH2           -10.0758749752       30.5523306768      -14.3874771492  WZ2       2736            0.0000000000
     10223      3408  TIP3      H1            -10.5356749752       30.0681606768      -13.7016271492  WZ2       2736            0.0000000000
     10224      3408  TIP3      H2             -9.8210049752       29.8838706768      -15.0234271492  WZ2       2736            0.0000000000
     10225      3409  TIP3      OH2           -10.7869449752       28.4450406768       -2.0315171492  WZ2       2737            0.0000000000
     10226      3409  TIP3      H1            -11.4053349752       29.1197006768       -1.7510471492  WZ2       2737            0.0000000000
     10227      3409  TIP3      H2            -10.4428249752       28.7664306768       -2.8648971492  WZ2       2737            0.0000000000
     10228      3410  TIP3      OH2            -9.0048349752       28.7955106768      -16.1251571492  WZ2       2738            0.0000000000
     10229      3410  TIP3      H1             -9.1853349752       28.6406306768      -17.0523271492  WZ2       2738            0.0000000000
     10230      3410  TIP3      H2             -8.0547849752       28.9033806768      -16.0803671492  WZ2       2738            0.0000000000
     10231      3411  TIP3      OH2            -5.7671249752       30.9165706768        1.2459628508  WZ2       2739            0.0000000000
     10232      3411  TIP3      H1             -4.8140049752       31.0004806768        1.2185628508  WZ2       2739            0.0000000000
     10233      3411  TIP3      H2             -5.9276649752       30.2047506768        1.8654528508  WZ2       2739            0.0000000000
     10234      3412  TIP3      OH2             0.3849950248       31.1499306768      -16.6793471492  WZ2       2740            0.0000000000
     10235      3412  TIP3      H1              0.1114750248       30.7254806768      -17.4925171492  WZ2       2740            0.0000000000
     10236      3412  TIP3      H2              0.4244050248       32.0813806768      -16.8963071492  WZ2       2740            0.0000000000
     10237      3413  TIP3      OH2           -10.4475749752       25.8001206768       -0.9492071492  WZ2       2741            0.0000000000
     10238      3413  TIP3      H1            -10.2974849752       25.0712506768       -1.5512371492  WZ2       2741            0.0000000000
     10239      3413  TIP3      H2            -10.4453349752       26.5772906768       -1.5079871492  WZ2       2741            0.0000000000
     10240      3414  TIP3      OH2           -10.0350049752       24.1697006768       -3.4564671492  WZ2       2742            0.0000000000
     10241      3414  TIP3      H1             -9.4992549752       24.6213706768       -4.1085371492  WZ2       2742            0.0000000000
     10242      3414  TIP3      H2            -10.8870449752       24.0616806768       -3.8790571492  WZ2       2742            0.0000000000
     10243      3415  TIP3      OH2            -8.4531649752       29.6093206768       -3.2169471492  WZ2       2743            0.0000000000
     10244      3415  TIP3      H1             -7.7026849752       29.4530706768       -3.7901671492  WZ2       2743            0.0000000000
     10245      3415  TIP3      H2             -8.7923349752       30.4609806768       -3.4923971492  WZ2       2743            0.0000000000
     10246      3416  TIP3      OH2            -4.0375449752       27.4245006768        1.8115828508  WZ2       2744            0.0000000000
     10247      3416  TIP3      H1             -3.8454149752       26.4934406768        1.7000328508  WZ2       2744            0.0000000000
     10248      3416  TIP3      H2             -3.1799149752       27.8494506768        1.8011228508  WZ2       2744            0.0000000000
     10249      3417  TIP3      OH2            -2.7208249752       30.2130206768       -0.1111471492  WZ2       2745            0.0000000000
     10250      3417  TIP3      H1             -3.0023249752       30.9224806768       -0.6887671492  WZ2       2745            0.0000000000
     10251      3417  TIP3      H2             -1.7783949752       30.1403206768       -0.2620271492  WZ2       2745            0.0000000000
     10252      3418  TIP3      OH2           -11.9689449752       26.9984706768        0.9623528508  WZ2       2746            0.0000000000
     10253      3418  TIP3      H1            -12.7360449752       26.4659506768        0.7521128508  WZ2       2746            0.0000000000
     10254      3418  TIP3      H2            -11.2900449752       26.6885106768        0.3629828508  WZ2       2746            0.0000000000
     10255      3419  TIP3      OH2            -9.2294549752       21.6262706768       -3.0251071492  WZ2       2747            0.0000000000
     10256      3419  TIP3      H1             -9.3274949752       22.5725906768       -3.1304871492  WZ2       2747            0.0000000000
     10257      3419  TIP3      H2             -9.9718349752       21.2536506768       -3.5007571492  WZ2       2747            0.0000000000
     10258      3420  TIP3      OH2            -7.9654049752       25.9478106768        0.5387328508  WZ2       2748            0.0000000000
     10259      3420  TIP3      H1             -8.2008649752       25.7284806768        1.4402228508  WZ2       2748            0.0000000000
     10260      3420  TIP3      H2             -8.7487149752       25.7409306768        0.0289828508  WZ2       2748            0.0000000000
     10261      3421  TIP3      OH2            -5.2497449752       25.0751606768       -0.3859171492  WZ2       2749            0.0000000000
     10262      3421  TIP3      H1             -6.1972049752       25.1071306768       -0.2535871492  WZ2       2749            0.0000000000
     10263      3421  TIP3      H2             -4.9370749752       24.4498706768        0.2679028508  WZ2       2749            0.0000000000
     10264      3422  TIP3      OH2            -3.6155949752       23.7092706768        1.6192728508  WZ2       2750            0.0000000000
     10265      3422  TIP3      H1             -3.7124149752       22.7570006768        1.6134628508  WZ2       2750            0.0000000000
     10266      3422  TIP3      H2             -3.9372849752       23.9779506768        2.4798228508  WZ2       2750            0.0000000000
     10267      3423  TIP3      OH2           -13.7886649752       24.9188506768        0.6668228508  WZ2       2751            0.0000000000
     10268      3423  TIP3      H1            -13.5769249752       24.2124606768        0.0565728508  WZ2       2751            0.0000000000
     10269      3423  TIP3      H2            -13.8999149752       24.4814506768        1.5109428508  WZ2       2751            0.0000000000
     10270      3424  TIP3      OH2            -9.0076449752       20.9200106768       -0.3538271492  WZ2       2752            0.0000000000
     10271      3424  TIP3      H1             -8.2958049752       20.2802306768       -0.3679171492  WZ2       2752            0.0000000000
     10272      3424  TIP3      H2             -9.1086049752       21.1868406768       -1.2675171492  WZ2       2752            0.0000000000
     10273      3425  TIP3      OH2            -8.6538949752       22.6028506768        1.6998028508  WZ2       2753            0.0000000000
     10274      3425  TIP3      H1             -8.7856749752       22.1272306768        0.8796528508  WZ2       2753            0.0000000000
     10275      3425  TIP3      H2             -9.2531549752       23.3472106768        1.6445128508  WZ2       2753            0.0000000000
     10276      3426  TIP3      OH2             0.8432750248       32.0187406768      -12.7043071492  WZ2       2756            0.0000000000
     10277      3426  TIP3      H1              1.6934150248       32.4398306768      -12.5771471492  WZ2       2756            0.0000000000
     10278      3426  TIP3      H2              0.8487850248       31.2787506768      -12.0971671492  WZ2       2756            0.0000000000
     10279      3427  TIP3      OH2             1.2378350248       30.0724806768      -10.8807371492  WZ2       2757            0.0000000000
     10280      3427  TIP3      H1              0.5112950248       29.5927406768      -10.4829771492  WZ2       2757            0.0000000000
     10281      3427  TIP3      H2              1.8191650248       30.2779506768      -10.1485771492  WZ2       2757            0.0000000000
     10282      3428  TIP3      OH2             1.5061450248       29.9733306768      -14.4896071492  WZ2       2760            0.0000000000
     10283      3428  TIP3      H1              0.9842550248       30.3297406768      -15.2085171492  WZ2       2760            0.0000000000
     10284      3428  TIP3      H2              1.4730650248       30.6481106768      -13.8115171492  WZ2       2760            0.0000000000
     10285      3429  TIP3      OH2            -0.1449549752       27.2128906768      -15.9388971492  WZ2       2761            0.0000000000
     10286      3429  TIP3      H1             -0.0485149752       27.8795906768      -16.6189271492  WZ2       2761            0.0000000000
     10287      3429  TIP3      H2             -0.2849949752       26.3975206768      -16.4203471492  WZ2       2761            0.0000000000
     10288      3430  TIP3      OH2            -0.9754849752       28.5931306768      -10.3178671492  WZ2       2762            0.0000000000
     10289      3430  TIP3      H1             -1.1256049752       27.6479906768      -10.3380871492  WZ2       2762            0.0000000000
     10290      3430  TIP3      H2             -1.3290349752       28.8742706768       -9.4739571492  WZ2       2762            0.0000000000
     10291      3431  TIP3      OH2           -15.9402449752       30.6713506768       -6.3074871492  WZ2       2763            0.0000000000
     10292      3431  TIP3      H1            -15.7559549752       30.5895206768       -7.2431971492  WZ2       2763            0.0000000000
     10293      3431  TIP3      H2            -15.0909549752       30.5470506768       -5.8838471492  WZ2       2763            0.0000000000
     10294      3432  TIP3      OH2            -0.1191949752       30.5634606768       -0.6790371492  WZ2       2764            0.0000000000
     10295      3432  TIP3      H1              0.4635350248       29.8286906768       -0.4873171492  WZ2       2764            0.0000000000
     10296      3432  TIP3      H2              0.4447350248       31.3354906768       -0.6324571492  WZ2       2764            0.0000000000
     10297      3433  TIP3      OH2             1.3775150248       28.4660406768        0.0055028508  WZ2       2765            0.0000000000
     10298      3433  TIP3      H1              0.5141850248       28.0872506768       -0.1600271492  WZ2       2765            0.0000000000
     10299      3433  TIP3      H2              1.9818850248       27.7275206768       -0.0689171492  WZ2       2765            0.0000000000
     10300      3434  TIP3      OH2            -0.8975749752       24.6208706768      -16.8213471492  WZ2       2766            0.0000000000
     10301      3434  TIP3      H1             -0.2869949752       24.2495506768      -16.1845271492  WZ2       2766            0.0000000000
     10302      3434  TIP3      H2             -1.7344249752       24.1995606768      -16.6253471492  WZ2       2766            0.0000000000
     10303      3435  TIP3      OH2            -1.2650049752       26.1757106768      -11.8553571492  WZ2       2767            0.0000000000
     10304      3435  TIP3      H1             -0.9852949752       25.2687506768      -11.7311871492  WZ2       2767            0.0000000000
     10305      3435  TIP3      H2             -0.5058349752       26.6098606768      -12.2444371492  WZ2       2767            0.0000000000
     10306      3436  TIP3      OH2            -0.6531749752       26.7574506768       -6.4194671492  WZ2       2768            0.0000000000
     10307      3436  TIP3      H1              0.2796250248       26.9694406768       -6.4538671492  WZ2       2768            0.0000000000
     10308      3436  TIP3      H2             -0.8884249752       26.8586606768       -5.4971671492  WZ2       2768            0.0000000000
     10309      3437  TIP3      OH2            -0.6239849752       27.4939806768       -3.6435271492  WZ2       2769            0.0000000000
     10310      3437  TIP3      H1             -1.4668549752       27.7620206768       -3.2775471492  WZ2       2769            0.0000000000
     10311      3437  TIP3      H2             -0.1815549752       28.3161706768       -3.8544171492  WZ2       2769            0.0000000000
     10312      3438  TIP3      OH2           -16.3427649752       25.9418506768       -0.1666071492  WZ2       2770            0.0000000000
     10313      3438  TIP3      H1            -15.4232749752       25.8196806768        0.0697028508  WZ2       2770            0.0000000000
     10314      3438  TIP3      H2            -16.7923149752       25.1918206768        0.2227428508  WZ2       2770            0.0000000000
     10315      3439  TIP3      OH2             1.6591750248       21.4740006768        1.7099728508  WZ2       2771            0.0000000000
     10316      3439  TIP3      H1              2.0088750248       20.8203506768        1.1044428508  WZ2       2771            0.0000000000
     10317      3439  TIP3      H2              1.8061250248       22.3114106768        1.2702328508  WZ2       2771            0.0000000000
     10318      3440  TIP3      OH2            -0.6515249752       23.4386406768      -11.8071571492  WZ2       2772            0.0000000000
     10319      3440  TIP3      H1             -0.4690249752       22.9897906768      -10.9816571492  WZ2       2772            0.0000000000
     10320      3440  TIP3      H2             -1.2512349752       22.8540806768      -12.2706971492  WZ2       2772            0.0000000000
     10321      3441  TIP3      OH2           -15.1215149752       24.2540106768       -7.2753171492  WZ2       2773            0.0000000000
     10322      3441  TIP3      H1            -14.6763549752       23.4622606768       -6.9733471492  WZ2       2773            0.0000000000
     10323      3441  TIP3      H2            -14.6552149752       24.9705306768       -6.8447571492  WZ2       2773            0.0000000000
     10324      3442  TIP3      OH2           -16.8174849752       27.2533106768       -6.2062971492  WZ2       2774            0.0000000000
     10325      3442  TIP3      H1            -16.3255049752       27.0323606768       -6.9970971492  WZ2       2774            0.0000000000
     10326      3442  TIP3      H2            -16.4553949752       28.0936506768       -5.9253471492  WZ2       2774            0.0000000000
     10327      3443  TIP3      OH2             1.1788950248       23.5834606768        0.0591028508  WZ2       2775            0.0000000000
     10328      3443  TIP3      H1              0.2614650248       23.8541706768        0.0234528508  WZ2       2775            0.0000000000
     10329      3443  TIP3      H2              1.3018350248       23.0483006768       -0.7249271492  WZ2       2775            0.0000000000
     10330      3444  TIP3      OH2             1.2150950248       23.5064506768      -15.2791271492  WZ2       2776            0.0000000000
     10331      3444  TIP3      H1              1.6273550248       22.7850206768      -15.7543271492  WZ2       2776            0.0000000000
     10332      3444  TIP3      H2              1.8967450248       24.1759106768      -15.2206971492  WZ2       2776            0.0000000000
     10333      3445  TIP3      OH2           -16.5038349752       23.5112206768      -12.1520571492  WZ2       2777            0.0000000000
     10334      3445  TIP3      H1            -17.4289949752       23.7198806768      -12.2815071492  WZ2       2777            0.0000000000
     10335      3445  TIP3      H2            -16.0498449752       23.9953006768      -12.8418271492  WZ2       2777            0.0000000000
     10336      3446  TIP3      OH2           -16.5402949752       22.2491206768       -3.8078071492  WZ2       2778            0.0000000000
     10337      3446  TIP3      H1            -17.2052449752       22.0031506768       -3.1647171492  WZ2       2778            0.0000000000
     10338      3446  TIP3      H2            -16.9831649752       22.8711606768       -4.3850071492  WZ2       2778            0.0000000000
     10339      3447  TIP3      OH2             0.1794850248       21.6730906768       -2.1218171492  WZ2       2780            0.0000000000
     10340      3447  TIP3      H1             -0.6331649752       21.9981206768       -2.5093471492  WZ2       2780            0.0000000000
     10341      3447  TIP3      H2              0.4123350248       20.9129406768       -2.6549071492  WZ2       2780            0.0000000000
     10342      3448  TIP3      OH2            -6.3906649752       23.1221506768       -7.7989971492  WZ2       2781            0.0000000000
     10343      3448  TIP3      H1             -7.0649849752       22.4927106768       -7.5434171492  WZ2       2781            0.0000000000
     10344      3448  TIP3      H2             -5.8267449752       22.6380406768       -8.4022071492  WZ2       2781            0.0000000000
     10345      3449  TIP3      OH2            -1.2479449752       21.2295506768       -7.6862871492  WZ2       2782            0.0000000000
     10346      3449  TIP3      H1             -0.6441849752       21.7770906768       -8.1881871492  WZ2       2782            0.0000000000
     10347      3449  TIP3      H2             -2.1177449752       21.5485906768       -7.9268771492  WZ2       2782            0.0000000000
     10348      3450  TIP3      OH2             0.4790950248       22.3684206768       -9.3531971492  WZ2       2783            0.0000000000
     10349      3450  TIP3      H1              1.0908450248       21.8539906768       -9.8798371492  WZ2       2783            0.0000000000
     10350      3450  TIP3      H2              0.8614350248       23.2456306768       -9.3297571492  WZ2       2783            0.0000000000
     10351      3451  TIP3      OH2           -14.0639149752       21.7561806768       -9.9770071492  WZ2       2784            0.0000000000
     10352      3451  TIP3      H1            -14.8409349752       21.5216706768      -10.4844171492  WZ2       2784            0.0000000000
     10353      3451  TIP3      H2            -13.5335549752       20.9593906768       -9.9682071492  WZ2       2784            0.0000000000
     10354      3452  TIP3      OH2           -15.2275749752       21.5539906768      -14.1733971492  WZ2       2785            0.0000000000
     10355      3452  TIP3      H1            -14.7885049752       22.1650406768      -14.7650471492  WZ2       2785            0.0000000000
     10356      3452  TIP3      H2            -15.8613349752       22.0924006768      -13.6993971492  WZ2       2785            0.0000000000
     10357      3453  TIP3      OH2            -9.4846549752       21.6828906768      -10.1636971492  WZ2       2786            0.0000000000
     10358      3453  TIP3      H1             -8.6103149752       22.0713206768      -10.1932671492  WZ2       2786            0.0000000000
     10359      3453  TIP3      H2             -9.6205749752       21.4676706768       -9.2409771492  WZ2       2786            0.0000000000
     10360      3454  TIP3      OH2            -3.9278149752       21.7128706768       -8.5145271492  WZ2       2787            0.0000000000
     10361      3454  TIP3      H1             -3.8516549752       21.8080306768       -9.4639271492  WZ2       2787            0.0000000000
     10362      3454  TIP3      H2             -4.2028949752       20.8051606768       -8.3856171492  WZ2       2787            0.0000000000
     10363      3455  TIP3      OH2            -2.5745549752       21.7386506768      -12.8220271492  WZ2       2788            0.0000000000
     10364      3455  TIP3      H1             -3.2774449752       22.3535706768      -13.0318871492  WZ2       2788            0.0000000000
     10365      3455  TIP3      H2             -3.0194149752       20.9013206768      -12.6909371492  WZ2       2788            0.0000000000
     10366      3456  TIP3      OH2           -13.3666649752       23.4701406768      -15.7309871492  WZ2       2789            0.0000000000
     10367      3456  TIP3      H1            -12.8753249752       22.8403806768      -16.2584371492  WZ2       2789            0.0000000000
     10368      3456  TIP3      H2            -12.7430349752       23.7660806768      -15.0678671492  WZ2       2789            0.0000000000
     10369      3457  TIP3      OH2            -8.3406549752       23.7632906768      -13.2739371492  WZ2       2790            0.0000000000
     10370      3457  TIP3      H1             -8.1625249752       23.1166106768      -12.5910771492  WZ2       2790            0.0000000000
     10371      3457  TIP3      H2             -8.3940349752       24.5970606768      -12.8068271492  WZ2       2790            0.0000000000
     10372      3458  TIP3      OH2           -14.1061149752       22.2703706768       -0.4593871492  WZ2       2791            0.0000000000
     10373      3458  TIP3      H1            -14.4722949752       21.5046306768       -0.0169171492  WZ2       2791            0.0000000000
     10374      3458  TIP3      H2            -13.1932649752       22.2993906768       -0.1728771492  WZ2       2791            0.0000000000
     10375      3459  TIP3      OH2           -12.1330349752       21.6208106768        1.0763228508  WZ2       2792            0.0000000000
     10376      3459  TIP3      H1            -11.2346749752       21.3468306768        0.8916628508  WZ2       2792            0.0000000000
     10377      3459  TIP3      H2            -12.5197249752       20.8784106768        1.5405828508  WZ2       2792            0.0000000000
     10378      3460  TIP3      OH2            -3.7118049752       20.9533406768        1.2586028508  WZ2       2793            0.0000000000
     10379      3460  TIP3      H1             -3.6350849752       20.5274106768        2.1123728508  WZ2       2793            0.0000000000
     10380      3460  TIP3      H2             -2.8181449752       20.9668106768        0.9159528508  WZ2       2793            0.0000000000
     10381      3461  TIP3      OH2            13.8703450248       30.9124106768      -10.0182571492  WZ2       2794            0.0000000000
     10382      3461  TIP3      H1             13.9594550248       31.8562306768      -10.1505471492  WZ2       2794            0.0000000000
     10383      3461  TIP3      H2             13.2321050248       30.6370506768      -10.6763171492  WZ2       2794            0.0000000000
     10384      3462  TIP3      OH2            12.8034750248       30.1674806768       -6.5994371492  WZ2       2795            0.0000000000
     10385      3462  TIP3      H1             12.7652250248       29.5211106768       -5.8944771492  WZ2       2795            0.0000000000
     10386      3462  TIP3      H2             12.4811250248       29.7009206768       -7.3705671492  WZ2       2795            0.0000000000
     10387      3463  TIP3      OH2             5.1719750248       29.7816906768       -5.0064471492  WZ2       2796            0.0000000000
     10388      3463  TIP3      H1              5.2131850248       29.1560206768       -4.2832071492  WZ2       2796            0.0000000000
     10389      3463  TIP3      H2              5.8747450248       30.4055506768       -4.8244071492  WZ2       2796            0.0000000000
     10390      3464  TIP3      OH2             2.7053350248       27.8918406768      -11.0786571492  WZ2       2799            0.0000000000
     10391      3464  TIP3      H1              2.2576750248       28.7377106768      -11.0970071492  WZ2       2799            0.0000000000
     10392      3464  TIP3      H2              2.1444550248       27.3122606768      -11.5941471492  WZ2       2799            0.0000000000
     10393      3465  TIP3      OH2             3.4159450248       30.0538006768       -8.9528571492  WZ2       2800            0.0000000000
     10394      3465  TIP3      H1              3.6292950248       29.2839606768       -8.4255571492  WZ2       2800            0.0000000000
     10395      3465  TIP3      H2              4.1537050248       30.1434706768       -9.5560971492  WZ2       2800            0.0000000000
     10396      3466  TIP3      OH2            11.1929150248       32.5996206768       -6.1933371492  WZ2       2801            0.0000000000
     10397      3466  TIP3      H1             11.4967050248       31.9137606768       -6.7879271492  WZ2       2801            0.0000000000
     10398      3466  TIP3      H2             11.9143150248       32.7184906768       -5.5755371492  WZ2       2801            0.0000000000
     10399      3467  TIP3      OH2            19.8558950248       24.2011506768       -5.3327171492  WZ2       2802            0.0000000000
     10400      3467  TIP3      H1             19.9051150248       24.8112706768       -4.5968071492  WZ2       2802            0.0000000000
     10401      3467  TIP3      H2             20.2814050248       24.6622406768       -6.0556071492  WZ2       2802            0.0000000000
     10402      3468  TIP3      OH2            14.3336150248       26.9938606768       -5.8658571492  WZ2       2803            0.0000000000
     10403      3468  TIP3      H1             14.4762050248       26.0475606768       -5.8456971492  WZ2       2803            0.0000000000
     10404      3468  TIP3      H2             14.2275150248       27.2008406768       -6.7943671492  WZ2       2803            0.0000000000
     10405      3469  TIP3      OH2             7.4884450248       25.0955006768       -8.5933771492  WZ2       2804            0.0000000000
     10406      3469  TIP3      H1              7.5315550248       25.9553506768       -9.0117471492  WZ2       2804            0.0000000000
     10407      3469  TIP3      H2              7.0308550248       24.5429706768       -9.2270571492  WZ2       2804            0.0000000000
     10408      3470  TIP3      OH2            15.2107150248       25.2260606768      -10.1925471492  WZ2       2805            0.0000000000
     10409      3470  TIP3      H1             15.8571450248       24.8973806768       -9.5677871492  WZ2       2805            0.0000000000
     10410      3470  TIP3      H2             15.7206550248       25.7439606768      -10.8154071492  WZ2       2805            0.0000000000
     10411      3471  TIP3      OH2             4.1085950248       27.4920806768       -7.8312371492  WZ2       2806            0.0000000000
     10412      3471  TIP3      H1              4.7622550248       26.9422506768       -7.3992271492  WZ2       2806            0.0000000000
     10413      3471  TIP3      H2              4.1325250248       27.2179806768       -8.7480371492  WZ2       2806            0.0000000000
     10414      3472  TIP3      OH2             9.2650450248       29.0422106768       -8.6160871492  WZ2       2807            0.0000000000
     10415      3472  TIP3      H1              9.8811450248       28.5157506768       -8.1066871492  WZ2       2807            0.0000000000
     10416      3472  TIP3      H2              8.6789250248       28.4020806768       -9.0197271492  WZ2       2807            0.0000000000
     10417      3473  TIP3      OH2            20.2473550248       25.6790706768       -3.0967371492  WZ2       2808            0.0000000000
     10418      3473  TIP3      H1             19.5588150248       26.3371406768       -3.1920771492  WZ2       2808            0.0000000000
     10419      3473  TIP3      H2             20.2628150248       25.4818606768       -2.1601971492  WZ2       2808            0.0000000000
     10420      3474  TIP3      OH2             6.2986350248       24.0133406768       -4.5192971492  WZ2       2809            0.0000000000
     10421      3474  TIP3      H1              6.0798050248       24.5434006768       -5.2856971492  WZ2       2809            0.0000000000
     10422      3474  TIP3      H2              5.6307250248       24.2398906768       -3.8721571492  WZ2       2809            0.0000000000
     10423      3475  TIP3      OH2             8.8677750248       31.6889106768       -4.2319271492  WZ2       2811            0.0000000000
     10424      3475  TIP3      H1              8.1276850248       32.2870606768       -4.1284071492  WZ2       2811            0.0000000000
     10425      3475  TIP3      H2              9.5817250248       32.2428706768       -4.5475671492  WZ2       2811            0.0000000000
     10426      3476  TIP3      OH2            16.9745550248       24.5169906768       -8.2119571492  WZ2       2812            0.0000000000
     10427      3476  TIP3      H1             16.7593550248       23.7513306768       -7.6793571492  WZ2       2812            0.0000000000
     10428      3476  TIP3      H2             17.6302950248       24.9894506768       -7.6991071492  WZ2       2812            0.0000000000
     10429      3477  TIP3      OH2             5.8923650248       25.9055206768       -6.5670771492  WZ2       2813            0.0000000000
     10430      3477  TIP3      H1              6.5059950248       26.5382806768       -6.1938371492  WZ2       2813            0.0000000000
     10431      3477  TIP3      H2              6.4044350248       25.4330206768       -7.2233871492  WZ2       2813            0.0000000000
     10432      3478  TIP3      OH2            17.3219650248       23.2321206768       -4.5326071492  WZ2       2817            0.0000000000
     10433      3478  TIP3      H1             16.5858850248       23.8428306768       -4.5704771492  WZ2       2817            0.0000000000
     10434      3478  TIP3      H2             18.0053650248       23.6470206768       -5.0589671492  WZ2       2817            0.0000000000
     10435      3479  TIP3      OH2            10.3251050248       21.3188506768       -7.0668071492  WZ2       2818            0.0000000000
     10436      3479  TIP3      H1             10.2075250248       20.3704506768       -7.1209771492  WZ2       2818            0.0000000000
     10437      3479  TIP3      H2              9.4701150248       21.6514606768       -6.7936971492  WZ2       2818            0.0000000000
     10438      3480  TIP3      OH2            12.5915950248       30.1564106768      -12.5662271492  WZ2       2821            0.0000000000
     10439      3480  TIP3      H1             11.8801450248       30.6913806768      -12.9181771492  WZ2       2821            0.0000000000
     10440      3480  TIP3      H2             13.2825550248       30.2116206768      -13.2263371492  WZ2       2821            0.0000000000
     10441      3481  TIP3      OH2            12.6455150248       28.6138406768      -15.5277271492  WZ2       2822            0.0000000000
     10442      3481  TIP3      H1             13.3465050248       28.6365306768      -14.8763271492  WZ2       2822            0.0000000000
     10443      3481  TIP3      H2             12.9478050248       27.9858106768      -16.1837971492  WZ2       2822            0.0000000000
     10444      3482  TIP3      OH2            19.9609850248       29.5342606768       -4.2727871492  WZ2       2823            0.0000000000
     10445      3482  TIP3      H1             19.3083950248       30.2288206768       -4.1836971492  WZ2       2823            0.0000000000
     10446      3482  TIP3      H2             20.4260150248       29.7443506768       -5.0826271492  WZ2       2823            0.0000000000
     10447      3483  TIP3      OH2            15.9973650248       30.3657406768      -11.6146371492  WZ2       2824            0.0000000000
     10448      3483  TIP3      H1             15.2654650248       30.5941106768      -11.0415771492  WZ2       2824            0.0000000000
     10449      3483  TIP3      H2             16.4445850248       29.6520106768      -11.1598871492  WZ2       2824            0.0000000000
     10450      3484  TIP3      OH2            15.8947150248       28.5400006768       -2.5469371492  WZ2       2825            0.0000000000
     10451      3484  TIP3      H1             15.9746250248       29.3034406768       -1.9750871492  WZ2       2825            0.0000000000
     10452      3484  TIP3      H2             15.2934850248       28.8192406768       -3.2374271492  WZ2       2825            0.0000000000
     10453      3485  TIP3      OH2             7.6427350248       30.9963606768       -9.7321371492  WZ2       2826            0.0000000000
     10454      3485  TIP3      H1              7.3122550248       30.6257006768      -10.5504371492  WZ2       2826            0.0000000000
     10455      3485  TIP3      H2              8.2311450248       30.3257606768       -9.3853071492  WZ2       2826            0.0000000000
     10456      3486  TIP3      OH2             8.0092850248       29.7649206768       -6.0986371492  WZ2       2828            0.0000000000
     10457      3486  TIP3      H1              8.5745350248       29.8863406768       -6.8615171492  WZ2       2828            0.0000000000
     10458      3486  TIP3      H2              8.3281750248       30.4024206768       -5.4597871492  WZ2       2828            0.0000000000
     10459      3487  TIP3      OH2            14.8683150248       29.5280306768      -13.9295171492  WZ2       2831            0.0000000000
     10460      3487  TIP3      H1             15.4478650248       29.6780606768      -13.1826271492  WZ2       2831            0.0000000000
     10461      3487  TIP3      H2             15.2823150248       29.9987706768      -14.6528771492  WZ2       2831            0.0000000000
     10462      3488  TIP3      OH2             5.8093450248       30.3623006768       -2.1528771492  WZ2       2832            0.0000000000
     10463      3488  TIP3      H1              5.8796650248       31.0129806768       -1.4543771492  WZ2       2832            0.0000000000
     10464      3488  TIP3      H2              4.9185650248       30.4650506768       -2.4877871492  WZ2       2832            0.0000000000
     10465      3489  TIP3      OH2            18.5671550248       21.2780706768      -14.1165471492  WZ2       2833            0.0000000000
     10466      3489  TIP3      H1             17.6672250248       21.4169706768      -13.8214871492  WZ2       2833            0.0000000000
     10467      3489  TIP3      H2             18.8189950248       22.1095306768      -14.5183771492  WZ2       2833            0.0000000000
     10468      3490  TIP3      OH2             6.6330050248       30.0657906768      -12.1428571492  WZ2       2834            0.0000000000
     10469      3490  TIP3      H1              6.3411350248       30.8339606768      -12.6337271492  WZ2       2834            0.0000000000
     10470      3490  TIP3      H2              5.9585250248       29.4064106768      -12.3057171492  WZ2       2834            0.0000000000
     10471      3491  TIP3      OH2             2.7260150248       32.4287106768       -3.3278771492  WZ2       2836            0.0000000000
     10472      3491  TIP3      H1              2.2248550248       32.4006506768       -4.1429071492  WZ2       2836            0.0000000000
     10473      3491  TIP3      H2              2.7313850248       31.5230306768       -3.0181471492  WZ2       2836            0.0000000000
     10474      3492  TIP3      OH2            17.8261150248       27.3683106768       -0.2812671492  WZ2       2839            0.0000000000
     10475      3492  TIP3      H1             17.4187950248       27.8488706768       -1.0019371492  WZ2       2839            0.0000000000
     10476      3492  TIP3      H2             17.8666850248       26.4629106768       -0.5891871492  WZ2       2839            0.0000000000
     10477      3493  TIP3      OH2             7.5938650248       22.2223006768       -6.2891771492  WZ2       2841            0.0000000000
     10478      3493  TIP3      H1              6.7322350248       22.1351206768       -6.6968871492  WZ2       2841            0.0000000000
     10479      3493  TIP3      H2              7.5714350248       23.0783106768       -5.8614171492  WZ2       2841            0.0000000000
     10480      3494  TIP3      OH2            12.2566450248       21.9443406768       -2.9144771492  WZ2       2842            0.0000000000
     10481      3494  TIP3      H1             12.6769550248       21.5290506768       -2.1614171492  WZ2       2842            0.0000000000
     10482      3494  TIP3      H2             11.3236050248       21.7656706768       -2.7972771492  WZ2       2842            0.0000000000
     10483      3495  TIP3      OH2            15.5831350248       25.6998606768       -2.0610271492  WZ2       2843            0.0000000000
     10484      3495  TIP3      H1             15.0690850248       25.5740806768       -1.2634271492  WZ2       2843            0.0000000000
     10485      3495  TIP3      H2             15.4276050248       26.6121706768       -2.3054071492  WZ2       2843            0.0000000000
     10486      3496  TIP3      OH2            16.3456250248       30.5608606768      -16.2997271492  WZ2       2844            0.0000000000
     10487      3496  TIP3      H1             16.3877050248       30.3382506768      -17.2297271492  WZ2       2844            0.0000000000
     10488      3496  TIP3      H2             17.1948350248       30.9595706768      -16.1097371492  WZ2       2844            0.0000000000
     10489      3497  TIP3      OH2            11.9183750248       24.4366806768      -15.6293971492  WZ2       2845            0.0000000000
     10490      3497  TIP3      H1             11.6648550248       24.4558406768      -14.7065871492  WZ2       2845            0.0000000000
     10491      3497  TIP3      H2             11.6615850248       23.5652206768      -15.9307771492  WZ2       2845            0.0000000000
     10492      3498  TIP3      OH2             7.6848750248       27.1877506768       -5.1941571492  WZ2       2846            0.0000000000
     10493      3498  TIP3      H1              7.0430850248       27.1474806768       -4.4851471492  WZ2       2846            0.0000000000
     10494      3498  TIP3      H2              7.7220750248       28.1142206768       -5.4318571492  WZ2       2846            0.0000000000
     10495      3499  TIP3      OH2             7.6817850248       27.4087606768      -10.2821571492  WZ2       2847            0.0000000000
     10496      3499  TIP3      H1              6.7890750248       27.0683706768      -10.3407771492  WZ2       2847            0.0000000000
     10497      3499  TIP3      H2              8.1324450248       27.0318506768      -11.0378371492  WZ2       2847            0.0000000000
     10498      3500  TIP3      OH2            13.2173350248       27.8247906768      -11.4650771492  WZ2       2848            0.0000000000
     10499      3500  TIP3      H1             12.8083650248       28.6396506768      -11.7565971492  WZ2       2848            0.0000000000
     10500      3500  TIP3      H2             13.9379550248       27.6848006768      -12.0793671492  WZ2       2848            0.0000000000
     10501      3501  TIP3      OH2            12.3194950248       28.0004306768        0.0229928508  WZ2       2849            0.0000000000
     10502      3501  TIP3      H1             11.7568750248       27.2955906768        0.3437728508  WZ2       2849            0.0000000000
     10503      3501  TIP3      H2             13.1458350248       27.8796206768        0.4907528508  WZ2       2849            0.0000000000
     10504      3502  TIP3      OH2            14.2221050248       27.2708306768       -8.6511071492  WZ2       2850            0.0000000000
     10505      3502  TIP3      H1             14.0265550248       27.8765106768       -9.3660471492  WZ2       2850            0.0000000000
     10506      3502  TIP3      H2             14.4033650248       26.4373506768       -9.0854771492  WZ2       2850            0.0000000000
     10507      3503  TIP3      OH2             5.4349250248       27.5081006768       -3.3269571492  WZ2       2851            0.0000000000
     10508      3503  TIP3      H1              5.3968650248       27.9082606768       -2.4582471492  WZ2       2851            0.0000000000
     10509      3503  TIP3      H2              4.9440350248       26.6913406768       -3.2366671492  WZ2       2851            0.0000000000
     10510      3504  TIP3      OH2             8.8006650248       24.8823306768      -16.5283571492  WZ2       2852            0.0000000000
     10511      3504  TIP3      H1              8.3697350248       24.4373406768      -15.7986171492  WZ2       2852            0.0000000000
     10512      3504  TIP3      H2              8.0825350248       25.2539606768      -17.0406071492  WZ2       2852            0.0000000000
     10513      3505  TIP3      OH2             2.0430050248       24.6242806768       -9.4764871492  WZ2       2853            0.0000000000
     10514      3505  TIP3      H1              2.6737750248       24.5954906768       -8.7570971492  WZ2       2853            0.0000000000
     10515      3505  TIP3      H2              2.4924350248       24.1991506768      -10.2068971492  WZ2       2853            0.0000000000
     10516      3506  TIP3      OH2             3.3172150248       25.3704806768      -14.0524471492  WZ2       2854            0.0000000000
     10517      3506  TIP3      H1              3.7913850248       25.9614706768      -14.6373571492  WZ2       2854            0.0000000000
     10518      3506  TIP3      H2              2.5998550248       25.9007706768      -13.7054371492  WZ2       2854            0.0000000000
     10519      3507  TIP3      OH2            13.4860250248       28.9089606768       -3.9798671492  WZ2       2855            0.0000000000
     10520      3507  TIP3      H1             13.8095050248       28.2779306768       -4.6228171492  WZ2       2855            0.0000000000
     10521      3507  TIP3      H2             13.0459550248       28.3741806768       -3.3191271492  WZ2       2855            0.0000000000
     10522      3508  TIP3      OH2            10.2633150248       24.8365106768       -9.1957471492  WZ2       2856            0.0000000000
     10523      3508  TIP3      H1              9.3524250248       24.8931906768       -8.9071471492  WZ2       2856            0.0000000000
     10524      3508  TIP3      H2             10.7686050248       24.7760606768       -8.3850271492  WZ2       2856            0.0000000000
     10525      3509  TIP3      OH2             5.0916550248       26.4651406768      -10.3689871492  WZ2       2857            0.0000000000
     10526      3509  TIP3      H1              4.2024550248       26.5646906768      -10.7090271492  WZ2       2857            0.0000000000
     10527      3509  TIP3      H2              5.3881450248       25.6234406768      -10.7151971492  WZ2       2857            0.0000000000
     10528      3510  TIP3      OH2             8.7448350248       26.4654006768      -12.7125271492  WZ2       2858            0.0000000000
     10529      3510  TIP3      H1              9.6763850248       26.5944006768      -12.5342171492  WZ2       2858            0.0000000000
     10530      3510  TIP3      H2              8.5298650248       27.1348306768      -13.3620571492  WZ2       2858            0.0000000000
     10531      3511  TIP3      OH2            14.6685050248       24.0711406768       -5.9315671492  WZ2       2859            0.0000000000
     10532      3511  TIP3      H1             13.9916650248       24.2024506768       -5.2675971492  WZ2       2859            0.0000000000
     10533      3511  TIP3      H2             14.1829950248       23.9160906768       -6.7417971492  WZ2       2859            0.0000000000
     10534      3512  TIP3      OH2             7.4188550248       27.6596206768      -15.1459171492  WZ2       2860            0.0000000000
     10535      3512  TIP3      H1              6.8763650248       27.2800006768      -15.8371571492  WZ2       2860            0.0000000000
     10536      3512  TIP3      H2              8.2523450248       27.8540906768      -15.5745071492  WZ2       2860            0.0000000000
     10537      3513  TIP3      OH2             5.5539950248       32.2168106768       -0.0467571492  WZ2       2861            0.0000000000
     10538      3513  TIP3      H1              6.2862350248       32.4714006768        0.5146928508  WZ2       2861            0.0000000000
     10539      3513  TIP3      H2              4.7738650248       32.4213506768        0.4687828508  WZ2       2861            0.0000000000
     10540      3514  TIP3      OH2            11.5832850248       27.6238106768       -7.3087871492  WZ2       2862            0.0000000000
     10541      3514  TIP3      H1             12.1476250248       27.0774706768       -7.8558271492  WZ2       2862            0.0000000000
     10542      3514  TIP3      H2             11.4356250248       27.1020006768       -6.5200271492  WZ2       2862            0.0000000000
     10543      3515  TIP3      OH2             6.5852550248       23.7604206768      -10.8903071492  WZ2       2863            0.0000000000
     10544      3515  TIP3      H1              6.2682050248       22.8579506768      -10.9257671492  WZ2       2863            0.0000000000
     10545      3515  TIP3      H2              7.3666650248       23.7621606768      -11.4431471492  WZ2       2863            0.0000000000
     10546      3516  TIP3      OH2            10.2098750248       26.0124206768       -4.8947471492  WZ2       2864            0.0000000000
     10547      3516  TIP3      H1              9.3744050248       26.4663706768       -4.7845071492  WZ2       2864            0.0000000000
     10548      3516  TIP3      H2             10.7339350248       26.2882706768       -4.1427571492  WZ2       2864            0.0000000000
     10549      3517  TIP3      OH2            10.7541350248       32.2251906768      -13.2101071492  WZ2       2865            0.0000000000
     10550      3517  TIP3      H1             10.0092350248       31.7177206768      -13.5323171492  WZ2       2865            0.0000000000
     10551      3517  TIP3      H2             10.6198550248       32.2739906768      -12.2636271492  WZ2       2865            0.0000000000
     10552      3518  TIP3      OH2            17.9040250248       31.3580106768       -4.4233471492  WZ2       2866            0.0000000000
     10553      3518  TIP3      H1             18.5459050248       31.8146406768       -4.9671271492  WZ2       2866            0.0000000000
     10554      3518  TIP3      H2             17.0737150248       31.4712506768       -4.8859371492  WZ2       2866            0.0000000000
     10555      3519  TIP3      OH2            14.6518150248       25.0391806768      -15.0108471492  WZ2       2867            0.0000000000
     10556      3519  TIP3      H1             13.7132350248       25.1507406768      -15.1619671492  WZ2       2867            0.0000000000
     10557      3519  TIP3      H2             14.9490250248       25.8958706768      -14.7042771492  WZ2       2867            0.0000000000
     10558      3520  TIP3      OH2            15.3701650248       26.9064506768      -13.3501071492  WZ2       2869            0.0000000000
     10559      3520  TIP3      H1             16.2620650248       26.7689506768      -13.0309871492  WZ2       2869            0.0000000000
     10560      3520  TIP3      H2             15.4265250248       27.6970606768      -13.8867571492  WZ2       2869            0.0000000000
     10561      3521  TIP3      OH2             5.8789650248       31.5201906768       -7.4403171492  WZ2       2870            0.0000000000
     10562      3521  TIP3      H1              6.6236850248       31.5177606768       -8.0416671492  WZ2       2870            0.0000000000
     10563      3521  TIP3      H2              5.9566250248       30.6965706768       -6.9588071492  WZ2       2870            0.0000000000
     10564      3522  TIP3      OH2             2.8869350248       29.9808806768       -2.1254671492  WZ2       2872            0.0000000000
     10565      3522  TIP3      H1              3.1097950248       29.5628406768       -1.2937171492  WZ2       2872            0.0000000000
     10566      3522  TIP3      H2              2.2849450248       29.3683806768       -2.5481871492  WZ2       2872            0.0000000000
     10567      3523  TIP3      OH2             9.9034250248       29.4978706768        0.0875028508  WZ2       2873            0.0000000000
     10568      3523  TIP3      H1              9.6075050248       29.3321706768       -0.8075871492  WZ2       2873            0.0000000000
     10569      3523  TIP3      H2             10.8349450248       29.2779006768        0.0768928508  WZ2       2873            0.0000000000
     10570      3524  TIP3      OH2            20.2550350248       27.1158606768      -13.6554371492  WZ2       2875            0.0000000000
     10571      3524  TIP3      H1             19.7006650248       26.7196606768      -14.3276871492  WZ2       2875            0.0000000000
     10572      3524  TIP3      H2             20.3553950248       28.0263806768      -13.9331071492  WZ2       2875            0.0000000000
     10573      3525  TIP3      OH2            15.7105950248       30.7098506768       -6.1690371492  WZ2       2877            0.0000000000
     10574      3525  TIP3      H1             14.7822850248       30.4780406768       -6.1961071492  WZ2       2877            0.0000000000
     10575      3525  TIP3      H2             16.1617050248       29.9328306768       -6.4991571492  WZ2       2877            0.0000000000
     10576      3526  TIP3      OH2             4.0086750248       29.9004206768      -15.4489271492  WZ2       2879            0.0000000000
     10577      3526  TIP3      H1              4.6246650248       30.5271406768      -15.0694471492  WZ2       2879            0.0000000000
     10578      3526  TIP3      H2              3.1469350248       30.2164006768      -15.1772771492  WZ2       2879            0.0000000000
     10579      3527  TIP3      OH2             4.5208850248       24.7341506768       -2.5673271492  WZ2       2883            0.0000000000
     10580      3527  TIP3      H1              3.6281150248       25.0726906768       -2.6349271492  WZ2       2883            0.0000000000
     10581      3527  TIP3      H2              4.4221650248       23.8787606768       -2.1492471492  WZ2       2883            0.0000000000
     10582      3528  TIP3      OH2            16.8086950248       32.5506806768      -13.1433771492  WZ2       2884            0.0000000000
     10583      3528  TIP3      H1             16.5314550248       31.8226106768      -12.5872671492  WZ2       2884            0.0000000000
     10584      3528  TIP3      H2             17.7359950248       32.6698806768      -12.9381171492  WZ2       2884            0.0000000000
     10585      3529  TIP3      OH2             5.4237150248       31.8128006768      -13.9563671492  WZ2       2887            0.0000000000
     10586      3529  TIP3      H1              4.7376450248       32.1650506768      -13.3893971492  WZ2       2887            0.0000000000
     10587      3529  TIP3      H2              5.9465050248       32.5757606768      -14.2029371492  WZ2       2887            0.0000000000
     10588      3530  TIP3      OH2            13.2552250248       24.4751806768       -3.6774671492  WZ2       2888            0.0000000000
     10589      3530  TIP3      H1             13.9540150248       24.5490506768       -3.0274971492  WZ2       2888            0.0000000000
     10590      3530  TIP3      H2             12.8743650248       23.6106806768       -3.5231771492  WZ2       2888            0.0000000000
     10591      3531  TIP3      OH2            14.0397150248       24.1273506768      -12.5802371492  WZ2       2889            0.0000000000
     10592      3531  TIP3      H1             14.2595450248       24.5988906768      -13.3836971492  WZ2       2889            0.0000000000
     10593      3531  TIP3      H2             14.5981150248       24.5216106768      -11.9101771492  WZ2       2889            0.0000000000
     10594      3532  TIP3      OH2            11.2397050248       25.8552306768      -11.7453971492  WZ2       2890            0.0000000000
     10595      3532  TIP3      H1             12.0519650248       26.3595506768      -11.6992271492  WZ2       2890            0.0000000000
     10596      3532  TIP3      H2             10.9950050248       25.7102006768      -10.8314371492  WZ2       2890            0.0000000000
     10597      3533  TIP3      OH2            11.7753450248       26.8415006768       -2.5607371492  WZ2       2891            0.0000000000
     10598      3533  TIP3      H1             11.8943750248       27.4150406768       -1.8036971492  WZ2       2891            0.0000000000
     10599      3533  TIP3      H2             12.4308050248       26.1534406768       -2.4459571492  WZ2       2891            0.0000000000
     10600      3534  TIP3      OH2            12.1233750248       22.9365306768      -10.8072871492  WZ2       2892            0.0000000000
     10601      3534  TIP3      H1             11.7767250248       23.5535906768      -10.1628571492  WZ2       2892            0.0000000000
     10602      3534  TIP3      H2             12.7820650248       23.4371006768      -11.2887371492  WZ2       2892            0.0000000000
     10603      3535  TIP3      OH2             7.7810750248       23.9994706768      -14.1200371492  WZ2       2893            0.0000000000
     10604      3535  TIP3      H1              7.6975550248       24.8877806768      -13.7733971492  WZ2       2893            0.0000000000
     10605      3535  TIP3      H2              8.6711050248       23.7341406768      -13.8883571492  WZ2       2893            0.0000000000
     10606      3536  TIP3      OH2            17.9799250248       24.7485306768       -1.7257671492  WZ2       2894            0.0000000000
     10607      3536  TIP3      H1             17.0635050248       25.0107006768       -1.8133971492  WZ2       2894            0.0000000000
     10608      3536  TIP3      H2             18.3154250248       24.7454306768       -2.6222371492  WZ2       2894            0.0000000000
     10609      3537  TIP3      OH2            16.5820250248       28.4986306768       -7.6300371492  WZ2       2895            0.0000000000
     10610      3537  TIP3      H1             15.7844650248       28.0836506768       -7.9585371492  WZ2       2895            0.0000000000
     10611      3537  TIP3      H2             17.0271350248       27.8080006768       -7.1389871492  WZ2       2895            0.0000000000
     10612      3538  TIP3      OH2             4.3555250248       27.0909906768      -15.9436471492  WZ2       2897            0.0000000000
     10613      3538  TIP3      H1              4.3107850248       28.0303006768      -15.7649471492  WZ2       2897            0.0000000000
     10614      3538  TIP3      H2              3.4678450248       26.8554806768      -16.2134371492  WZ2       2897            0.0000000000
     10615      3539  TIP3      OH2             5.1637250248       21.8726506768       -7.2705471492  WZ2       2898            0.0000000000
     10616      3539  TIP3      H1              4.9347050248       21.9319006768       -8.1980471492  WZ2       2898            0.0000000000
     10617      3539  TIP3      H2              4.7210650248       21.0812006768       -6.9641371492  WZ2       2898            0.0000000000
     10618      3540  TIP3      OH2             3.2893750248       32.2361406768        1.1742628508  WZ2       2901            0.0000000000
     10619      3540  TIP3      H1              3.4334250248       31.3342106768        0.8879328508  WZ2       2901            0.0000000000
     10620      3540  TIP3      H2              2.5171150248       32.5223506768        0.6864928508  WZ2       2901            0.0000000000
     10621      3541  TIP3      OH2             7.6307450248       32.5797106768      -16.6932771492  WZ2       2902            0.0000000000
     10622      3541  TIP3      H1              7.6951550248       31.7856706768      -16.1626371492  WZ2       2902            0.0000000000
     10623      3541  TIP3      H2              8.2836650248       32.4609906768      -17.3830771492  WZ2       2902            0.0000000000
     10624      3542  TIP3      OH2             9.9449850248       32.2059506768        0.6069028508  WZ2       2903            0.0000000000
     10625      3542  TIP3      H1              9.6163650248       32.4767606768       -0.2503571492  WZ2       2903            0.0000000000
     10626      3542  TIP3      H2             10.0968050248       31.2649306768        0.5194028508  WZ2       2903            0.0000000000
     10627      3543  TIP3      OH2            15.6795050248       32.1216806768       -2.0098671492  WZ2       2905            0.0000000000
     10628      3543  TIP3      H1             16.4249850248       32.7100506768       -2.1294671492  WZ2       2905            0.0000000000
     10629      3543  TIP3      H2             14.9221850248       32.7036506768       -1.9465571492  WZ2       2905            0.0000000000
     10630      3544  TIP3      OH2             4.1220250248       29.4364706768        0.5941928508  WZ2       2906            0.0000000000
     10631      3544  TIP3      H1              4.5301450248       28.5791306768        0.4732528508  WZ2       2906            0.0000000000
     10632      3544  TIP3      H2              3.8617850248       29.4506006768        1.5152228508  WZ2       2906            0.0000000000
     10633      3545  TIP3      OH2             8.7801250248       30.5523306768      -14.3874771492  WZ2       2907            0.0000000000
     10634      3545  TIP3      H1              8.3203250248       30.0681606768      -13.7016271492  WZ2       2907            0.0000000000
     10635      3545  TIP3      H2              9.0349950248       29.8838706768      -15.0234271492  WZ2       2907            0.0000000000
     10636      3546  TIP3      OH2             8.0690550248       28.4450406768       -2.0315171492  WZ2       2908            0.0000000000
     10637      3546  TIP3      H1              7.4506650248       29.1197006768       -1.7510471492  WZ2       2908            0.0000000000
     10638      3546  TIP3      H2              8.4131750248       28.7664306768       -2.8648971492  WZ2       2908            0.0000000000
     10639      3547  TIP3      OH2             9.8511650248       28.7955106768      -16.1251571492  WZ2       2909            0.0000000000
     10640      3547  TIP3      H1              9.6706650248       28.6406306768      -17.0523271492  WZ2       2909            0.0000000000
     10641      3547  TIP3      H2             10.8012150248       28.9033806768      -16.0803671492  WZ2       2909            0.0000000000
     10642      3548  TIP3      OH2            13.0888750248       30.9165706768        1.2459628508  WZ2       2910            0.0000000000
     10643      3548  TIP3      H1             14.0419950248       31.0004806768        1.2185628508  WZ2       2910            0.0000000000
     10644      3548  TIP3      H2             12.9283350248       30.2047506768        1.8654528508  WZ2       2910            0.0000000000
     10645      3549  TIP3      OH2             8.4084250248       25.8001206768       -0.9492071492  WZ2       2912            0.0000000000
     10646      3549  TIP3      H1              8.5585150248       25.0712506768       -1.5512371492  WZ2       2912            0.0000000000
     10647      3549  TIP3      H2              8.4106650248       26.5772906768       -1.5079871492  WZ2       2912            0.0000000000
     10648      3550  TIP3      OH2             8.8209950248       24.1697006768       -3.4564671492  WZ2       2913            0.0000000000
     10649      3550  TIP3      H1              9.3567450248       24.6213706768       -4.1085371492  WZ2       2913            0.0000000000
     10650      3550  TIP3      H2              7.9689550248       24.0616806768       -3.8790571492  WZ2       2913            0.0000000000
     10651      3551  TIP3      OH2            10.4028350248       29.6093206768       -3.2169471492  WZ2       2914            0.0000000000
     10652      3551  TIP3      H1             11.1533150248       29.4530706768       -3.7901671492  WZ2       2914            0.0000000000
     10653      3551  TIP3      H2             10.0636650248       30.4609806768       -3.4923971492  WZ2       2914            0.0000000000
     10654      3552  TIP3      OH2            14.8184550248       27.4245006768        1.8115828508  WZ2       2915            0.0000000000
     10655      3552  TIP3      H1             15.0105850248       26.4934406768        1.7000328508  WZ2       2915            0.0000000000
     10656      3552  TIP3      H2             15.6760850248       27.8494506768        1.8011228508  WZ2       2915            0.0000000000
     10657      3553  TIP3      OH2            16.1351750248       30.2130206768       -0.1111471492  WZ2       2916            0.0000000000
     10658      3553  TIP3      H1             15.8536750248       30.9224806768       -0.6887671492  WZ2       2916            0.0000000000
     10659      3553  TIP3      H2             17.0776050248       30.1403206768       -0.2620271492  WZ2       2916            0.0000000000
     10660      3554  TIP3      OH2             6.8870550248       26.9984706768        0.9623528508  WZ2       2917            0.0000000000
     10661      3554  TIP3      H1              6.1199550248       26.4659506768        0.7521128508  WZ2       2917            0.0000000000
     10662      3554  TIP3      H2              7.5659550248       26.6885106768        0.3629828508  WZ2       2917            0.0000000000
     10663      3555  TIP3      OH2             9.6265450248       21.6262706768       -3.0251071492  WZ2       2918            0.0000000000
     10664      3555  TIP3      H1              9.5285050248       22.5725906768       -3.1304871492  WZ2       2918            0.0000000000
     10665      3555  TIP3      H2              8.8841650248       21.2536506768       -3.5007571492  WZ2       2918            0.0000000000
     10666      3556  TIP3      OH2            10.8905950248       25.9478106768        0.5387328508  WZ2       2919            0.0000000000
     10667      3556  TIP3      H1             10.6551350248       25.7284806768        1.4402228508  WZ2       2919            0.0000000000
     10668      3556  TIP3      H2             10.1072850248       25.7409306768        0.0289828508  WZ2       2919            0.0000000000
     10669      3557  TIP3      OH2            13.6062550248       25.0751606768       -0.3859171492  WZ2       2920            0.0000000000
     10670      3557  TIP3      H1             12.6587950248       25.1071306768       -0.2535871492  WZ2       2920            0.0000000000
     10671      3557  TIP3      H2             13.9189250248       24.4498706768        0.2679028508  WZ2       2920            0.0000000000
     10672      3558  TIP3      OH2            15.2404050248       23.7092706768        1.6192728508  WZ2       2921            0.0000000000
     10673      3558  TIP3      H1             15.1435850248       22.7570006768        1.6134628508  WZ2       2921            0.0000000000
     10674      3558  TIP3      H2             14.9187150248       23.9779506768        2.4798228508  WZ2       2921            0.0000000000
     10675      3559  TIP3      OH2             5.0673350248       24.9188506768        0.6668228508  WZ2       2922            0.0000000000
     10676      3559  TIP3      H1              5.2790750248       24.2124606768        0.0565728508  WZ2       2922            0.0000000000
     10677      3559  TIP3      H2              4.9560850248       24.4814506768        1.5109428508  WZ2       2922            0.0000000000
     10678      3560  TIP3      OH2             9.8483550248       20.9200106768       -0.3538271492  WZ2       2923            0.0000000000
     10679      3560  TIP3      H1             10.5601950248       20.2802306768       -0.3679171492  WZ2       2923            0.0000000000
     10680      3560  TIP3      H2              9.7473950248       21.1868406768       -1.2675171492  WZ2       2923            0.0000000000
     10681      3561  TIP3      OH2            10.2021050248       22.6028506768        1.6998028508  WZ2       2924            0.0000000000
     10682      3561  TIP3      H1             10.0703250248       22.1272306768        0.8796528508  WZ2       2924            0.0000000000
     10683      3561  TIP3      H2              9.6028450248       23.3472106768        1.6445128508  WZ2       2924            0.0000000000
     10684      3562  TIP3      OH2            19.6992750248       32.0187406768      -12.7043071492  WZ2       2927            0.0000000000
     10685      3562  TIP3      H1             20.5494150248       32.4398306768      -12.5771471492  WZ2       2927            0.0000000000
     10686      3562  TIP3      H2             19.7047850248       31.2787506768      -12.0971671492  WZ2       2927            0.0000000000
     10687      3563  TIP3      OH2            20.0938350248       30.0724806768      -10.8807371492  WZ2       2928            0.0000000000
     10688      3563  TIP3      H1             19.3672950248       29.5927406768      -10.4829771492  WZ2       2928            0.0000000000
     10689      3563  TIP3      H2             20.6751650248       30.2779506768      -10.1485771492  WZ2       2928            0.0000000000
     10690      3564  TIP3      OH2            20.3621450248       29.9733306768      -14.4896071492  WZ2       2931            0.0000000000
     10691      3564  TIP3      H1             19.8402550248       30.3297406768      -15.2085171492  WZ2       2931            0.0000000000
     10692      3564  TIP3      H2             20.3290650248       30.6481106768      -13.8115171492  WZ2       2931            0.0000000000
     10693      3565  TIP3      OH2            18.7110450248       27.2128906768      -15.9388971492  WZ2       2932            0.0000000000
     10694      3565  TIP3      H1             18.8074850248       27.8795906768      -16.6189271492  WZ2       2932            0.0000000000
     10695      3565  TIP3      H2             18.5710050248       26.3975206768      -16.4203471492  WZ2       2932            0.0000000000
     10696      3566  TIP3      OH2            17.8805150248       28.5931306768      -10.3178671492  WZ2       2933            0.0000000000
     10697      3566  TIP3      H1             17.7303950248       27.6479906768      -10.3380871492  WZ2       2933            0.0000000000
     10698      3566  TIP3      H2             17.5269650248       28.8742706768       -9.4739571492  WZ2       2933            0.0000000000
     10699      3567  TIP3      OH2             2.9157550248       30.6713506768       -6.3074871492  WZ2       2934            0.0000000000
     10700      3567  TIP3      H1              3.1000450248       30.5895206768       -7.2431971492  WZ2       2934            0.0000000000
     10701      3567  TIP3      H2              3.7650450248       30.5470506768       -5.8838471492  WZ2       2934            0.0000000000
     10702      3568  TIP3      OH2            18.7368050248       30.5634606768       -0.6790371492  WZ2       2935            0.0000000000
     10703      3568  TIP3      H1             19.3195350248       29.8286906768       -0.4873171492  WZ2       2935            0.0000000000
     10704      3568  TIP3      H2             19.3007350248       31.3354906768       -0.6324571492  WZ2       2935            0.0000000000
     10705      3569  TIP3      OH2            20.2335150248       28.4660406768        0.0055028508  WZ2       2936            0.0000000000
     10706      3569  TIP3      H1             19.3701850248       28.0872506768       -0.1600271492  WZ2       2936            0.0000000000
     10707      3569  TIP3      H2             20.8378850248       27.7275206768       -0.0689171492  WZ2       2936            0.0000000000
     10708      3570  TIP3      OH2            17.9584250248       24.6208706768      -16.8213471492  WZ2       2937            0.0000000000
     10709      3570  TIP3      H1             18.5690050248       24.2495506768      -16.1845271492  WZ2       2937            0.0000000000
     10710      3570  TIP3      H2             17.1215750248       24.1995606768      -16.6253471492  WZ2       2937            0.0000000000
     10711      3571  TIP3      OH2            17.5909950248       26.1757106768      -11.8553571492  WZ2       2938            0.0000000000
     10712      3571  TIP3      H1             17.8707050248       25.2687506768      -11.7311871492  WZ2       2938            0.0000000000
     10713      3571  TIP3      H2             18.3501650248       26.6098606768      -12.2444371492  WZ2       2938            0.0000000000
     10714      3572  TIP3      OH2            18.2028250248       26.7574506768       -6.4194671492  WZ2       2939            0.0000000000
     10715      3572  TIP3      H1             19.1356250248       26.9694406768       -6.4538671492  WZ2       2939            0.0000000000
     10716      3572  TIP3      H2             17.9675750248       26.8586606768       -5.4971671492  WZ2       2939            0.0000000000
     10717      3573  TIP3      OH2            18.2320150248       27.4939806768       -3.6435271492  WZ2       2940            0.0000000000
     10718      3573  TIP3      H1             17.3891450248       27.7620206768       -3.2775471492  WZ2       2940            0.0000000000
     10719      3573  TIP3      H2             18.6744450248       28.3161706768       -3.8544171492  WZ2       2940            0.0000000000
     10720      3574  TIP3      OH2             2.5132350248       25.9418506768       -0.1666071492  WZ2       2941            0.0000000000
     10721      3574  TIP3      H1              3.4327250248       25.8196806768        0.0697028508  WZ2       2941            0.0000000000
     10722      3574  TIP3      H2              2.0636850248       25.1918206768        0.2227428508  WZ2       2941            0.0000000000
     10723      3575  TIP3      OH2            20.5151750248       21.4740006768        1.7099728508  WZ2       2942            0.0000000000
     10724      3575  TIP3      H1             20.8648750248       20.8203506768        1.1044428508  WZ2       2942            0.0000000000
     10725      3575  TIP3      H2             20.6621250248       22.3114106768        1.2702328508  WZ2       2942            0.0000000000
     10726      3576  TIP3      OH2            18.2044750248       23.4386406768      -11.8071571492  WZ2       2943            0.0000000000
     10727      3576  TIP3      H1             18.3869750248       22.9897906768      -10.9816571492  WZ2       2943            0.0000000000
     10728      3576  TIP3      H2             17.6047650248       22.8540806768      -12.2706971492  WZ2       2943            0.0000000000
     10729      3577  TIP3      OH2             3.7344850248       24.2540106768       -7.2753171492  WZ2       2944            0.0000000000
     10730      3577  TIP3      H1              4.1796450248       23.4622606768       -6.9733471492  WZ2       2944            0.0000000000
     10731      3577  TIP3      H2              4.2007850248       24.9705306768       -6.8447571492  WZ2       2944            0.0000000000
     10732      3578  TIP3      OH2             2.0385150248       27.2533106768       -6.2062971492  WZ2       2945            0.0000000000
     10733      3578  TIP3      H1              2.5304950248       27.0323606768       -6.9970971492  WZ2       2945            0.0000000000
     10734      3578  TIP3      H2              2.4006050248       28.0936506768       -5.9253471492  WZ2       2945            0.0000000000
     10735      3579  TIP3      OH2            20.0348950248       23.5834606768        0.0591028508  WZ2       2946            0.0000000000
     10736      3579  TIP3      H1             19.1174650248       23.8541706768        0.0234528508  WZ2       2946            0.0000000000
     10737      3579  TIP3      H2             20.1578350248       23.0483006768       -0.7249271492  WZ2       2946            0.0000000000
     10738      3580  TIP3      OH2            20.0710950248       23.5064506768      -15.2791271492  WZ2       2947            0.0000000000
     10739      3580  TIP3      H1             20.4833550248       22.7850206768      -15.7543271492  WZ2       2947            0.0000000000
     10740      3580  TIP3      H2             20.7527450248       24.1759106768      -15.2206971492  WZ2       2947            0.0000000000
     10741      3581  TIP3      OH2             2.3521650248       23.5112206768      -12.1520571492  WZ2       2948            0.0000000000
     10742      3581  TIP3      H1              1.4270050248       23.7198806768      -12.2815071492  WZ2       2948            0.0000000000
     10743      3581  TIP3      H2              2.8061550248       23.9953006768      -12.8418271492  WZ2       2948            0.0000000000
     10744      3582  TIP3      OH2             2.3157050248       22.2491206768       -3.8078071492  WZ2       2949            0.0000000000
     10745      3582  TIP3      H1              1.6507550248       22.0031506768       -3.1647171492  WZ2       2949            0.0000000000
     10746      3582  TIP3      H2              1.8728350248       22.8711606768       -4.3850071492  WZ2       2949            0.0000000000
     10747      3583  TIP3      OH2            19.0354850248       21.6730906768       -2.1218171492  WZ2       2951            0.0000000000
     10748      3583  TIP3      H1             18.2228350248       21.9981206768       -2.5093471492  WZ2       2951            0.0000000000
     10749      3583  TIP3      H2             19.2683350248       20.9129406768       -2.6549071492  WZ2       2951            0.0000000000
     10750      3584  TIP3      OH2            12.4653350248       23.1221506768       -7.7989971492  WZ2       2952            0.0000000000
     10751      3584  TIP3      H1             11.7910150248       22.4927106768       -7.5434171492  WZ2       2952            0.0000000000
     10752      3584  TIP3      H2             13.0292550248       22.6380406768       -8.4022071492  WZ2       2952            0.0000000000
     10753      3585  TIP3      OH2            17.6080550248       21.2295506768       -7.6862871492  WZ2       2953            0.0000000000
     10754      3585  TIP3      H1             18.2118150248       21.7770906768       -8.1881871492  WZ2       2953            0.0000000000
     10755      3585  TIP3      H2             16.7382550248       21.5485906768       -7.9268771492  WZ2       2953            0.0000000000
     10756      3586  TIP3      OH2            19.3350950248       22.3684206768       -9.3531971492  WZ2       2954            0.0000000000
     10757      3586  TIP3      H1             19.9468450248       21.8539906768       -9.8798371492  WZ2       2954            0.0000000000
     10758      3586  TIP3      H2             19.7174350248       23.2456306768       -9.3297571492  WZ2       2954            0.0000000000
     10759      3587  TIP3      OH2             4.7920850248       21.7561806768       -9.9770071492  WZ2       2955            0.0000000000
     10760      3587  TIP3      H1              4.0150650248       21.5216706768      -10.4844171492  WZ2       2955            0.0000000000
     10761      3587  TIP3      H2              5.3224450248       20.9593906768       -9.9682071492  WZ2       2955            0.0000000000
     10762      3588  TIP3      OH2             3.6284250248       21.5539906768      -14.1733971492  WZ2       2956            0.0000000000
     10763      3588  TIP3      H1              4.0674950248       22.1650406768      -14.7650471492  WZ2       2956            0.0000000000
     10764      3588  TIP3      H2              2.9946650248       22.0924006768      -13.6993971492  WZ2       2956            0.0000000000
     10765      3589  TIP3      OH2             9.3713450248       21.6828906768      -10.1636971492  WZ2       2957            0.0000000000
     10766      3589  TIP3      H1             10.2456850248       22.0713206768      -10.1932671492  WZ2       2957            0.0000000000
     10767      3589  TIP3      H2              9.2354250248       21.4676706768       -9.2409771492  WZ2       2957            0.0000000000
     10768      3590  TIP3      OH2            14.9281850248       21.7128706768       -8.5145271492  WZ2       2958            0.0000000000
     10769      3590  TIP3      H1             15.0043450248       21.8080306768       -9.4639271492  WZ2       2958            0.0000000000
     10770      3590  TIP3      H2             14.6531050248       20.8051606768       -8.3856171492  WZ2       2958            0.0000000000
     10771      3591  TIP3      OH2            16.2814450248       21.7386506768      -12.8220271492  WZ2       2959            0.0000000000
     10772      3591  TIP3      H1             15.5785550248       22.3535706768      -13.0318871492  WZ2       2959            0.0000000000
     10773      3591  TIP3      H2             15.8365850248       20.9013206768      -12.6909371492  WZ2       2959            0.0000000000
     10774      3592  TIP3      OH2             5.4893350248       23.4701406768      -15.7309871492  WZ2       2960            0.0000000000
     10775      3592  TIP3      H1              5.9806750248       22.8403806768      -16.2584371492  WZ2       2960            0.0000000000
     10776      3592  TIP3      H2              6.1129650248       23.7660806768      -15.0678671492  WZ2       2960            0.0000000000
     10777      3593  TIP3      OH2            10.5153450248       23.7632906768      -13.2739371492  WZ2       2961            0.0000000000
     10778      3593  TIP3      H1             10.6934750248       23.1166106768      -12.5910771492  WZ2       2961            0.0000000000
     10779      3593  TIP3      H2             10.4619650248       24.5970606768      -12.8068271492  WZ2       2961            0.0000000000
     10780      3594  TIP3      OH2             4.7498850248       22.2703706768       -0.4593871492  WZ2       2962            0.0000000000
     10781      3594  TIP3      H1              4.3837050248       21.5046306768       -0.0169171492  WZ2       2962            0.0000000000
     10782      3594  TIP3      H2              5.6627350248       22.2993906768       -0.1728771492  WZ2       2962            0.0000000000
     10783      3595  TIP3      OH2             6.7229650248       21.6208106768        1.0763228508  WZ2       2963            0.0000000000
     10784      3595  TIP3      H1              7.6213250248       21.3468306768        0.8916628508  WZ2       2963            0.0000000000
     10785      3595  TIP3      H2              6.3362750248       20.8784106768        1.5405828508  WZ2       2963            0.0000000000
     10786      3596  TIP3      OH2            15.1441950248       20.9533406768        1.2586028508  WZ2       2964            0.0000000000
     10787      3596  TIP3      H1             15.2209150248       20.5274106768        2.1123728508  WZ2       2964            0.0000000000
     10788      3596  TIP3      H2             16.0378550248       20.9668106768        0.9159528508  WZ2       2964            0.0000000000
     10789      3597  TIP3      OH2            24.0279750248       29.7816906768       -5.0064471492  WZ2       2967            0.0000000000
     10790      3597  TIP3      H1             24.0691850248       29.1560206768       -4.2832071492  WZ2       2967            0.0000000000
     10791      3597  TIP3      H2             24.7307450248       30.4055506768       -4.8244071492  WZ2       2967            0.0000000000
     10792      3598  TIP3      OH2            21.5613350248       27.8918406768      -11.0786571492  WZ2       2970            0.0000000000
     10793      3598  TIP3      H1             21.1136750248       28.7377106768      -11.0970071492  WZ2       2970            0.0000000000
     10794      3598  TIP3      H2             21.0004550248       27.3122606768      -11.5941471492  WZ2       2970            0.0000000000
     10795      3599  TIP3      OH2            22.2719450248       30.0538006768       -8.9528571492  WZ2       2971            0.0000000000
     10796      3599  TIP3      H1             22.4852950248       29.2839606768       -8.4255571492  WZ2       2971            0.0000000000
     10797      3599  TIP3      H2             23.0097050248       30.1434706768       -9.5560971492  WZ2       2971            0.0000000000
     10798      3600  TIP3      OH2            26.3444450248       25.0955006768       -8.5933771492  WZ2       2974            0.0000000000
     10799      3600  TIP3      H1             26.3875550248       25.9553506768       -9.0117471492  WZ2       2974            0.0000000000
     10800      3600  TIP3      H2             25.8868550248       24.5429706768       -9.2270571492  WZ2       2974            0.0000000000
     10801      3601  TIP3      OH2            22.9645950248       27.4920806768       -7.8312371492  WZ2       2976            0.0000000000
     10802      3601  TIP3      H1             23.6182550248       26.9422506768       -7.3992271492  WZ2       2976            0.0000000000
     10803      3601  TIP3      H2             22.9885250248       27.2179806768       -8.7480371492  WZ2       2976            0.0000000000
     10804      3602  TIP3      OH2            25.1546350248       24.0133406768       -4.5192971492  WZ2       2978            0.0000000000
     10805      3602  TIP3      H1             24.9358050248       24.5434006768       -5.2856971492  WZ2       2978            0.0000000000
     10806      3602  TIP3      H2             24.4867250248       24.2398906768       -3.8721571492  WZ2       2978            0.0000000000
     10807      3603  TIP3      OH2            24.7483650248       25.9055206768       -6.5670771492  WZ2       2981            0.0000000000
     10808      3603  TIP3      H1             25.3619950248       26.5382806768       -6.1938371492  WZ2       2981            0.0000000000
     10809      3603  TIP3      H2             25.2604350248       25.4330206768       -7.2233871492  WZ2       2981            0.0000000000
     10810      3604  TIP3      OH2            29.1811050248       21.3188506768       -7.0668071492  WZ2       2984            0.0000000000
     10811      3604  TIP3      H1             29.0635250248       20.3704506768       -7.1209771492  WZ2       2984            0.0000000000
     10812      3604  TIP3      H2             28.3261150248       21.6514606768       -6.7936971492  WZ2       2984            0.0000000000
     10813      3605  TIP3      OH2            21.5820150248       32.4287106768       -3.3278771492  WZ2       2998            0.0000000000
     10814      3605  TIP3      H1             21.0808550248       32.4006506768       -4.1429071492  WZ2       2998            0.0000000000
     10815      3605  TIP3      H2             21.5873850248       31.5230306768       -3.0181471492  WZ2       2998            0.0000000000
     10816      3606  TIP3      OH2            26.4498650248       22.2223006768       -6.2891771492  WZ2       3002            0.0000000000
     10817      3606  TIP3      H1             25.5882350248       22.1351206768       -6.6968871492  WZ2       3002            0.0000000000
     10818      3606  TIP3      H2             26.4274350248       23.0783106768       -5.8614171492  WZ2       3002            0.0000000000
     10819      3607  TIP3      OH2            26.5408750248       27.1877506768       -5.1941571492  WZ2       3007            0.0000000000
     10820      3607  TIP3      H1             25.8990850248       27.1474806768       -4.4851471492  WZ2       3007            0.0000000000
     10821      3607  TIP3      H2             26.5780750248       28.1142206768       -5.4318571492  WZ2       3007            0.0000000000
     10822      3608  TIP3      OH2            26.5377850248       27.4087606768      -10.2821571492  WZ2       3008            0.0000000000
     10823      3608  TIP3      H1             25.6450750248       27.0683706768      -10.3407771492  WZ2       3008            0.0000000000
     10824      3608  TIP3      H2             26.9884450248       27.0318506768      -11.0378371492  WZ2       3008            0.0000000000
     10825      3609  TIP3      OH2            24.2909250248       27.5081006768       -3.3269571492  WZ2       3012            0.0000000000
     10826      3609  TIP3      H1             24.2528650248       27.9082606768       -2.4582471492  WZ2       3012            0.0000000000
     10827      3609  TIP3      H2             23.8000350248       26.6913406768       -3.2366671492  WZ2       3012            0.0000000000
     10828      3610  TIP3      OH2            20.8990050248       24.6242806768       -9.4764871492  WZ2       3014            0.0000000000
     10829      3610  TIP3      H1             21.5297750248       24.5954906768       -8.7570971492  WZ2       3014            0.0000000000
     10830      3610  TIP3      H2             21.3484350248       24.1991506768      -10.2068971492  WZ2       3014            0.0000000000
     10831      3611  TIP3      OH2            22.1732150248       25.3704806768      -14.0524471492  WZ2       3015            0.0000000000
     10832      3611  TIP3      H1             22.6473850248       25.9614706768      -14.6373571492  WZ2       3015            0.0000000000
     10833      3611  TIP3      H2             21.4558550248       25.9007706768      -13.7054371492  WZ2       3015            0.0000000000
     10834      3612  TIP3      OH2            23.9476550248       26.4651406768      -10.3689871492  WZ2       3018            0.0000000000
     10835      3612  TIP3      H1             23.0584550248       26.5646906768      -10.7090271492  WZ2       3018            0.0000000000
     10836      3612  TIP3      H2             24.2441450248       25.6234406768      -10.7151971492  WZ2       3018            0.0000000000
     10837      3613  TIP3      OH2            25.4412550248       23.7604206768      -10.8903071492  WZ2       3024            0.0000000000
     10838      3613  TIP3      H1             25.1242050248       22.8579506768      -10.9257671492  WZ2       3024            0.0000000000
     10839      3613  TIP3      H2             26.2226650248       23.7621606768      -11.4431471492  WZ2       3024            0.0000000000
     10840      3614  TIP3      OH2            21.7429350248       29.9808806768       -2.1254671492  WZ2       3032            0.0000000000
     10841      3614  TIP3      H1             21.9657950248       29.5628406768       -1.2937171492  WZ2       3032            0.0000000000
     10842      3614  TIP3      H2             21.1409450248       29.3683806768       -2.5481871492  WZ2       3032            0.0000000000
     10843      3615  TIP3      OH2            23.3768850248       24.7341506768       -2.5673271492  WZ2       3041            0.0000000000
     10844      3615  TIP3      H1             22.4841150248       25.0726906768       -2.6349271492  WZ2       3041            0.0000000000
     10845      3615  TIP3      H2             23.2781650248       23.8787606768       -2.1492471492  WZ2       3041            0.0000000000
     10846      3616  TIP3      OH2            26.6370750248       23.9994706768      -14.1200371492  WZ2       3051            0.0000000000
     10847      3616  TIP3      H1             26.5535550248       24.8877806768      -13.7733971492  WZ2       3051            0.0000000000
     10848      3616  TIP3      H2             27.5271050248       23.7341406768      -13.8883571492  WZ2       3051            0.0000000000
     10849      3617  TIP3      OH2            24.0197250248       21.8726506768       -7.2705471492  WZ2       3055            0.0000000000
     10850      3617  TIP3      H1             23.7907050248       21.9319006768       -8.1980471492  WZ2       3055            0.0000000000
     10851      3617  TIP3      H2             23.5770650248       21.0812006768       -6.9641371492  WZ2       3055            0.0000000000
     10852      3618  TIP3      OH2            22.1453750248       32.2361406768        1.1742628508  WZ2       3058            0.0000000000
     10853      3618  TIP3      H1             22.2894250248       31.3342106768        0.8879328508  WZ2       3058            0.0000000000
     10854      3618  TIP3      H2             21.3731150248       32.5223506768        0.6864928508  WZ2       3058            0.0000000000
     10855      3619  TIP3      OH2            22.9780250248       29.4364706768        0.5941928508  WZ2       3063            0.0000000000
     10856      3619  TIP3      H1             23.3861450248       28.5791306768        0.4732528508  WZ2       3063            0.0000000000
     10857      3619  TIP3      H2             22.7177850248       29.4506006768        1.5152228508  WZ2       3063            0.0000000000
     10858      3620  TIP3      OH2            27.2644250248       25.8001206768       -0.9492071492  WZ2       3068            0.0000000000
     10859      3620  TIP3      H1             27.4145150248       25.0712506768       -1.5512371492  WZ2       3068            0.0000000000
     10860      3620  TIP3      H2             27.2666650248       26.5772906768       -1.5079871492  WZ2       3068            0.0000000000
     10861      3621  TIP3      OH2            27.6769950248       24.1697006768       -3.4564671492  WZ2       3069            0.0000000000
     10862      3621  TIP3      H1             28.2127450248       24.6213706768       -4.1085371492  WZ2       3069            0.0000000000
     10863      3621  TIP3      H2             26.8249550248       24.0616806768       -3.8790571492  WZ2       3069            0.0000000000
     10864      3622  TIP3      OH2            25.7430550248       26.9984706768        0.9623528508  WZ2       3073            0.0000000000
     10865      3622  TIP3      H1             24.9759550248       26.4659506768        0.7521128508  WZ2       3073            0.0000000000
     10866      3622  TIP3      H2             26.4219550248       26.6885106768        0.3629828508  WZ2       3073            0.0000000000
     10867      3623  TIP3      OH2            28.4825450248       21.6262706768       -3.0251071492  WZ2       3074            0.0000000000
     10868      3623  TIP3      H1             28.3845050248       22.5725906768       -3.1304871492  WZ2       3074            0.0000000000
     10869      3623  TIP3      H2             27.7401650248       21.2536506768       -3.5007571492  WZ2       3074            0.0000000000
     10870      3624  TIP3      OH2            23.9233350248       24.9188506768        0.6668228508  WZ2       3078            0.0000000000
     10871      3624  TIP3      H1             24.1350750248       24.2124606768        0.0565728508  WZ2       3078            0.0000000000
     10872      3624  TIP3      H2             23.8120850248       24.4814506768        1.5109428508  WZ2       3078            0.0000000000
     10873      3625  TIP3      OH2            28.7043550248       20.9200106768       -0.3538271492  WZ2       3079            0.0000000000
     10874      3625  TIP3      H1             29.4161950248       20.2802306768       -0.3679171492  WZ2       3079            0.0000000000
     10875      3625  TIP3      H2             28.6033950248       21.1868406768       -1.2675171492  WZ2       3079            0.0000000000
     10876      3626  TIP3      OH2            29.0581050248       22.6028506768        1.6998028508  WZ2       3080            0.0000000000
     10877      3626  TIP3      H1             28.9263250248       22.1272306768        0.8796528508  WZ2       3080            0.0000000000
     10878      3626  TIP3      H2             28.4588450248       23.3472106768        1.6445128508  WZ2       3080            0.0000000000
     10879      3627  TIP3      OH2            21.7717550248       30.6713506768       -6.3074871492  WZ2       3082            0.0000000000
     10880      3627  TIP3      H1             21.9560450248       30.5895206768       -7.2431971492  WZ2       3082            0.0000000000
     10881      3627  TIP3      H2             22.6210450248       30.5470506768       -5.8838471492  WZ2       3082            0.0000000000
     10882      3628  TIP3      OH2            21.3692350248       25.9418506768       -0.1666071492  WZ2       3083            0.0000000000
     10883      3628  TIP3      H1             22.2887250248       25.8196806768        0.0697028508  WZ2       3083            0.0000000000
     10884      3628  TIP3      H2             20.9196850248       25.1918206768        0.2227428508  WZ2       3083            0.0000000000
     10885      3629  TIP3      OH2            22.5904850248       24.2540106768       -7.2753171492  WZ2       3084            0.0000000000
     10886      3629  TIP3      H1             23.0356450248       23.4622606768       -6.9733471492  WZ2       3084            0.0000000000
     10887      3629  TIP3      H2             23.0567850248       24.9705306768       -6.8447571492  WZ2       3084            0.0000000000
     10888      3630  TIP3      OH2            20.8945150248       27.2533106768       -6.2062971492  WZ2       3085            0.0000000000
     10889      3630  TIP3      H1             21.3864950248       27.0323606768       -6.9970971492  WZ2       3085            0.0000000000
     10890      3630  TIP3      H2             21.2566050248       28.0936506768       -5.9253471492  WZ2       3085            0.0000000000
     10891      3631  TIP3      OH2            21.2081650248       23.5112206768      -12.1520571492  WZ2       3086            0.0000000000
     10892      3631  TIP3      H1             20.2830050248       23.7198806768      -12.2815071492  WZ2       3086            0.0000000000
     10893      3631  TIP3      H2             21.6621550248       23.9953006768      -12.8418271492  WZ2       3086            0.0000000000
     10894      3632  TIP3      OH2            21.1717050248       22.2491206768       -3.8078071492  WZ2       3087            0.0000000000
     10895      3632  TIP3      H1             20.5067550248       22.0031506768       -3.1647171492  WZ2       3087            0.0000000000
     10896      3632  TIP3      H2             20.7288350248       22.8711606768       -4.3850071492  WZ2       3087            0.0000000000
     10897      3633  TIP3      OH2            23.6480850248       21.7561806768       -9.9770071492  WZ2       3090            0.0000000000
     10898      3633  TIP3      H1             22.8710650248       21.5216706768      -10.4844171492  WZ2       3090            0.0000000000
     10899      3633  TIP3      H2             24.1784450248       20.9593906768       -9.9682071492  WZ2       3090            0.0000000000
     10900      3634  TIP3      OH2            22.4844250248       21.5539906768      -14.1733971492  WZ2       3091            0.0000000000
     10901      3634  TIP3      H1             22.9234950248       22.1650406768      -14.7650471492  WZ2       3091            0.0000000000
     10902      3634  TIP3      H2             21.8506650248       22.0924006768      -13.6993971492  WZ2       3091            0.0000000000
     10903      3635  TIP3      OH2            28.2273450248       21.6828906768      -10.1636971492  WZ2       3092            0.0000000000
     10904      3635  TIP3      H1             29.1016850248       22.0713206768      -10.1932671492  WZ2       3092            0.0000000000
     10905      3635  TIP3      H2             28.0914250248       21.4676706768       -9.2409771492  WZ2       3092            0.0000000000
     10906      3636  TIP3      OH2            24.3453350248       23.4701406768      -15.7309871492  WZ2       3095            0.0000000000
     10907      3636  TIP3      H1             24.8366750248       22.8403806768      -16.2584371492  WZ2       3095            0.0000000000
     10908      3636  TIP3      H2             24.9689650248       23.7660806768      -15.0678671492  WZ2       3095            0.0000000000
     10909      3637  TIP3      OH2            23.6058850248       22.2703706768       -0.4593871492  WZ2       3097            0.0000000000
     10910      3637  TIP3      H1             23.2397050248       21.5046306768       -0.0169171492  WZ2       3097            0.0000000000
     10911      3637  TIP3      H2             24.5187350248       22.2993906768       -0.1728771492  WZ2       3097            0.0000000000
     10912      3638  TIP3      OH2            25.5789650248       21.6208106768        1.0763228508  WZ2       3098            0.0000000000
     10913      3638  TIP3      H1             26.4773250248       21.3468306768        0.8916628508  WZ2       3098            0.0000000000
     10914      3638  TIP3      H2             25.1922750248       20.8784106768        1.5405828508  WZ2       3098            0.0000000000
     10915      3639  TIP3      OH2           -23.8416549752      -25.6555893232        8.8377428508  WZ3       1               0.0000000000
     10916      3639  TIP3      H1            -23.7525449752      -24.7117693232        8.7054528508  WZ3       1               0.0000000000
     10917      3639  TIP3      H2            -24.4798949752      -25.9309493232        8.1796828508  WZ3       1               0.0000000000
     10918      3640  TIP3      OH2           -24.9085249752      -26.4005193232       12.2565628508  WZ3       2               0.0000000000
     10919      3640  TIP3      H1            -24.9467749752      -27.0468893232       12.9615228508  WZ3       2               0.0000000000
     10920      3640  TIP3      H2            -25.2308749752      -26.8670793232       11.4854328508  WZ3       2               0.0000000000
     10921      3641  TIP3      OH2           -21.2025049752      -23.4614793232       10.5580728508  WZ3       4               0.0000000000
     10922      3641  TIP3      H1            -21.6432349752      -24.1818793232       11.0086328508  WZ3       4               0.0000000000
     10923      3641  TIP3      H2            -21.2155349752      -22.7407593232       11.1878428508  WZ3       4               0.0000000000
     10924      3642  TIP3      OH2           -24.0909549752      -18.3573093232       10.7701128508  WZ3       8               0.0000000000
     10925      3642  TIP3      H1            -23.4713149752      -19.0338393232       10.4970328508  WZ3       8               0.0000000000
     10926      3642  TIP3      H2            -24.2992149752      -18.5752293232       11.6786028508  WZ3       8               0.0000000000
     10927      3643  TIP3      OH2           -26.5190849752      -23.9683793232       12.6626628508  WZ3       9               0.0000000000
     10928      3643  TIP3      H1            -26.2152949752      -24.6542393232       12.0680728508  WZ3       9               0.0000000000
     10929      3643  TIP3      H2            -25.7976849752      -23.8495093232       13.2804628508  WZ3       9               0.0000000000
     10930      3644  TIP3      OH2           -17.8561049752      -32.3668493232       13.5232828508  WZ3       10              0.0000000000
     10931      3644  TIP3      H1            -17.8068849752      -31.7567293232       14.2591928508  WZ3       10              0.0000000000
     10932      3644  TIP3      H2            -17.4305949752      -31.9057593232       12.8003928508  WZ3       10              0.0000000000
     10933      3645  TIP3      OH2           -23.3783849752      -29.5741393232       12.9901428508  WZ3       11              0.0000000000
     10934      3645  TIP3      H1            -23.2357949752      -30.5204393232       13.0103028508  WZ3       11              0.0000000000
     10935      3645  TIP3      H2            -23.4844849752      -29.3671593232       12.0616328508  WZ3       11              0.0000000000
     10936      3646  TIP3      OH2           -22.5012849752      -31.3419393232        8.6634528508  WZ3       13              0.0000000000
     10937      3646  TIP3      H1            -21.8548549752      -31.6706193232        9.2882128508  WZ3       13              0.0000000000
     10938      3646  TIP3      H2            -21.9913449752      -30.8240393232        8.0405928508  WZ3       13              0.0000000000
     10939      3647  TIP3      OH2           -17.4646449752      -30.8889293232       15.7592628508  WZ3       16              0.0000000000
     10940      3647  TIP3      H1            -18.1531849752      -30.2308593232       15.6639228508  WZ3       16              0.0000000000
     10941      3647  TIP3      H2            -17.4491849752      -31.0861393232       16.6958028508  WZ3       16              0.0000000000
     10942      3648  TIP3      OH2           -24.0443849752      -23.0545493232        7.8806128508  WZ3       18              0.0000000000
     10943      3648  TIP3      H1            -24.3398749752      -23.3773193232        7.0293028508  WZ3       18              0.0000000000
     10944      3648  TIP3      H2            -24.3686049752      -22.1548793232        7.9218728508  WZ3       18              0.0000000000
     10945      3649  TIP3      OH2           -20.7374449752      -32.0510093232       10.6440428508  WZ3       20              0.0000000000
     10946      3649  TIP3      H1            -20.9526449752      -32.8166693232       11.1766428508  WZ3       20              0.0000000000
     10947      3649  TIP3      H2            -20.0817049752      -31.5785493232       11.1568928508  WZ3       20              0.0000000000
     10948      3650  TIP3      OH2           -20.6907349752      -21.6224093232       12.9060028508  WZ3       24              0.0000000000
     10949      3650  TIP3      H1            -21.6323649752      -21.5640193232       13.0676928508  WZ3       24              0.0000000000
     10950      3650  TIP3      H2            -20.4141249752      -20.7163593232       12.7689728508  WZ3       24              0.0000000000
     10951      3651  TIP3      OH2           -22.4386149752      -19.8410593232        9.5311628508  WZ3       27              0.0000000000
     10952      3651  TIP3      H1            -22.0133849752      -20.5482693232        9.0461228508  WZ3       27              0.0000000000
     10953      3651  TIP3      H2            -22.1216149752      -19.0397893232        9.1143828508  WZ3       27              0.0000000000
     10954      3652  TIP3      OH2           -21.2789649752      -21.9402093232        8.0398228508  WZ3       28              0.0000000000
     10955      3652  TIP3      H1            -21.5364849752      -22.6301993232        7.4284128508  WZ3       28              0.0000000000
     10956      3652  TIP3      H2            -21.2078849752      -22.3830893232        8.8854128508  WZ3       28              0.0000000000
     10957      3653  TIP3      OH2           -19.5929449752      -23.3735393232       16.5171728508  WZ3       29              0.0000000000
     10958      3653  TIP3      H1            -19.4533149752      -23.9652893232       15.7778728508  WZ3       29              0.0000000000
     10959      3653  TIP3      H2            -19.4256649752      -22.5009493232       16.1610528508  WZ3       29              0.0000000000
     10960      3654  TIP3      OH2           -25.1204049752      -26.4115893232        6.2897728508  WZ3       30              0.0000000000
     10961      3654  TIP3      H1            -25.8318549752      -25.8766193232        5.9378228508  WZ3       30              0.0000000000
     10962      3654  TIP3      H2            -24.4294449752      -26.3563793232        5.6296628508  WZ3       30              0.0000000000
     10963      3655  TIP3      OH2           -25.0664849752      -27.9541593232        3.3282728508  WZ3       31              0.0000000000
     10964      3655  TIP3      H1            -24.3654949752      -27.9314693232        3.9796728508  WZ3       31              0.0000000000
     10965      3655  TIP3      H2            -24.7641949752      -28.5821893232        2.6722028508  WZ3       31              0.0000000000
     10966      3656  TIP3      OH2           -17.7510149752      -27.0337393232       14.5832128508  WZ3       32              0.0000000000
     10967      3656  TIP3      H1            -18.4036049752      -26.3391793232       14.6723028508  WZ3       32              0.0000000000
     10968      3656  TIP3      H2            -17.2859849752      -26.8236493232       13.7733728508  WZ3       32              0.0000000000
     10969      3657  TIP3      OH2           -21.7146349752      -26.2022593232        7.2413628508  WZ3       33              0.0000000000
     10970      3657  TIP3      H1            -22.4465349752      -25.9738893232        7.8144228508  WZ3       33              0.0000000000
     10971      3657  TIP3      H2            -21.2674149752      -26.9159893232        7.6961128508  WZ3       33              0.0000000000
     10972      3658  TIP3      OH2           -28.7025149752      -22.1435793232       11.8050828508  WZ3       36              0.0000000000
     10973      3658  TIP3      H1            -28.7973849752      -22.7222693232       11.0485428508  WZ3       36              0.0000000000
     10974      3658  TIP3      H2            -27.9731549752      -22.5150093232       12.3013628508  WZ3       36              0.0000000000
     10975      3659  TIP3      OH2           -23.3934949752      -21.2998893232       13.4914128508  WZ3       38              0.0000000000
     10976      3659  TIP3      H1            -23.6338349752      -20.6375793232       14.1393328508  WZ3       38              0.0000000000
     10977      3659  TIP3      H2            -23.5916749752      -22.1343693232       13.9163728508  WZ3       38              0.0000000000
     10978      3660  TIP3      OH2           -22.8436849752      -27.0399693232        4.9264828508  WZ3       40              0.0000000000
     10979      3660  TIP3      H1            -22.2641349752      -26.8899393232        5.6733728508  WZ3       40              0.0000000000
     10980      3660  TIP3      H2            -22.4296849752      -26.5692293232        4.2031228508  WZ3       40              0.0000000000
     10981      3661  TIP3      OH2           -25.1171949752      -20.3031193232        8.3617928508  WZ3       42              0.0000000000
     10982      3661  TIP3      H1            -24.6434349752      -20.0074893232        9.1392128508  WZ3       42              0.0000000000
     10983      3661  TIP3      H2            -25.6802649752      -19.5649593232        8.1287528508  WZ3       42              0.0000000000
     10984      3662  TIP3      OH2           -17.9557049752      -20.9236893232        3.1158428508  WZ3       46              0.0000000000
     10985      3662  TIP3      H1            -17.8823549752      -19.9846693232        3.2863728508  WZ3       46              0.0000000000
     10986      3662  TIP3      H2            -17.0501949752      -21.2288293232        3.0595728508  WZ3       46              0.0000000000
     10987      3663  TIP3      OH2           -17.0378649752      -20.6929393232       18.0945128508  WZ3       49              0.0000000000
     10988      3663  TIP3      H1            -17.0871849752      -21.6481293232       18.0572728508  WZ3       49              0.0000000000
     10989      3663  TIP3      H2            -17.8646349752      -20.4254093232       18.4958928508  WZ3       49              0.0000000000
     10990      3664  TIP3      OH2           -25.6448849752      -17.3466493232        6.7767128508  WZ3       51              0.0000000000
     10991      3664  TIP3      H1            -25.7202849752      -17.4679293232        5.8302328508  WZ3       51              0.0000000000
     10992      3664  TIP3      H2            -25.6120149752      -16.3973793232        6.8951728508  WZ3       51              0.0000000000
     10993      3665  TIP3      OH2           -31.9915049752      -18.5579493232        8.5576128508  WZ3       52              0.0000000000
     10994      3665  TIP3      H1            -31.8394649752      -18.9059093232        9.4362628508  WZ3       52              0.0000000000
     10995      3665  TIP3      H2            -32.8424649752      -18.9142193232        8.3023328508  WZ3       52              0.0000000000
     10996      3666  TIP3      OH2           -22.5432849752      -18.1926293232        3.7789528508  WZ3       53              0.0000000000
     10997      3666  TIP3      H1            -22.1684449752      -18.9370193232        3.3082128508  WZ3       53              0.0000000000
     10998      3666  TIP3      H2            -22.5389149752      -18.4625693232        4.6972828508  WZ3       53              0.0000000000
     10999      3667  TIP3      OH2           -22.8744749752      -18.2669193232        6.5281728508  WZ3       54              0.0000000000
     11000      3667  TIP3      H1            -23.8094949752      -18.1667293232        6.7068728508  WZ3       54              0.0000000000
     11001      3667  TIP3      H2            -22.5942849752      -18.9763193232        7.1064928508  WZ3       54              0.0000000000
     11002      3668  TIP3      OH2           -21.3663749752      -26.0071393232        2.5562728508  WZ3       60              0.0000000000
     11003      3668  TIP3      H1            -21.3242949752      -26.2297493232        1.6262728508  WZ3       60              0.0000000000
     11004      3668  TIP3      H2            -20.5171649752      -25.6084293232        2.7462628508  WZ3       60              0.0000000000
     11005      3669  TIP3      OH2           -24.4946649752      -28.7432093232        7.3909228508  WZ3       64              0.0000000000
     11006      3669  TIP3      H1            -24.9036349752      -27.9283493232        7.0994028508  WZ3       64              0.0000000000
     11007      3669  TIP3      H2            -23.7740449752      -28.8831993232        6.7766328508  WZ3       64              0.0000000000
     11008      3670  TIP3      OH2           -23.4898949752      -29.2971693232       10.2048928508  WZ3       66              0.0000000000
     11009      3670  TIP3      H1            -23.6854449752      -28.6914893232        9.4899528508  WZ3       66              0.0000000000
     11010      3670  TIP3      H2            -23.3086349752      -30.1306493232        9.7705228508  WZ3       66              0.0000000000
     11011      3671  TIP3      OH2           -19.7559849752      -16.8253193232       19.2011928508  WZ3       77              0.0000000000
     11012      3671  TIP3      H1            -19.5561149752      -16.4011293232       18.3667228508  WZ3       77              0.0000000000
     11013      3671  TIP3      H2            -19.1006149752      -16.4814993232       19.8082328508  WZ3       77              0.0000000000
     11014      3672  TIP3      OH2           -26.9578649752      -24.3428093232        5.6458928508  WZ3       82              0.0000000000
     11015      3672  TIP3      H1            -27.7027649752      -24.8502793232        5.3236828508  WZ3       82              0.0000000000
     11016      3672  TIP3      H2            -27.0921449752      -24.2940093232        6.5923728508  WZ3       82              0.0000000000
     11017      3673  TIP3      OH2           -19.8079749752      -25.2099893232       14.4326528508  WZ3       83              0.0000000000
     11018      3673  TIP3      H1            -19.1660949752      -24.7533593232       13.8888728508  WZ3       83              0.0000000000
     11019      3673  TIP3      H2            -20.6382849752      -25.0967493232       13.9700628508  WZ3       83              0.0000000000
     11020      3674  TIP3      OH2           -23.0601849752      -31.5288193232        3.8451528508  WZ3       84              0.0000000000
     11021      3674  TIP3      H1            -23.9987649752      -31.4172593232        3.6940328508  WZ3       84              0.0000000000
     11022      3674  TIP3      H2            -22.7629749752      -30.6721293232        4.1517228508  WZ3       84              0.0000000000
     11023      3675  TIP3      OH2           -22.3418349752      -29.6615493232        5.5058928508  WZ3       86              0.0000000000
     11024      3675  TIP3      H1            -21.4499349752      -29.7990493232        5.8250128508  WZ3       86              0.0000000000
     11025      3675  TIP3      H2            -22.2854749752      -28.8709393232        4.9692428508  WZ3       86              0.0000000000
     11026      3676  TIP3      OH2           -24.8324549752      -22.8843793232        4.6713528508  WZ3       88              0.0000000000
     11027      3676  TIP3      H1            -25.1276149752      -22.0575893232        5.0528328508  WZ3       88              0.0000000000
     11028      3676  TIP3      H2            -25.5354549752      -23.5036893232        4.8674928508  WZ3       88              0.0000000000
     11029      3677  TIP3      OH2           -23.1882949752      -21.6969293232       16.8333028508  WZ3       91              0.0000000000
     11030      3677  TIP3      H1            -24.0888649752      -21.5136693232       16.5656928508  WZ3       91              0.0000000000
     11031      3677  TIP3      H2            -23.1541849752      -21.4379993232       17.7541828508  WZ3       91              0.0000000000
     11032      3678  TIP3      OH2           -17.4569649752      -29.4521393232        5.2005628508  WZ3       92              0.0000000000
     11033      3678  TIP3      H1            -18.0113349752      -29.8483393232        4.5283128508  WZ3       92              0.0000000000
     11034      3678  TIP3      H2            -17.3566049752      -28.5416193232        4.9228928508  WZ3       92              0.0000000000
     11035      3679  TIP3      OH2           -17.4937649752      -23.6519693232       18.0377128508  WZ3       93              0.0000000000
     11036      3679  TIP3      H1            -18.3449149752      -23.4135893232       17.6703528508  WZ3       93              0.0000000000
     11037      3679  TIP3      H2            -16.9034249752      -23.6686493232       17.2844228508  WZ3       93              0.0000000000
     11038      3680  TIP3      OH2           -19.1617949752      -20.6660993232        5.6657728508  WZ3       94              0.0000000000
     11039      3680  TIP3      H1            -19.5346849752      -21.4917193232        5.9748328508  WZ3       94              0.0000000000
     11040      3680  TIP3      H2            -18.8844449752      -20.8491593232        4.7681128508  WZ3       94              0.0000000000
     11041      3681  TIP3      OH2           -22.0014049752      -25.8581493232       12.6869628508  WZ3       95              0.0000000000
     11042      3681  TIP3      H1            -22.9297149752      -26.0899593232       12.6598928508  WZ3       95              0.0000000000
     11043      3681  TIP3      H2            -21.5502949752      -26.6351693232       12.3568428508  WZ3       95              0.0000000000
     11044      3682  TIP3      OH2           -29.4580949752      -21.5299893232        8.8198328508  WZ3       96              0.0000000000
     11045      3682  TIP3      H1            -28.9308749752      -20.7565493232        8.6197128508  WZ3       96              0.0000000000
     11046      3682  TIP3      H2            -30.3382449752      -21.3050693232        8.5182328508  WZ3       96              0.0000000000
     11047      3683  TIP3      OH2           -28.0308649752      -23.8669993232        8.3962628508  WZ3       98              0.0000000000
     11048      3683  TIP3      H1            -28.2718649752      -22.9415593232        8.4377928508  WZ3       98              0.0000000000
     11049      3683  TIP3      H2            -28.7715049752      -24.3258693232        8.7926528508  WZ3       98              0.0000000000
     11050      3684  TIP3      OH2           -27.5162049752      -19.7176393232       14.7113728508  WZ3       99              0.0000000000
     11051      3684  TIP3      H1            -27.1537349752      -18.8630793232       14.4778128508  WZ3       99              0.0000000000
     11052      3684  TIP3      H2            -26.9846849752      -20.0094793232       15.4520028508  WZ3       99              0.0000000000
     11053      3685  TIP3      OH2           -29.3477849752      -18.8452393232        7.9414828508  WZ3       100             0.0000000000
     11054      3685  TIP3      H1            -30.2977349752      -18.7394993232        7.9928128508  WZ3       100             0.0000000000
     11055      3685  TIP3      H2            -28.9959749752      -18.0244993232        8.2862328508  WZ3       100             0.0000000000
     11056      3686  TIP3      OH2           -23.9721249752      -23.6185693232       14.4119328508  WZ3       101             0.0000000000
     11057      3686  TIP3      H1            -24.3979949752      -23.8463993232       15.2383328508  WZ3       101             0.0000000000
     11058      3686  TIP3      H2            -23.3915449752      -24.3573893232       14.2294628508  WZ3       101             0.0000000000
     11059      3687  TIP3      OH2           -21.7692349752      -22.6895193232        3.4858328508  WZ3       102             0.0000000000
     11060      3687  TIP3      H1            -21.4159249752      -23.0695393232        4.2901828508  WZ3       102             0.0000000000
     11061      3687  TIP3      H2            -22.7178849752      -22.7830393232        3.5727628508  WZ3       102             0.0000000000
     11062      3688  TIP3      OH2           -21.3137049752      -19.0666193232       16.8814128508  WZ3       103             0.0000000000
     11063      3688  TIP3      H1            -21.9153849752      -19.6223293232       16.3860428508  WZ3       103             0.0000000000
     11064      3688  TIP3      H2            -21.0323349752      -18.3996393232       16.2551528508  WZ3       103             0.0000000000
     11065      3689  TIP3      OH2           -17.2657949752      -18.2102693232        3.6868528508  WZ3       104             0.0000000000
     11066      3689  TIP3      H1            -16.5220049752      -17.6242193232        3.5470128508  WZ3       104             0.0000000000
     11067      3689  TIP3      H2            -17.9599849752      -17.6416893232        4.0200928508  WZ3       104             0.0000000000
     11068      3690  TIP3      OH2           -20.9033049752      -24.0173193232        5.7126228508  WZ3       106             0.0000000000
     11069      3690  TIP3      H1            -21.1805449752      -24.7453893232        6.2687328508  WZ3       106             0.0000000000
     11070      3690  TIP3      H2            -19.9760049752      -23.8981193232        5.9178828508  WZ3       106             0.0000000000
     11071      3691  TIP3      OH2           -27.6784549752      -21.5779093232        1.9328328508  WZ3       108             0.0000000000
     11072      3691  TIP3      H1            -27.4394749752      -22.3260993232        1.3857228508  WZ3       108             0.0000000000
     11073      3691  TIP3      H2            -27.9473249752      -21.9657393232        2.7656128508  WZ3       108             0.0000000000
     11074      3692  TIP3      OH2           -28.7413949752      -22.0075293232        4.3890928508  WZ3       109             0.0000000000
     11075      3692  TIP3      H1            -28.5945949752      -22.5275493232        5.1791828508  WZ3       109             0.0000000000
     11076      3692  TIP3      H2            -28.7442249752      -21.1007693232        4.6956828508  WZ3       109             0.0000000000
     11077      3693  TIP3      OH2           -26.0036749752      -20.3101693232        5.1385128508  WZ3       113             0.0000000000
     11078      3693  TIP3      H1            -26.8200649752      -19.8131993232        5.1909428508  WZ3       113             0.0000000000
     11079      3693  TIP3      H2            -25.4740449752      -19.8348193232        4.4983928508  WZ3       113             0.0000000000
     11080      3694  TIP3      OH2           -28.6653649752      -19.2664493232        5.1202028508  WZ3       117             0.0000000000
     11081      3694  TIP3      H1            -28.5044949752      -18.4666993232        4.6194628508  WZ3       117             0.0000000000
     11082      3694  TIP3      H2            -28.8625849752      -18.9598493232        6.0052628508  WZ3       117             0.0000000000
     11083      3695  TIP3      OH2           -21.1299749752      -28.0693693232       11.2259628508  WZ3       120             0.0000000000
     11084      3695  TIP3      H1            -21.9275349752      -28.4843493232       10.8974628508  WZ3       120             0.0000000000
     11085      3695  TIP3      H2            -20.6848649752      -28.7599993232       11.7170128508  WZ3       120             0.0000000000
     11086      3696  TIP3      OH2           -20.0435149752      -18.8131193232       12.8483128508  WZ3       123             0.0000000000
     11087      3696  TIP3      H1            -20.1990849752      -18.1346793232       12.1912428508  WZ3       123             0.0000000000
     11088      3696  TIP3      H2            -19.1108749752      -18.7411893232       13.0513728508  WZ3       123             0.0000000000
     11089      3697  TIP3      OH2           -25.6402749752      -19.7147693232        2.0714328508  WZ3       128             0.0000000000
     11090      3697  TIP3      H1            -26.2841749752      -20.3459093232        2.3928028508  WZ3       128             0.0000000000
     11091      3697  TIP3      H2            -24.8784449752      -20.2459693232        1.8397828508  WZ3       128             0.0000000000
     11092      3698  TIP3      OH2           -21.0359849752      -19.8977793232        2.3052328508  WZ3       130             0.0000000000
     11093      3698  TIP3      H1            -20.7529449752      -20.6922593232        2.7579228508  WZ3       130             0.0000000000
     11094      3698  TIP3      H2            -20.2961949752      -19.6646793232        1.7443428508  WZ3       130             0.0000000000
     11095      3699  TIP3      OH2           -24.7289149752      -22.9411193232        1.8985228508  WZ3       134             0.0000000000
     11096      3699  TIP3      H1            -24.9975049752      -22.7609093232        2.7994128508  WZ3       134             0.0000000000
     11097      3699  TIP3      H2            -24.9353549752      -23.8664993232        1.7671028508  WZ3       134             0.0000000000
     11098      3700  TIP3      OH2           -22.0324949752      -24.4463193232       16.8461328508  WZ3       135             0.0000000000
     11099      3700  TIP3      H1            -21.2870149752      -23.8579493232       16.7265328508  WZ3       135             0.0000000000
     11100      3700  TIP3      H2            -22.7898149752      -23.8643493232       16.9094428508  WZ3       135             0.0000000000
     11101      3701  TIP3      OH2           -18.4710049752      -25.4180693232        2.1766528508  WZ3       141             0.0000000000
     11102      3701  TIP3      H1            -18.7445249752      -25.8425193232        1.3634828508  WZ3       141             0.0000000000
     11103      3701  TIP3      H2            -18.4315949752      -24.4866193232        1.9596928508  WZ3       141             0.0000000000
     11104      3702  TIP3      OH2           -27.9636649752      -17.0821193232        3.7322028508  WZ3       155             0.0000000000
     11105      3702  TIP3      H1            -27.0305949752      -16.9242493232        3.8760428508  WZ3       155             0.0000000000
     11106      3702  TIP3      H2            -28.2277849752      -16.4068193232        3.1073528508  WZ3       155             0.0000000000
     11107      3703  TIP3      OH2           -17.3277149752      -18.1625493232       13.0775028508  WZ3       159             0.0000000000
     11108      3703  TIP3      H1            -17.3490449752      -17.9777093232       14.0164428508  WZ3       159             0.0000000000
     11109      3703  TIP3      H2            -16.6370949752      -17.5941493232       12.7366428508  WZ3       159             0.0000000000
     11110      3704  TIP3      OH2           -17.7644249752      -18.5954393232       15.9994128508  WZ3       160             0.0000000000
     11111      3704  TIP3      H1            -18.2515549752      -19.3310293232       15.6281528508  WZ3       160             0.0000000000
     11112      3704  TIP3      H2            -17.2151549752      -18.9890493232       16.6773528508  WZ3       160             0.0000000000
     11113      3705  TIP3      OH2           -18.0127249752      -24.5492593232        6.1516928508  WZ3       162             0.0000000000
     11114      3705  TIP3      H1            -17.1625849752      -24.1281693232        6.2788528508  WZ3       162             0.0000000000
     11115      3705  TIP3      H2            -18.0072149752      -25.2892493232        6.7588328508  WZ3       162             0.0000000000
     11116      3706  TIP3      OH2           -17.6181649752      -26.4955193232        7.9752628508  WZ3       163             0.0000000000
     11117      3706  TIP3      H1            -18.3447049752      -26.9752593232        8.3730228508  WZ3       163             0.0000000000
     11118      3706  TIP3      H2            -17.0368349752      -26.2900493232        8.7074228508  WZ3       163             0.0000000000
     11119      3707  TIP3      OH2           -17.8590449752      -23.7107693232       12.9230228508  WZ3       164             0.0000000000
     11120      3707  TIP3      H1            -17.0256249752      -24.0887693232       12.6423828508  WZ3       164             0.0000000000
     11121      3707  TIP3      H2            -17.7470149752      -22.7676493232       12.8039328508  WZ3       164             0.0000000000
     11122      3708  TIP3      OH2           -19.3728149752      -20.8330193232       15.2298628508  WZ3       165             0.0000000000
     11123      3708  TIP3      H1            -20.0202849752      -20.5078693232       15.8553828508  WZ3       165             0.0000000000
     11124      3708  TIP3      H2            -19.8904149752      -21.2732493232       14.5556928508  WZ3       165             0.0000000000
     11125      3709  TIP3      OH2           -17.3498549752      -26.5946693232        4.3663928508  WZ3       166             0.0000000000
     11126      3709  TIP3      H1            -17.8717449752      -26.2382593232        3.6474828508  WZ3       166             0.0000000000
     11127      3709  TIP3      H2            -17.3829349752      -25.9198893232        5.0444828508  WZ3       166             0.0000000000
     11128      3710  TIP3      OH2           -19.0009549752      -29.3551093232        2.9171028508  WZ3       167             0.0000000000
     11129      3710  TIP3      H1            -18.9045149752      -28.6884093232        2.2370728508  WZ3       167             0.0000000000
     11130      3710  TIP3      H2            -19.1409949752      -30.1704793232        2.4356528508  WZ3       167             0.0000000000
     11131      3711  TIP3      OH2           -19.8314849752      -27.9748693232        8.5381328508  WZ3       168             0.0000000000
     11132      3711  TIP3      H1            -19.9816049752      -28.9200093232        8.5179128508  WZ3       168             0.0000000000
     11133      3711  TIP3      H2            -20.1850349752      -27.6937293232        9.3820428508  WZ3       168             0.0000000000
     11134      3712  TIP3      OH2           -18.9751949752      -26.0045393232       18.1769628508  WZ3       170             0.0000000000
     11135      3712  TIP3      H1            -18.3924649752      -26.7393093232       18.3686828508  WZ3       170             0.0000000000
     11136      3712  TIP3      H2            -18.4112649752      -25.2325093232       18.2235428508  WZ3       170             0.0000000000
     11137      3713  TIP3      OH2           -19.7535749752      -31.9471293232        2.0346528508  WZ3       172             0.0000000000
     11138      3713  TIP3      H1            -19.1429949752      -32.3184493232        2.6714728508  WZ3       172             0.0000000000
     11139      3713  TIP3      H2            -20.5904249752      -32.3684393232        2.2306528508  WZ3       172             0.0000000000
     11140      3714  TIP3      OH2           -20.1210049752      -30.3922893232        7.0006428508  WZ3       173             0.0000000000
     11141      3714  TIP3      H1            -19.8412949752      -31.2992493232        7.1248128508  WZ3       173             0.0000000000
     11142      3714  TIP3      H2            -19.3618349752      -29.9581393232        6.6115628508  WZ3       173             0.0000000000
     11143      3715  TIP3      OH2           -19.5091749752      -29.8105493232       12.4365328508  WZ3       174             0.0000000000
     11144      3715  TIP3      H1            -18.5763749752      -29.5985593232       12.4021328508  WZ3       174             0.0000000000
     11145      3715  TIP3      H2            -19.7444249752      -29.7093393232       13.3588328508  WZ3       174             0.0000000000
     11146      3716  TIP3      OH2           -19.4799849752      -29.0740193232       15.2124728508  WZ3       175             0.0000000000
     11147      3716  TIP3      H1            -20.3228549752      -28.8059793232       15.5784528508  WZ3       175             0.0000000000
     11148      3716  TIP3      H2            -19.0375549752      -28.2518293232       15.0015828508  WZ3       175             0.0000000000
     11149      3717  TIP3      OH2           -20.5891149752      -18.0726093232        8.6496828508  WZ3       184             0.0000000000
     11150      3717  TIP3      H1            -19.9368249752      -18.4203993232        8.0415928508  WZ3       184             0.0000000000
     11151      3717  TIP3      H2            -20.0787349752      -17.5842893232        9.2956528508  WZ3       184             0.0000000000
     11152      3718  TIP3      OH2           -23.5938949752      -17.4844593232       17.6546828508  WZ3       189             0.0000000000
     11153      3718  TIP3      H1            -22.9170049752      -18.1172293232       17.4146028508  WZ3       189             0.0000000000
     11154      3718  TIP3      H2            -23.2720149752      -17.0834093232       18.4620128508  WZ3       189             0.0000000000
     11155      3719  TIP3      OH2           -30.3811449752      -17.3125693232       14.5284228508  WZ3       192             0.0000000000
     11156      3719  TIP3      H1            -31.2459249752      -17.2407193232       14.9324328508  WZ3       192             0.0000000000
     11157      3719  TIP3      H2            -30.4362449752      -16.7658393232       13.7446728508  WZ3       192             0.0000000000
     11158      3720  TIP3      OH2           -25.6705849752      -17.4246793232       13.7040228508  WZ3       193             0.0000000000
     11159      3720  TIP3      H1            -26.1271849752      -16.8957093232       13.0498628508  WZ3       193             0.0000000000
     11160      3720  TIP3      H2            -25.5077849752      -16.8215393232       14.4292528508  WZ3       193             0.0000000000
     11161      3721  TIP3      OH2           -23.3429549752      -18.5467193232       14.6490528508  WZ3       194             0.0000000000
     11162      3721  TIP3      H1            -24.2475849752      -18.3816993232       14.3832628508  WZ3       194             0.0000000000
     11163      3721  TIP3      H2            -22.9140949752      -17.6934993232       14.5833928508  WZ3       194             0.0000000000
     11164      3722  TIP3      OH2           -20.7387649752      -16.9768093232       14.9438328508  WZ3       195             0.0000000000
     11165      3722  TIP3      H1            -20.9205649752      -16.0609193232       14.7333228508  WZ3       195             0.0000000000
     11166      3722  TIP3      H2            -20.5619849752      -17.3870993232       14.0972928508  WZ3       195             0.0000000000
     11167      3723  TIP3      OH2           -31.2922849752      -19.5798393232       11.0638728508  WZ3       197             0.0000000000
     11168      3723  TIP3      H1            -31.5112149752      -20.4960993232       11.2334728508  WZ3       197             0.0000000000
     11169      3723  TIP3      H2            -30.4680649752      -19.4397993232       11.5300128508  WZ3       197             0.0000000000
     11170      3724  TIP3      OH2           -28.7550349752      -19.1099093232       11.9126728508  WZ3       198             0.0000000000
     11171      3724  TIP3      H1            -28.5424649752      -19.9980093232       11.6257628508  WZ3       198             0.0000000000
     11172      3724  TIP3      H2            -28.6905249752      -19.1441393232       12.8670728508  WZ3       198             0.0000000000
     11173      3725  TIP3      OH2           -25.3182749752      -17.8562993232        3.9777328508  WZ3       210             0.0000000000
     11174      3725  TIP3      H1            -24.4522549752      -17.4895593232        3.7995528508  WZ3       210             0.0000000000
     11175      3725  TIP3      H2            -25.5649949752      -18.2954993232        3.1638128508  WZ3       210             0.0000000000
     11176      3726  TIP3      OH2           -18.6093149752      -18.2932693232        6.6568428508  WZ3       211             0.0000000000
     11177      3726  TIP3      H1            -18.8036049752      -19.0410593232        6.0918028508  WZ3       211             0.0000000000
     11178      3726  TIP3      H2            -18.6483049752      -17.5352593232        6.0736328508  WZ3       211             0.0000000000
     11179      3727  TIP3      OH2           -32.3645049752      -18.1457093232        2.6053228508  WZ3       214             0.0000000000
     11180      3727  TIP3      H1            -32.6320449752      -17.8594193232        3.4786328508  WZ3       214             0.0000000000
     11181      3727  TIP3      H2            -31.5932449752      -18.6917893232        2.7575728508  WZ3       214             0.0000000000
     11182      3728  TIP3      OH2           -19.3916949752      -19.5420293232       18.8070228508  WZ3       216             0.0000000000
     11183      3728  TIP3      H1            -20.1735049752      -19.7282293232       18.2870828508  WZ3       216             0.0000000000
     11184      3728  TIP3      H2            -19.4637049752      -18.6125993232       19.0242728508  WZ3       216             0.0000000000
     11185      3729  TIP3      OH2            -4.9856549752      -25.6555893232        8.8377428508  WZ3       217             0.0000000000
     11186      3729  TIP3      H1             -4.8965449752      -24.7117693232        8.7054528508  WZ3       217             0.0000000000
     11187      3729  TIP3      H2             -5.6238949752      -25.9309493232        8.1796828508  WZ3       217             0.0000000000
     11188      3730  TIP3      OH2            -6.0525249752      -26.4005193232       12.2565628508  WZ3       218             0.0000000000
     11189      3730  TIP3      H1             -6.0907749752      -27.0468893232       12.9615228508  WZ3       218             0.0000000000
     11190      3730  TIP3      H2             -6.3748749752      -26.8670793232       11.4854328508  WZ3       218             0.0000000000
     11191      3731  TIP3      OH2           -13.6840249752      -26.7863093232       13.8495528508  WZ3       219             0.0000000000
     11192      3731  TIP3      H1            -13.6428149752      -27.4119793232       14.5727928508  WZ3       219             0.0000000000
     11193      3731  TIP3      H2            -12.9812549752      -26.1624493232       14.0315928508  WZ3       219             0.0000000000
     11194      3732  TIP3      OH2            -2.3465049752      -23.4614793232       10.5580728508  WZ3       220             0.0000000000
     11195      3732  TIP3      H1             -2.7872349752      -24.1818793232       11.0086328508  WZ3       220             0.0000000000
     11196      3732  TIP3      H2             -2.3595349752      -22.7407593232       11.1878428508  WZ3       220             0.0000000000
     11197      3733  TIP3      OH2           -12.7607149752      -22.3364193232       12.3844628508  WZ3       221             0.0000000000
     11198      3733  TIP3      H1            -13.1301949752      -23.1383693232       12.0148928508  WZ3       221             0.0000000000
     11199      3733  TIP3      H2            -11.8196049752      -22.5049293232       12.4308028508  WZ3       221             0.0000000000
     11200      3734  TIP3      OH2           -16.1506649752      -28.6761593232        7.7773428508  WZ3       222             0.0000000000
     11201      3734  TIP3      H1            -16.5983249752      -27.8302893232        7.7589928508  WZ3       222             0.0000000000
     11202      3734  TIP3      H2            -16.7115449752      -29.2557393232        7.2618528508  WZ3       222             0.0000000000
     11203      3735  TIP3      OH2           -15.4400549752      -26.5141993232        9.9031428508  WZ3       223             0.0000000000
     11204      3735  TIP3      H1            -15.2267049752      -27.2840393232       10.4304428508  WZ3       223             0.0000000000
     11205      3735  TIP3      H2            -14.7022949752      -26.4245293232        9.2999028508  WZ3       223             0.0000000000
     11206      3736  TIP3      OH2            -5.2349549752      -18.3573093232       10.7701128508  WZ3       224             0.0000000000
     11207      3736  TIP3      H1             -4.6153149752      -19.0338393232       10.4970328508  WZ3       224             0.0000000000
     11208      3736  TIP3      H2             -5.4432149752      -18.5752293232       11.6786028508  WZ3       224             0.0000000000
     11209      3737  TIP3      OH2            -7.6630849752      -23.9683793232       12.6626628508  WZ3       225             0.0000000000
     11210      3737  TIP3      H1             -7.3592949752      -24.6542393232       12.0680728508  WZ3       225             0.0000000000
     11211      3737  TIP3      H2             -6.9416849752      -23.8495093232       13.2804628508  WZ3       225             0.0000000000
     11212      3738  TIP3      OH2             0.9998950248      -32.3668493232       13.5232828508  WZ3       226             0.0000000000
     11213      3738  TIP3      H1              1.0491150248      -31.7567293232       14.2591928508  WZ3       226             0.0000000000
     11214      3738  TIP3      H2              1.4254050248      -31.9057593232       12.8003928508  WZ3       226             0.0000000000
     11215      3739  TIP3      OH2            -4.5223849752      -29.5741393232       12.9901428508  WZ3       227             0.0000000000
     11216      3739  TIP3      H1             -4.3797949752      -30.5204393232       13.0103028508  WZ3       227             0.0000000000
     11217      3739  TIP3      H2             -4.6284849752      -29.3671593232       12.0616328508  WZ3       227             0.0000000000
     11218      3740  TIP3      OH2           -11.3675549752      -31.4724993232       10.2626228508  WZ3       228             0.0000000000
     11219      3740  TIP3      H1            -11.3244449752      -30.6126493232        9.8442528508  WZ3       228             0.0000000000
     11220      3740  TIP3      H2            -11.8251449752      -32.0250293232        9.6289428508  WZ3       228             0.0000000000
     11221      3741  TIP3      OH2            -3.6452849752      -31.3419393232        8.6634528508  WZ3       229             0.0000000000
     11222      3741  TIP3      H1             -2.9988549752      -31.6706193232        9.2882128508  WZ3       229             0.0000000000
     11223      3741  TIP3      H2             -3.1353449752      -30.8240393232        8.0405928508  WZ3       229             0.0000000000
     11224      3742  TIP3      OH2           -14.7474049752      -29.0759193232       11.0247628508  WZ3       230             0.0000000000
     11225      3742  TIP3      H1            -14.0937449752      -29.6257493232       11.4567728508  WZ3       230             0.0000000000
     11226      3742  TIP3      H2            -14.7234749752      -29.3500193232       10.1079628508  WZ3       230             0.0000000000
     11227      3743  TIP3      OH2            -9.5909549752      -27.5257893232       10.2399128508  WZ3       231             0.0000000000
     11228      3743  TIP3      H1             -8.9748549752      -28.0522493232       10.7493128508  WZ3       231             0.0000000000
     11229      3743  TIP3      H2            -10.1770749752      -28.1659193232        9.8362728508  WZ3       231             0.0000000000
     11230      3744  TIP3      OH2             1.3913550248      -30.8889293232       15.7592628508  WZ3       232             0.0000000000
     11231      3744  TIP3      H1              0.7028150248      -30.2308593232       15.6639228508  WZ3       232             0.0000000000
     11232      3744  TIP3      H2              1.4068150248      -31.0861393232       16.6958028508  WZ3       232             0.0000000000
     11233      3745  TIP3      OH2           -12.5573649752      -32.5546593232       14.3367028508  WZ3       233             0.0000000000
     11234      3745  TIP3      H1            -12.7761949752      -32.0245993232       13.5703028508  WZ3       233             0.0000000000
     11235      3745  TIP3      H2            -13.2252749752      -32.3281093232       14.9838428508  WZ3       233             0.0000000000
     11236      3746  TIP3      OH2            -5.1883849752      -23.0545493232        7.8806128508  WZ3       234             0.0000000000
     11237      3746  TIP3      H1             -5.4838749752      -23.3773193232        7.0293028508  WZ3       234             0.0000000000
     11238      3746  TIP3      H2             -5.5126049752      -22.1548793232        7.9218728508  WZ3       234             0.0000000000
     11239      3747  TIP3      OH2            -9.9882249752      -24.8790893232       14.6240728508  WZ3       235             0.0000000000
     11240      3747  TIP3      H1            -10.7283149752      -24.2809393232       14.7275928508  WZ3       235             0.0000000000
     11241      3747  TIP3      H2             -9.2742749752      -24.3251293232       14.3084328508  WZ3       235             0.0000000000
     11242      3748  TIP3      OH2            -1.8814449752      -32.0510093232       10.6440428508  WZ3       236             0.0000000000
     11243      3748  TIP3      H1             -2.0966449752      -32.8166693232       11.1766428508  WZ3       236             0.0000000000
     11244      3748  TIP3      H2             -1.2257049752      -31.5785493232       11.1568928508  WZ3       236             0.0000000000
     11245      3749  TIP3      OH2           -12.9636349752      -30.6624793232       12.2889228508  WZ3       237             0.0000000000
     11246      3749  TIP3      H1            -12.3500049752      -30.0297193232       12.6621628508  WZ3       237             0.0000000000
     11247      3749  TIP3      H2            -12.4515649752      -31.1349793232       11.6326128508  WZ3       237             0.0000000000
     11248      3750  TIP3      OH2           -11.5807949752      -22.9147893232       15.4112228508  WZ3       238             0.0000000000
     11249      3750  TIP3      H1            -11.5860349752      -22.0354393232       15.0331528508  WZ3       238             0.0000000000
     11250      3750  TIP3      H2            -12.4343849752      -22.9983793232       15.8362128508  WZ3       238             0.0000000000
     11251      3751  TIP3      OH2           -15.4597049752      -23.2439993232        6.1931528508  WZ3       239             0.0000000000
     11252      3751  TIP3      H1            -15.7316149752      -23.0148993232        5.3044428508  WZ3       239             0.0000000000
     11253      3751  TIP3      H2            -15.4141349752      -22.4061193232        6.6536828508  WZ3       239             0.0000000000
     11254      3752  TIP3      OH2            -1.8347349752      -21.6224093232       12.9060028508  WZ3       240             0.0000000000
     11255      3752  TIP3      H1             -2.7763649752      -21.5640193232       13.0676928508  WZ3       240             0.0000000000
     11256      3752  TIP3      H2             -1.5581249752      -20.7163593232       12.7689728508  WZ3       240             0.0000000000
     11257      3753  TIP3      OH2            -3.5826149752      -19.8410593232        9.5311628508  WZ3       243             0.0000000000
     11258      3753  TIP3      H1             -3.1573849752      -20.5482693232        9.0461228508  WZ3       243             0.0000000000
     11259      3753  TIP3      H2             -3.2656149752      -19.0397893232        9.1143828508  WZ3       243             0.0000000000
     11260      3754  TIP3      OH2            -2.4229649752      -21.9402093232        8.0398228508  WZ3       244             0.0000000000
     11261      3754  TIP3      H1             -2.6804849752      -22.6301993232        7.4284128508  WZ3       244             0.0000000000
     11262      3754  TIP3      H2             -2.3518849752      -22.3830893232        8.8854128508  WZ3       244             0.0000000000
     11263      3755  TIP3      OH2            -0.7369449752      -23.3735393232       16.5171728508  WZ3       245             0.0000000000
     11264      3755  TIP3      H1             -0.5973149752      -23.9652893232       15.7778728508  WZ3       245             0.0000000000
     11265      3755  TIP3      H2             -0.5696649752      -22.5009493232       16.1610528508  WZ3       245             0.0000000000
     11266      3756  TIP3      OH2            -6.2644049752      -26.4115893232        6.2897728508  WZ3       246             0.0000000000
     11267      3756  TIP3      H1             -6.9758549752      -25.8766193232        5.9378228508  WZ3       246             0.0000000000
     11268      3756  TIP3      H2             -5.5734449752      -26.3563793232        5.6296628508  WZ3       246             0.0000000000
     11269      3757  TIP3      OH2            -6.2104849752      -27.9541593232        3.3282728508  WZ3       247             0.0000000000
     11270      3757  TIP3      H1             -5.5094949752      -27.9314693232        3.9796728508  WZ3       247             0.0000000000
     11271      3757  TIP3      H2             -5.9081949752      -28.5821893232        2.6722028508  WZ3       247             0.0000000000
     11272      3758  TIP3      OH2             1.1049850248      -27.0337393232       14.5832128508  WZ3       248             0.0000000000
     11273      3758  TIP3      H1              0.4523950248      -26.3391793232       14.6723028508  WZ3       248             0.0000000000
     11274      3758  TIP3      H2              1.5700150248      -26.8236493232       13.7733728508  WZ3       248             0.0000000000
     11275      3759  TIP3      OH2            -2.8586349752      -26.2022593232        7.2413628508  WZ3       249             0.0000000000
     11276      3759  TIP3      H1             -3.5905349752      -25.9738893232        7.8144228508  WZ3       249             0.0000000000
     11277      3759  TIP3      H2             -2.4114149752      -26.9159893232        7.6961128508  WZ3       249             0.0000000000
     11278      3760  TIP3      OH2            -2.9612849752      -28.0279993232       16.3090628508  WZ3       250             0.0000000000
     11279      3760  TIP3      H1             -2.8813749752      -27.2645593232       16.8809128508  WZ3       250             0.0000000000
     11280      3760  TIP3      H2             -3.5625149752      -27.7487593232       15.6185728508  WZ3       250             0.0000000000
     11281      3761  TIP3      OH2           -11.2132649752      -25.5716393232        9.1238628508  WZ3       251             0.0000000000
     11282      3761  TIP3      H1            -11.5437449752      -25.9422993232        8.3055628508  WZ3       251             0.0000000000
     11283      3761  TIP3      H2            -10.6248549752      -26.2422393232        9.4706928508  WZ3       251             0.0000000000
     11284      3762  TIP3      OH2            -9.8465149752      -22.1435793232       11.8050828508  WZ3       252             0.0000000000
     11285      3762  TIP3      H1             -9.9413849752      -22.7222693232       11.0485428508  WZ3       252             0.0000000000
     11286      3762  TIP3      H2             -9.1171549752      -22.5150093232       12.3013628508  WZ3       252             0.0000000000
     11287      3763  TIP3      OH2           -10.8467149752      -26.8030793232       12.7573628508  WZ3       253             0.0000000000
     11288      3763  TIP3      H1            -10.2814649752      -26.6816593232       11.9944828508  WZ3       253             0.0000000000
     11289      3763  TIP3      H2            -10.5278249752      -26.1655793232       13.3962128508  WZ3       253             0.0000000000
     11290      3764  TIP3      OH2            -4.5374949752      -21.2998893232       13.4914128508  WZ3       254             0.0000000000
     11291      3764  TIP3      H1             -4.7778349752      -20.6375793232       14.1393328508  WZ3       254             0.0000000000
     11292      3764  TIP3      H2             -4.7356749752      -22.1343693232       13.9163728508  WZ3       254             0.0000000000
     11293      3765  TIP3      OH2            -9.9666449752      -22.4038093232       17.4745528508  WZ3       255             0.0000000000
     11294      3765  TIP3      H1            -10.2778949752      -21.6214893232       17.9298728508  WZ3       255             0.0000000000
     11295      3765  TIP3      H2            -10.6166249752      -22.5568993232       16.7887528508  WZ3       255             0.0000000000
     11296      3766  TIP3      OH2            -3.9876849752      -27.0399693232        4.9264828508  WZ3       256             0.0000000000
     11297      3766  TIP3      H1             -3.4081349752      -26.8899393232        5.6733728508  WZ3       256             0.0000000000
     11298      3766  TIP3      H2             -3.5736849752      -26.5692293232        4.2031228508  WZ3       256             0.0000000000
     11299      3767  TIP3      OH2           -13.0466549752      -26.2056993232       16.7031228508  WZ3       257             0.0000000000
     11300      3767  TIP3      H1            -12.9763349752      -25.5550193232       17.4016228508  WZ3       257             0.0000000000
     11301      3767  TIP3      H2            -13.9374349752      -26.1029493232       16.3682128508  WZ3       257             0.0000000000
     11302      3768  TIP3      OH2            -6.2611949752      -20.3031193232        8.3617928508  WZ3       258             0.0000000000
     11303      3768  TIP3      H1             -5.7874349752      -20.0074893232        9.1392128508  WZ3       258             0.0000000000
     11304      3768  TIP3      H2             -6.8242649752      -19.5649593232        8.1287528508  WZ3       258             0.0000000000
     11305      3769  TIP3      OH2           -11.7270549752      -20.3323093232       18.2379328508  WZ3       259             0.0000000000
     11306      3769  TIP3      H1            -11.7195249752      -20.4683393232       17.2904828508  WZ3       259             0.0000000000
     11307      3769  TIP3      H2            -12.6430149752      -20.4494993232       18.4899328508  WZ3       259             0.0000000000
     11308      3770  TIP3      OH2           -12.2229949752      -26.5022093232        6.7131428508  WZ3       261             0.0000000000
     11309      3770  TIP3      H1            -12.5148649752      -25.7340393232        6.2222728508  WZ3       261             0.0000000000
     11310      3770  TIP3      H2            -12.8974749752      -27.1615893232        6.5502828508  WZ3       261             0.0000000000
     11311      3771  TIP3      OH2             0.9002950248      -20.9236893232        3.1158428508  WZ3       262             0.0000000000
     11312      3771  TIP3      H1              0.9736450248      -19.9846693232        3.2863728508  WZ3       262             0.0000000000
     11313      3771  TIP3      H2              1.8058050248      -21.2288293232        3.0595728508  WZ3       262             0.0000000000
     11314      3772  TIP3      OH2           -16.1299849752      -24.1392893232       15.5281228508  WZ3       263             0.0000000000
     11315      3772  TIP3      H1            -16.6311449752      -24.1673493232       14.7130928508  WZ3       263             0.0000000000
     11316      3772  TIP3      H2            -16.1246149752      -25.0449693232       15.8378528508  WZ3       263             0.0000000000
     11317      3773  TIP3      OH2           -16.3797149752      -21.3589093232       12.4121428508  WZ3       264             0.0000000000
     11318      3773  TIP3      H1            -15.4336549752      -21.5032093232       12.3930928508  WZ3       264             0.0000000000
     11319      3773  TIP3      H2            -16.4920849752      -20.5746293232       12.9492628508  WZ3       264             0.0000000000
     11320      3774  TIP3      OH2             1.8181350248      -20.6929393232       18.0945128508  WZ3       265             0.0000000000
     11321      3774  TIP3      H1              1.7688150248      -21.6481293232       18.0572728508  WZ3       265             0.0000000000
     11322      3774  TIP3      H2              0.9913650248      -20.4254093232       18.4958928508  WZ3       265             0.0000000000
     11323      3775  TIP3      OH2            -7.2034649752      -21.1190193232       16.9706528508  WZ3       266             0.0000000000
     11324      3775  TIP3      H1             -7.1160049752      -20.2925593232       17.4455628508  WZ3       266             0.0000000000
     11325      3775  TIP3      H2             -8.0669549752      -21.4486393232       17.2195828508  WZ3       266             0.0000000000
     11326      3776  TIP3      OH2            -6.7888849752      -17.3466493232        6.7767128508  WZ3       267             0.0000000000
     11327      3776  TIP3      H1             -6.8642849752      -17.4679293232        5.8302328508  WZ3       267             0.0000000000
     11328      3776  TIP3      H2             -6.7560149752      -16.3973793232        6.8951728508  WZ3       267             0.0000000000
     11329      3777  TIP3      OH2           -13.1355049752      -18.5579493232        8.5576128508  WZ3       268             0.0000000000
     11330      3777  TIP3      H1            -12.9834649752      -18.9059093232        9.4362628508  WZ3       268             0.0000000000
     11331      3777  TIP3      H2            -13.9864649752      -18.9142193232        8.3023328508  WZ3       268             0.0000000000
     11332      3778  TIP3      OH2            -3.6872849752      -18.1926293232        3.7789528508  WZ3       269             0.0000000000
     11333      3778  TIP3      H1             -3.3124449752      -18.9370193232        3.3082128508  WZ3       269             0.0000000000
     11334      3778  TIP3      H2             -3.6829149752      -18.4625693232        4.6972828508  WZ3       269             0.0000000000
     11335      3779  TIP3      OH2            -4.0184749752      -18.2669193232        6.5281728508  WZ3       270             0.0000000000
     11336      3779  TIP3      H1             -4.9534949752      -18.1667293232        6.7068728508  WZ3       270             0.0000000000
     11337      3779  TIP3      H2             -3.7382849752      -18.9763193232        7.1064928508  WZ3       270             0.0000000000
     11338      3780  TIP3      OH2            -1.0298849752      -29.1996893232       18.5747328508  WZ3       271             0.0000000000
     11339      3780  TIP3      H1             -1.4372049752      -28.7191293232       17.8540628508  WZ3       271             0.0000000000
     11340      3780  TIP3      H2             -0.9893149752      -30.1050893232       18.2668128508  WZ3       271             0.0000000000
     11341      3781  TIP3      OH2           -13.8809349752      -22.8157493232       16.5714028508  WZ3       272             0.0000000000
     11342      3781  TIP3      H1            -13.6648049752      -23.1771893232       17.4309828508  WZ3       272             0.0000000000
     11343      3781  TIP3      H2            -14.7364649752      -23.1903693232       16.3617528508  WZ3       272             0.0000000000
     11344      3782  TIP3      OH2            -3.2728649752      -30.8681393232       16.7949728508  WZ3       275             0.0000000000
     11345      3782  TIP3      H1             -3.7869149752      -30.9939193232       17.5925728508  WZ3       275             0.0000000000
     11346      3782  TIP3      H2             -3.4283949752      -29.9558293232       16.5505928508  WZ3       275             0.0000000000
     11347      3783  TIP3      OH2            -2.5103749752      -26.0071393232        2.5562728508  WZ3       276             0.0000000000
     11348      3783  TIP3      H1             -2.4682949752      -26.2297493232        1.6262728508  WZ3       276             0.0000000000
     11349      3783  TIP3      H2             -1.6611649752      -25.6084293232        2.7462628508  WZ3       276             0.0000000000
     11350      3784  TIP3      OH2           -11.1711249752      -29.3802493232       13.6618428508  WZ3       278             0.0000000000
     11351      3784  TIP3      H1            -11.8129149752      -29.4205193232       14.3708528508  WZ3       278             0.0000000000
     11352      3784  TIP3      H2            -11.1339249752      -28.4537793232       13.4241428508  WZ3       278             0.0000000000
     11353      3785  TIP3      OH2           -11.1742149752      -29.1592393232        8.5738428508  WZ3       279             0.0000000000
     11354      3785  TIP3      H1            -12.0669249752      -29.4996293232        8.5152228508  WZ3       279             0.0000000000
     11355      3785  TIP3      H2            -10.7235549752      -29.5361493232        7.8181628508  WZ3       279             0.0000000000
     11356      3786  TIP3      OH2            -5.6386649752      -28.7432093232        7.3909228508  WZ3       280             0.0000000000
     11357      3786  TIP3      H1             -6.0476349752      -27.9283493232        7.0994028508  WZ3       280             0.0000000000
     11358      3786  TIP3      H2             -4.9180449752      -28.8831993232        6.7766328508  WZ3       280             0.0000000000
     11359      3787  TIP3      OH2            -6.5365049752      -28.5675693232       18.8789928508  WZ3       281             0.0000000000
     11360      3787  TIP3      H1             -7.0991249752      -29.2724093232       19.1997728508  WZ3       281             0.0000000000
     11361      3787  TIP3      H2             -5.7101649752      -28.6883793232       19.3467528508  WZ3       281             0.0000000000
     11362      3788  TIP3      OH2            -4.6338949752      -29.2971693232       10.2048928508  WZ3       282             0.0000000000
     11363      3788  TIP3      H1             -4.8294449752      -28.6914893232        9.4899528508  WZ3       282             0.0000000000
     11364      3788  TIP3      H2             -4.4526349752      -30.1306493232        9.7705228508  WZ3       282             0.0000000000
     11365      3789  TIP3      OH2           -13.4210749752      -29.0598993232       15.5290428508  WZ3       283             0.0000000000
     11366      3789  TIP3      H1            -13.4591349752      -28.6597393232       16.3977528508  WZ3       283             0.0000000000
     11367      3789  TIP3      H2            -13.9119649752      -29.8766593232       15.6193328508  WZ3       283             0.0000000000
     11368      3790  TIP3      OH2           -10.0553349752      -31.6856693232        2.3276428508  WZ3       284             0.0000000000
     11369      3790  TIP3      H1            -10.4862649752      -32.1306593232        3.0573828508  WZ3       284             0.0000000000
     11370      3790  TIP3      H2            -10.7734649752      -31.3140393232        1.8153928508  WZ3       284             0.0000000000
     11371      3791  TIP3      OH2           -16.8129949752      -31.9437193232        9.3795128508  WZ3       285             0.0000000000
     11372      3791  TIP3      H1            -16.1822249752      -31.9725093232       10.0989028508  WZ3       285             0.0000000000
     11373      3791  TIP3      H2            -16.3635649752      -32.3688493232        8.6491028508  WZ3       285             0.0000000000
     11374      3792  TIP3      OH2           -15.5387849752      -31.1975193232        4.8035528508  WZ3       286             0.0000000000
     11375      3792  TIP3      H1            -15.0646149752      -30.6065293232        4.2186428508  WZ3       286             0.0000000000
     11376      3792  TIP3      H2            -16.2561449752      -30.6672293232        5.1505628508  WZ3       286             0.0000000000
     11377      3793  TIP3      OH2            -5.3699749752      -27.6590393232       14.8761328508  WZ3       287             0.0000000000
     11378      3793  TIP3      H1             -5.0464949752      -28.2900693232       14.2331828508  WZ3       287             0.0000000000
     11379      3793  TIP3      H2             -5.8100449752      -28.1938193232       15.5368728508  WZ3       287             0.0000000000
     11380      3794  TIP3      OH2            -8.5926849752      -31.7314893232        9.6602528508  WZ3       288             0.0000000000
     11381      3794  TIP3      H1             -9.5035749752      -31.6748093232        9.9488528508  WZ3       288             0.0000000000
     11382      3794  TIP3      H2             -8.0873949752      -31.7919393232       10.4709728508  WZ3       288             0.0000000000
     11383      3795  TIP3      OH2           -13.7643449752      -30.1028593232        8.4870128508  WZ3       289             0.0000000000
     11384      3795  TIP3      H1            -14.6535449752      -30.0033093232        8.1469728508  WZ3       289             0.0000000000
     11385      3795  TIP3      H2            -13.4678549752      -30.9445593232        8.1408028508  WZ3       289             0.0000000000
     11386      3796  TIP3      OH2           -10.1111649752      -30.1025993232        6.1434728508  WZ3       290             0.0000000000
     11387      3796  TIP3      H1             -9.1796149752      -29.9735993232        6.3217828508  WZ3       290             0.0000000000
     11388      3796  TIP3      H2            -10.3261349752      -29.4331693232        5.4939428508  WZ3       290             0.0000000000
     11389      3797  TIP3      OH2           -11.4371449752      -28.9083793232        3.7100828508  WZ3       292             0.0000000000
     11390      3797  TIP3      H1            -11.9796349752      -29.2879993232        3.0188428508  WZ3       292             0.0000000000
     11391      3797  TIP3      H2            -10.6036549752      -28.7139093232        3.2814928508  WZ3       292             0.0000000000
     11392      3798  TIP3      OH2            -0.8999849752      -16.8253193232       19.2011928508  WZ3       293             0.0000000000
     11393      3798  TIP3      H1             -0.7001149752      -16.4011293232       18.3667228508  WZ3       293             0.0000000000
     11394      3798  TIP3      H2             -0.2446149752      -16.4814993232       19.8082328508  WZ3       293             0.0000000000
     11395      3799  TIP3      OH2           -13.3020049752      -24.3511893232       18.8092428508  WZ3       294             0.0000000000
     11396      3799  TIP3      H1            -12.5697649752      -24.0965993232       19.3706928508  WZ3       294             0.0000000000
     11397      3799  TIP3      H2            -14.0821349752      -24.1466493232       19.3247828508  WZ3       294             0.0000000000
     11398      3800  TIP3      OH2            -7.2727149752      -28.9441893232       11.5472128508  WZ3       295             0.0000000000
     11399      3800  TIP3      H1             -6.7083749752      -29.4905293232       11.0001728508  WZ3       295             0.0000000000
     11400      3800  TIP3      H2             -7.4203749752      -29.4659993232       12.3359728508  WZ3       295             0.0000000000
     11401      3801  TIP3      OH2            -8.6461249752      -30.5555793232       13.9612528508  WZ3       297             0.0000000000
     11402      3801  TIP3      H1             -9.4815949752      -30.1016293232       14.0714928508  WZ3       297             0.0000000000
     11403      3801  TIP3      H2             -8.1220649752      -30.2797293232       14.7132428508  WZ3       297             0.0000000000
     11404      3802  TIP3      OH2            -8.1018649752      -24.3428093232        5.6458928508  WZ3       298             0.0000000000
     11405      3802  TIP3      H1             -8.8467649752      -24.8502793232        5.3236828508  WZ3       298             0.0000000000
     11406      3802  TIP3      H2             -8.2361449752      -24.2940093232        6.5923728508  WZ3       298             0.0000000000
     11407      3803  TIP3      OH2            -0.9519749752      -25.2099893232       14.4326528508  WZ3       299             0.0000000000
     11408      3803  TIP3      H1             -0.3100949752      -24.7533593232       13.8888728508  WZ3       299             0.0000000000
     11409      3803  TIP3      H2             -1.7822849752      -25.0967493232       13.9700628508  WZ3       299             0.0000000000
     11410      3804  TIP3      OH2            -4.2041849752      -31.5288193232        3.8451528508  WZ3       300             0.0000000000
     11411      3804  TIP3      H1             -5.1427649752      -31.4172593232        3.6940328508  WZ3       300             0.0000000000
     11412      3804  TIP3      H2             -3.9069749752      -30.6721293232        4.1517228508  WZ3       300             0.0000000000
     11413      3805  TIP3      OH2            -6.5826549752      -24.1584793232       16.8828028508  WZ3       301             0.0000000000
     11414      3805  TIP3      H1             -6.9280449752      -24.5402393232       17.6897628508  WZ3       301             0.0000000000
     11415      3805  TIP3      H2             -6.7826449752      -23.2251193232       16.9540928508  WZ3       301             0.0000000000
     11416      3806  TIP3      OH2            -3.4858349752      -29.6615493232        5.5058928508  WZ3       302             0.0000000000
     11417      3806  TIP3      H1             -2.5939349752      -29.7990493232        5.8250128508  WZ3       302             0.0000000000
     11418      3806  TIP3      H2             -3.4294749752      -28.8709393232        4.9692428508  WZ3       302             0.0000000000
     11419      3807  TIP3      OH2           -12.9770349752      -25.0478093232       11.4156828508  WZ3       303             0.0000000000
     11420      3807  TIP3      H1            -12.2323149752      -25.0502393232       10.8143328508  WZ3       303             0.0000000000
     11421      3807  TIP3      H2            -12.8993749752      -25.8714293232       11.8971928508  WZ3       303             0.0000000000
     11422      3808  TIP3      OH2            -5.9764549752      -22.8843793232        4.6713528508  WZ3       304             0.0000000000
     11423      3808  TIP3      H1             -6.2716149752      -22.0575893232        5.0528328508  WZ3       304             0.0000000000
     11424      3808  TIP3      H2             -6.6794549752      -23.5036893232        4.8674928508  WZ3       304             0.0000000000
     11425      3809  TIP3      OH2           -15.9690649752      -26.5871193232       16.7305328508  WZ3       305             0.0000000000
     11426      3809  TIP3      H1            -15.7462049752      -27.0051593232       17.5622828508  WZ3       305             0.0000000000
     11427      3809  TIP3      H2            -16.5710549752      -27.1996193232       16.3078128508  WZ3       305             0.0000000000
     11428      3810  TIP3      OH2            -8.9525749752      -27.0701293232       18.9435028508  WZ3       306             0.0000000000
     11429      3810  TIP3      H1             -9.2484949752      -27.2358293232       18.0484128508  WZ3       306             0.0000000000
     11430      3810  TIP3      H2             -8.0210549752      -27.2900993232       18.9328928508  WZ3       306             0.0000000000
     11431      3811  TIP3      OH2            -4.3322949752      -21.6969293232       16.8333028508  WZ3       307             0.0000000000
     11432      3811  TIP3      H1             -5.2328649752      -21.5136693232       16.5656928508  WZ3       307             0.0000000000
     11433      3811  TIP3      H2             -4.2981849752      -21.4379993232       17.7541828508  WZ3       307             0.0000000000
     11434      3812  TIP3      OH2             1.3990350248      -29.4521393232        5.2005628508  WZ3       308             0.0000000000
     11435      3812  TIP3      H1              0.8446650248      -29.8483393232        4.5283128508  WZ3       308             0.0000000000
     11436      3812  TIP3      H2              1.4993950248      -28.5416193232        4.9228928508  WZ3       308             0.0000000000
     11437      3813  TIP3      OH2             1.3622350248      -23.6519693232       18.0377128508  WZ3       309             0.0000000000
     11438      3813  TIP3      H1              0.5110850248      -23.4135893232       17.6703528508  WZ3       309             0.0000000000
     11439      3813  TIP3      H2              1.9525750248      -23.6686493232       17.2844228508  WZ3       309             0.0000000000
     11440      3814  TIP3      OH2            -0.3057949752      -20.6660993232        5.6657728508  WZ3       310             0.0000000000
     11441      3814  TIP3      H1             -0.6786849752      -21.4917193232        5.9748328508  WZ3       310             0.0000000000
     11442      3814  TIP3      H2             -0.0284449752      -20.8491593232        4.7681128508  WZ3       310             0.0000000000
     11443      3815  TIP3      OH2            -3.1454049752      -25.8581493232       12.6869628508  WZ3       311             0.0000000000
     11444      3815  TIP3      H1             -4.0737149752      -26.0899593232       12.6598928508  WZ3       311             0.0000000000
     11445      3815  TIP3      H2             -2.6942949752      -26.6351693232       12.3568428508  WZ3       311             0.0000000000
     11446      3816  TIP3      OH2           -10.6020949752      -21.5299893232        8.8198328508  WZ3       312             0.0000000000
     11447      3816  TIP3      H1            -10.0748749752      -20.7565493232        8.6197128508  WZ3       312             0.0000000000
     11448      3816  TIP3      H2            -11.4822449752      -21.3050693232        8.5182328508  WZ3       312             0.0000000000
     11449      3817  TIP3      OH2           -14.8473249752      -26.6675793232        3.4070728508  WZ3       313             0.0000000000
     11450      3817  TIP3      H1            -14.2313349752      -26.0408593232        3.7865528508  WZ3       313             0.0000000000
     11451      3817  TIP3      H2            -15.7090649752      -26.3515993232        3.6787228508  WZ3       313             0.0000000000
     11452      3818  TIP3      OH2            -9.1748649752      -23.8669993232        8.3962628508  WZ3       314             0.0000000000
     11453      3818  TIP3      H1             -9.4158649752      -22.9415593232        8.4377928508  WZ3       314             0.0000000000
     11454      3818  TIP3      H2             -9.9155049752      -24.3258693232        8.7926528508  WZ3       314             0.0000000000
     11455      3819  TIP3      OH2            -8.6602049752      -19.7176393232       14.7113728508  WZ3       315             0.0000000000
     11456      3819  TIP3      H1             -8.2977349752      -18.8630793232       14.4778128508  WZ3       315             0.0000000000
     11457      3819  TIP3      H2             -8.1286849752      -20.0094793232       15.4520028508  WZ3       315             0.0000000000
     11458      3820  TIP3      OH2           -10.4917849752      -18.8452393232        7.9414828508  WZ3       316             0.0000000000
     11459      3820  TIP3      H1            -11.4417349752      -18.7394993232        7.9928128508  WZ3       316             0.0000000000
     11460      3820  TIP3      H2            -10.1399749752      -18.0244993232        8.2862328508  WZ3       316             0.0000000000
     11461      3821  TIP3      OH2            -5.1161249752      -23.6185693232       14.4119328508  WZ3       317             0.0000000000
     11462      3821  TIP3      H1             -5.5419949752      -23.8463993232       15.2383328508  WZ3       317             0.0000000000
     11463      3821  TIP3      H2             -4.5355449752      -24.3573893232       14.2294628508  WZ3       317             0.0000000000
     11464      3822  TIP3      OH2            -2.9132349752      -22.6895193232        3.4858328508  WZ3       318             0.0000000000
     11465      3822  TIP3      H1             -2.5599249752      -23.0695393232        4.2901828508  WZ3       318             0.0000000000
     11466      3822  TIP3      H2             -3.8618849752      -22.7830393232        3.5727628508  WZ3       318             0.0000000000
     11467      3823  TIP3      OH2            -2.4577049752      -19.0666193232       16.8814128508  WZ3       319             0.0000000000
     11468      3823  TIP3      H1             -3.0593849752      -19.6223293232       16.3860428508  WZ3       319             0.0000000000
     11469      3823  TIP3      H2             -2.1763349752      -18.3996393232       16.2551528508  WZ3       319             0.0000000000
     11470      3824  TIP3      OH2             1.5902050248      -18.2102693232        3.6868528508  WZ3       320             0.0000000000
     11471      3824  TIP3      H1              2.3339950248      -17.6242193232        3.5470128508  WZ3       320             0.0000000000
     11472      3824  TIP3      H2              0.8960150248      -17.6416893232        4.0200928508  WZ3       320             0.0000000000
     11473      3825  TIP3      OH2           -14.3351149752      -31.8338493232       16.2886728508  WZ3       321             0.0000000000
     11474      3825  TIP3      H1            -15.2278849752      -31.4953093232       16.2210728508  WZ3       321             0.0000000000
     11475      3825  TIP3      H2            -14.4338349752      -32.6892393232       16.7067528508  WZ3       321             0.0000000000
     11476      3826  TIP3      OH2            -2.0473049752      -24.0173193232        5.7126228508  WZ3       322             0.0000000000
     11477      3826  TIP3      H1             -2.3245449752      -24.7453893232        6.2687328508  WZ3       322             0.0000000000
     11478      3826  TIP3      H2             -1.1200049752      -23.8981193232        5.9178828508  WZ3       322             0.0000000000
     11479      3827  TIP3      OH2           -14.6839149752      -20.0294093232       14.7236128508  WZ3       323             0.0000000000
     11480      3827  TIP3      H1            -14.4668849752      -20.9611693232       14.6925828508  WZ3       323             0.0000000000
     11481      3827  TIP3      H2            -14.4375649752      -19.7549093232       15.6068928508  WZ3       323             0.0000000000
     11482      3828  TIP3      OH2            -8.8224549752      -21.5779093232        1.9328328508  WZ3       324             0.0000000000
     11483      3828  TIP3      H1             -8.5834749752      -22.3260993232        1.3857228508  WZ3       324             0.0000000000
     11484      3828  TIP3      H2             -9.0913249752      -21.9657393232        2.7656128508  WZ3       324             0.0000000000
     11485      3829  TIP3      OH2            -9.8853949752      -22.0075293232        4.3890928508  WZ3       325             0.0000000000
     11486      3829  TIP3      H1             -9.7385949752      -22.5275493232        5.1791828508  WZ3       325             0.0000000000
     11487      3829  TIP3      H2             -9.8882249752      -21.1007693232        4.6956828508  WZ3       325             0.0000000000
     11488      3830  TIP3      OH2           -13.4322849752      -24.7551993232        4.8996328508  WZ3       326             0.0000000000
     11489      3830  TIP3      H1            -14.1183549752      -24.4029493232        5.4666028508  WZ3       326             0.0000000000
     11490      3830  TIP3      H2            -12.9094949752      -23.9922393232        4.6530628508  WZ3       326             0.0000000000
     11491      3831  TIP3      OH2            -5.6007749752      -32.0928193232       15.1785328508  WZ3       327             0.0000000000
     11492      3831  TIP3      H1             -4.9019849752      -32.0189493232       15.8285028508  WZ3       327             0.0000000000
     11493      3831  TIP3      H2             -5.9816349752      -32.9573193232       15.3328228508  WZ3       327             0.0000000000
     11494      3832  TIP3      OH2            -4.8162849752      -32.4406493232        6.2757628508  WZ3       328             0.0000000000
     11495      3832  TIP3      H1             -4.5964549752      -31.9691093232        5.4723028508  WZ3       328             0.0000000000
     11496      3832  TIP3      H2             -4.2578849752      -32.0463893232        6.9458228508  WZ3       328             0.0000000000
     11497      3833  TIP3      OH2            -7.1476749752      -20.3101693232        5.1385128508  WZ3       329             0.0000000000
     11498      3833  TIP3      H1             -7.9640649752      -19.8131993232        5.1909428508  WZ3       329             0.0000000000
     11499      3833  TIP3      H2             -6.6180449752      -19.8348193232        4.4983928508  WZ3       329             0.0000000000
     11500      3834  TIP3      OH2            -7.6162949752      -30.7127693232        7.1106028508  WZ3       330             0.0000000000
     11501      3834  TIP3      H1             -6.8040349752      -30.2084493232        7.1567728508  WZ3       330             0.0000000000
     11502      3834  TIP3      H2             -7.8609949752      -30.8577993232        8.0245628508  WZ3       330             0.0000000000
     11503      3835  TIP3      OH2            -7.0806549752      -29.7264993232       16.2952628508  WZ3       331             0.0000000000
     11504      3835  TIP3      H1             -6.9616249752      -29.1529593232       17.0523028508  WZ3       331             0.0000000000
     11505      3835  TIP3      H2             -6.4251949752      -30.4145593232       16.4100428508  WZ3       331             0.0000000000
     11506      3836  TIP3      OH2            -9.8093649752      -19.2664493232        5.1202028508  WZ3       333             0.0000000000
     11507      3836  TIP3      H1             -9.6484949752      -18.4666993232        4.6194628508  WZ3       333             0.0000000000
     11508      3836  TIP3      H2            -10.0065849752      -18.9598493232        6.0052628508  WZ3       333             0.0000000000
     11509      3837  TIP3      OH2           -11.0749249752      -32.5685293232        4.7359628508  WZ3       334             0.0000000000
     11510      3837  TIP3      H1            -11.1584449752      -31.6802193232        5.0826028508  WZ3       334             0.0000000000
     11511      3837  TIP3      H2            -10.1848949752      -32.8338593232        4.9676428508  WZ3       334             0.0000000000
     11512      3838  TIP3      OH2            -0.8760749752      -31.8194693232       17.1302328508  WZ3       335             0.0000000000
     11513      3838  TIP3      H1             -1.7924949752      -31.5572993232       17.0426028508  WZ3       335             0.0000000000
     11514      3838  TIP3      H2             -0.5405749752      -31.8225693232       16.2337628508  WZ3       335             0.0000000000
     11515      3839  TIP3      OH2            -2.2739749752      -28.0693693232       11.2259628508  WZ3       336             0.0000000000
     11516      3839  TIP3      H1             -3.0715349752      -28.4843493232       10.8974628508  WZ3       336             0.0000000000
     11517      3839  TIP3      H2             -1.8288649752      -28.7599993232       11.7170128508  WZ3       336             0.0000000000
     11518      3840  TIP3      OH2           -12.8163949752      -22.1413093232        3.7964128508  WZ3       337             0.0000000000
     11519      3840  TIP3      H1            -12.2242449752      -21.4418293232        4.0726528508  WZ3       337             0.0000000000
     11520      3840  TIP3      H2            -12.3570949752      -22.5743593232        3.0768728508  WZ3       337             0.0000000000
     11521      3841  TIP3      OH2           -14.5004749752      -29.4770093232        2.9123528508  WZ3       338             0.0000000000
     11522      3841  TIP3      H1            -14.5452149752      -28.5376993232        3.0910528508  WZ3       338             0.0000000000
     11523      3841  TIP3      H2            -15.3881549752      -29.7125193232        2.6425628508  WZ3       338             0.0000000000
     11524      3842  TIP3      OH2            -1.1875149752      -18.8131193232       12.8483128508  WZ3       339             0.0000000000
     11525      3842  TIP3      H1             -1.3430849752      -18.1346793232       12.1912428508  WZ3       339             0.0000000000
     11526      3842  TIP3      H2             -0.2548749752      -18.7411893232       13.0513728508  WZ3       339             0.0000000000
     11527      3843  TIP3      OH2           -14.7619449752      -20.7546393232        7.7460328508  WZ3       341             0.0000000000
     11528      3843  TIP3      H1            -15.5940849752      -20.2823693232        7.7731728508  WZ3       341             0.0000000000
     11529      3843  TIP3      H2            -14.2161149752      -20.2448793232        7.1473428508  WZ3       341             0.0000000000
     11530      3844  TIP3      OH2           -15.4735749752      -18.1422693232       19.0758328508  WZ3       342             0.0000000000
     11531      3844  TIP3      H1            -14.9333549752      -18.3588693232       19.8357528508  WZ3       342             0.0000000000
     11532      3844  TIP3      H2            -15.9547749752      -18.9476693232       18.8860828508  WZ3       342             0.0000000000
     11533      3845  TIP3      OH2           -10.8762349752      -19.2228293232       20.6962528508  WZ3       343             0.0000000000
     11534      3845  TIP3      H1            -10.1085149752      -19.6817493232       21.0371728508  WZ3       343             0.0000000000
     11535      3845  TIP3      H2            -10.8976149752      -19.4488493232       19.7663728508  WZ3       343             0.0000000000
     11536      3846  TIP3      OH2            -6.7842749752      -19.7147693232        2.0714328508  WZ3       344             0.0000000000
     11537      3846  TIP3      H1             -7.4281749752      -20.3459093232        2.3928028508  WZ3       344             0.0000000000
     11538      3846  TIP3      H2             -6.0224449752      -20.2459693232        1.8397828508  WZ3       344             0.0000000000
     11539      3847  TIP3      OH2            -4.2993649752      -20.8427193232       19.4254028508  WZ3       345             0.0000000000
     11540      3847  TIP3      H1             -4.6504149752      -21.6994193232       19.6684428508  WZ3       345             0.0000000000
     11541      3847  TIP3      H2             -3.5730449752      -20.7000493232       20.0323028508  WZ3       345             0.0000000000
     11542      3848  TIP3      OH2            -2.1799849752      -19.8977793232        2.3052328508  WZ3       346             0.0000000000
     11543      3848  TIP3      H1             -1.8969449752      -20.6922593232        2.7579228508  WZ3       346             0.0000000000
     11544      3848  TIP3      H2             -1.4401949752      -19.6646793232        1.7443428508  WZ3       346             0.0000000000
     11545      3849  TIP3      OH2           -15.5666249752      -24.3318593232       20.0302628508  WZ3       347             0.0000000000
     11546      3849  TIP3      H1            -15.4225749752      -25.2337893232       19.7439328508  WZ3       347             0.0000000000
     11547      3849  TIP3      H2            -16.3388849752      -24.0456493232       19.5424928508  WZ3       347             0.0000000000
     11548      3850  TIP3      OH2           -11.2252549752      -23.9882893232        2.1627228508  WZ3       348             0.0000000000
     11549      3850  TIP3      H1            -11.1608449752      -24.7823293232        2.6933628508  WZ3       348             0.0000000000
     11550      3850  TIP3      H2            -10.5723349752      -24.1070093232        1.4729228508  WZ3       348             0.0000000000
     11551      3851  TIP3      OH2            -8.9110149752      -24.3620493232       19.4629028508  WZ3       349             0.0000000000
     11552      3851  TIP3      H1             -9.2396349752      -24.0912393232       18.6056428508  WZ3       349             0.0000000000
     11553      3851  TIP3      H2             -8.7591949752      -25.3030693232       19.3754028508  WZ3       349             0.0000000000
     11554      3852  TIP3      OH2            -5.8729149752      -22.9411193232        1.8985228508  WZ3       350             0.0000000000
     11555      3852  TIP3      H1             -6.1415049752      -22.7609093232        2.7994128508  WZ3       350             0.0000000000
     11556      3852  TIP3      H2             -6.0793549752      -23.8664993232        1.7671028508  WZ3       350             0.0000000000
     11557      3853  TIP3      OH2            -3.1764949752      -24.4463193232       16.8461328508  WZ3       351             0.0000000000
     11558      3853  TIP3      H1             -2.4310149752      -23.8579493232       16.7265328508  WZ3       351             0.0000000000
     11559      3853  TIP3      H2             -3.9338149752      -23.8643493232       16.9094428508  WZ3       351             0.0000000000
     11560      3854  TIP3      OH2           -14.7339749752      -27.1315293232       19.4501928508  WZ3       352             0.0000000000
     11561      3854  TIP3      H1            -14.3258549752      -27.9888693232       19.3292528508  WZ3       352             0.0000000000
     11562      3854  TIP3      H2            -14.9942149752      -27.1173993232       20.3712228508  WZ3       352             0.0000000000
     11563      3855  TIP3      OH2           -10.0758749752      -26.0156693232        4.4685228508  WZ3       353             0.0000000000
     11564      3855  TIP3      H1            -10.5356749752      -26.4998393232        5.1543728508  WZ3       353             0.0000000000
     11565      3855  TIP3      H2             -9.8210049752      -26.6841293232        3.8325728508  WZ3       353             0.0000000000
     11566      3856  TIP3      OH2           -10.7869449752      -28.1229593232       16.8244828508  WZ3       354             0.0000000000
     11567      3856  TIP3      H1            -11.4053349752      -27.4482993232       17.1049528508  WZ3       354             0.0000000000
     11568      3856  TIP3      H2            -10.4428249752      -27.8015693232       15.9911028508  WZ3       354             0.0000000000
     11569      3857  TIP3      OH2            -9.0048349752      -27.7724893232        2.7308428508  WZ3       355             0.0000000000
     11570      3857  TIP3      H1             -9.1853349752      -27.9273693232        1.8036728508  WZ3       355             0.0000000000
     11571      3857  TIP3      H2             -8.0547849752      -27.6646193232        2.7756328508  WZ3       355             0.0000000000
     11572      3858  TIP3      OH2            -5.7671249752      -25.6514293232       20.1019628508  WZ3       356             0.0000000000
     11573      3858  TIP3      H1             -4.8140049752      -25.5675193232       20.0745628508  WZ3       356             0.0000000000
     11574      3858  TIP3      H2             -5.9276649752      -26.3632493232       20.7214528508  WZ3       356             0.0000000000
     11575      3859  TIP3      OH2             0.3849950248      -25.4180693232        2.1766528508  WZ3       357             0.0000000000
     11576      3859  TIP3      H1              0.1114750248      -25.8425193232        1.3634828508  WZ3       357             0.0000000000
     11577      3859  TIP3      H2              0.4244050248      -24.4866193232        1.9596928508  WZ3       357             0.0000000000
     11578      3860  TIP3      OH2           -10.4475749752      -30.7678793232       17.9067928508  WZ3       358             0.0000000000
     11579      3860  TIP3      H1            -10.2974849752      -31.4967493232       17.3047628508  WZ3       358             0.0000000000
     11580      3860  TIP3      H2            -10.4453349752      -29.9907093232       17.3480128508  WZ3       358             0.0000000000
     11581      3861  TIP3      OH2           -10.0350049752      -32.3982993232       15.3995328508  WZ3       359             0.0000000000
     11582      3861  TIP3      H1             -9.4992549752      -31.9466293232       14.7474628508  WZ3       359             0.0000000000
     11583      3861  TIP3      H2            -10.8870449752      -32.5063193232       14.9769428508  WZ3       359             0.0000000000
     11584      3862  TIP3      OH2            -8.4531649752      -26.9586793232       15.6390528508  WZ3       360             0.0000000000
     11585      3862  TIP3      H1             -7.7026849752      -27.1149293232       15.0658328508  WZ3       360             0.0000000000
     11586      3862  TIP3      H2             -8.7923349752      -26.1070193232       15.3636028508  WZ3       360             0.0000000000
     11587      3863  TIP3      OH2            -4.0375449752      -29.1434993232       20.6675828508  WZ3       361             0.0000000000
     11588      3863  TIP3      H1             -3.8454149752      -30.0745593232       20.5560328508  WZ3       361             0.0000000000
     11589      3863  TIP3      H2             -3.1799149752      -28.7185493232       20.6571228508  WZ3       361             0.0000000000
     11590      3864  TIP3      OH2            -2.7208249752      -26.3549793232       18.7448528508  WZ3       362             0.0000000000
     11591      3864  TIP3      H1             -3.0023249752      -25.6455193232       18.1672328508  WZ3       362             0.0000000000
     11592      3864  TIP3      H2             -1.7783949752      -26.4276793232       18.5939728508  WZ3       362             0.0000000000
     11593      3865  TIP3      OH2           -11.9689449752      -29.5695293232       19.8183528508  WZ3       363             0.0000000000
     11594      3865  TIP3      H1            -12.7360449752      -30.1020493232       19.6081128508  WZ3       363             0.0000000000
     11595      3865  TIP3      H2            -11.2900449752      -29.8794893232       19.2189828508  WZ3       363             0.0000000000
     11596      3866  TIP3      OH2            -7.9654049752      -30.6201893232       19.3947328508  WZ3       365             0.0000000000
     11597      3866  TIP3      H1             -8.2008649752      -30.8395193232       20.2962228508  WZ3       365             0.0000000000
     11598      3866  TIP3      H2             -8.7487149752      -30.8270693232       18.8849828508  WZ3       365             0.0000000000
     11599      3867  TIP3      OH2            -5.2497449752      -31.4928393232       18.4700828508  WZ3       366             0.0000000000
     11600      3867  TIP3      H1             -6.1972049752      -31.4608693232       18.6024128508  WZ3       366             0.0000000000
     11601      3867  TIP3      H2             -4.9370749752      -32.1181293232       19.1239028508  WZ3       366             0.0000000000
     11602      3868  TIP3      OH2            -9.1076649752      -17.0821193232        3.7322028508  WZ3       371             0.0000000000
     11603      3868  TIP3      H1             -8.1745949752      -16.9242493232        3.8760428508  WZ3       371             0.0000000000
     11604      3868  TIP3      H2             -9.3717849752      -16.4068193232        3.1073528508  WZ3       371             0.0000000000
     11605      3869  TIP3      OH2           -15.5391749752      -22.4457393232        3.2150128508  WZ3       372             0.0000000000
     11606      3869  TIP3      H1            -14.6252549752      -22.3668493232        3.4884028508  WZ3       372             0.0000000000
     11607      3869  TIP3      H2            -15.5318649752      -23.1327793232        2.5485728508  WZ3       372             0.0000000000
     11608      3870  TIP3      OH2           -16.8901149752      -17.0528893232        8.2924028508  WZ3       373             0.0000000000
     11609      3870  TIP3      H1            -17.5374049752      -17.5147193232        7.7595228508  WZ3       373             0.0000000000
     11610      3870  TIP3      H2            -16.5356549752      -17.7245593232        8.8750228508  WZ3       373             0.0000000000
     11611      3871  TIP3      OH2           -16.0201949752      -18.9721893232       10.0970228508  WZ3       374             0.0000000000
     11612      3871  TIP3      H1            -16.3545149752      -19.8524593232       10.2690428508  WZ3       374             0.0000000000
     11613      3871  TIP3      H2            -15.7979549752      -18.6266893232       10.9615828508  WZ3       374             0.0000000000
     11614      3872  TIP3      OH2             1.5282850248      -18.1625493232       13.0775028508  WZ3       375             0.0000000000
     11615      3872  TIP3      H1              1.5069550248      -17.9777093232       14.0164428508  WZ3       375             0.0000000000
     11616      3872  TIP3      H2              2.2189050248      -17.5941493232       12.7366428508  WZ3       375             0.0000000000
     11617      3873  TIP3      OH2             1.0915750248      -18.5954393232       15.9994128508  WZ3       376             0.0000000000
     11618      3873  TIP3      H1              0.6044450248      -19.3310293232       15.6281528508  WZ3       376             0.0000000000
     11619      3873  TIP3      H2              1.6408450248      -18.9890493232       16.6773528508  WZ3       376             0.0000000000
     11620      3874  TIP3      OH2            -0.4576949752      -22.8056293232       20.6374428508  WZ3       377             0.0000000000
     11621      3874  TIP3      H1             -1.3235849752      -22.9106593232       21.0316728508  WZ3       377             0.0000000000
     11622      3874  TIP3      H2             -0.0811049752      -22.0472993232       21.0839128508  WZ3       377             0.0000000000
     11623      3875  TIP3      OH2             0.8432750248      -24.5492593232        6.1516928508  WZ3       378             0.0000000000
     11624      3875  TIP3      H1              1.6934150248      -24.1281693232        6.2788528508  WZ3       378             0.0000000000
     11625      3875  TIP3      H2              0.8487850248      -25.2892493232        6.7588328508  WZ3       378             0.0000000000
     11626      3876  TIP3      OH2             1.2378350248      -26.4955193232        7.9752628508  WZ3       379             0.0000000000
     11627      3876  TIP3      H1              0.5112950248      -26.9752593232        8.3730228508  WZ3       379             0.0000000000
     11628      3876  TIP3      H2              1.8191650248      -26.2900493232        8.7074228508  WZ3       379             0.0000000000
     11629      3877  TIP3      OH2             0.9969550248      -23.7107693232       12.9230228508  WZ3       380             0.0000000000
     11630      3877  TIP3      H1              1.8303750248      -24.0887693232       12.6423828508  WZ3       380             0.0000000000
     11631      3877  TIP3      H2              1.1089850248      -22.7676493232       12.8039328508  WZ3       380             0.0000000000
     11632      3878  TIP3      OH2            -0.5168149752      -20.8330193232       15.2298628508  WZ3       381             0.0000000000
     11633      3878  TIP3      H1             -1.1642849752      -20.5078693232       15.8553828508  WZ3       381             0.0000000000
     11634      3878  TIP3      H2             -1.0344149752      -21.2732493232       14.5556928508  WZ3       381             0.0000000000
     11635      3879  TIP3      OH2             1.5061450248      -26.5946693232        4.3663928508  WZ3       382             0.0000000000
     11636      3879  TIP3      H1              0.9842550248      -26.2382593232        3.6474828508  WZ3       382             0.0000000000
     11637      3879  TIP3      H2              1.4730650248      -25.9198893232        5.0444828508  WZ3       382             0.0000000000
     11638      3880  TIP3      OH2            -0.1449549752      -29.3551093232        2.9171028508  WZ3       383             0.0000000000
     11639      3880  TIP3      H1             -0.0485149752      -28.6884093232        2.2370728508  WZ3       383             0.0000000000
     11640      3880  TIP3      H2             -0.2849949752      -30.1704793232        2.4356528508  WZ3       383             0.0000000000
     11641      3881  TIP3      OH2            -0.9754849752      -27.9748693232        8.5381328508  WZ3       384             0.0000000000
     11642      3881  TIP3      H1             -1.1256049752      -28.9200093232        8.5179128508  WZ3       384             0.0000000000
     11643      3881  TIP3      H2             -1.3290349752      -27.6937293232        9.3820428508  WZ3       384             0.0000000000
     11644      3882  TIP3      OH2           -15.9402449752      -25.8966493232       12.5485128508  WZ3       385             0.0000000000
     11645      3882  TIP3      H1            -15.7559549752      -25.9784793232       11.6128028508  WZ3       385             0.0000000000
     11646      3882  TIP3      H2            -15.0909549752      -26.0209493232       12.9721528508  WZ3       385             0.0000000000
     11647      3883  TIP3      OH2            -0.1191949752      -26.0045393232       18.1769628508  WZ3       386             0.0000000000
     11648      3883  TIP3      H1              0.4635350248      -26.7393093232       18.3686828508  WZ3       386             0.0000000000
     11649      3883  TIP3      H2              0.4447350248      -25.2325093232       18.2235428508  WZ3       386             0.0000000000
     11650      3884  TIP3      OH2             1.3775150248      -28.1019593232       18.8615028508  WZ3       387             0.0000000000
     11651      3884  TIP3      H1              0.5141850248      -28.4807493232       18.6959728508  WZ3       387             0.0000000000
     11652      3884  TIP3      H2              1.9818850248      -28.8404793232       18.7870828508  WZ3       387             0.0000000000
     11653      3885  TIP3      OH2            -0.8975749752      -31.9471293232        2.0346528508  WZ3       388             0.0000000000
     11654      3885  TIP3      H1             -0.2869949752      -32.3184493232        2.6714728508  WZ3       388             0.0000000000
     11655      3885  TIP3      H2             -1.7344249752      -32.3684393232        2.2306528508  WZ3       388             0.0000000000
     11656      3886  TIP3      OH2            -1.2650049752      -30.3922893232        7.0006428508  WZ3       389             0.0000000000
     11657      3886  TIP3      H1             -0.9852949752      -31.2992493232        7.1248128508  WZ3       389             0.0000000000
     11658      3886  TIP3      H2             -0.5058349752      -29.9581393232        6.6115628508  WZ3       389             0.0000000000
     11659      3887  TIP3      OH2            -0.6531749752      -29.8105493232       12.4365328508  WZ3       390             0.0000000000
     11660      3887  TIP3      H1              0.2796250248      -29.5985593232       12.4021328508  WZ3       390             0.0000000000
     11661      3887  TIP3      H2             -0.8884249752      -29.7093393232       13.3588328508  WZ3       390             0.0000000000
     11662      3888  TIP3      OH2            -0.6239849752      -29.0740193232       15.2124728508  WZ3       391             0.0000000000
     11663      3888  TIP3      H1             -1.4668549752      -28.8059793232       15.5784528508  WZ3       391             0.0000000000
     11664      3888  TIP3      H2             -0.1815549752      -28.2518293232       15.0015828508  WZ3       391             0.0000000000
     11665      3889  TIP3      OH2           -15.1215149752      -32.3139893232       11.5806828508  WZ3       395             0.0000000000
     11666      3889  TIP3      H1            -14.6763549752      -33.1057393232       11.8826528508  WZ3       395             0.0000000000
     11667      3889  TIP3      H2            -14.6552149752      -31.5974693232       12.0112428508  WZ3       395             0.0000000000
     11668      3890  TIP3      OH2           -16.8174849752      -29.3146893232       12.6497028508  WZ3       396             0.0000000000
     11669      3890  TIP3      H1            -16.3255049752      -29.5356393232       11.8589028508  WZ3       396             0.0000000000
     11670      3890  TIP3      H2            -16.4553949752      -28.4743493232       12.9306528508  WZ3       396             0.0000000000
     11671      3891  TIP3      OH2            -1.7331149752      -18.0726093232        8.6496828508  WZ3       400             0.0000000000
     11672      3891  TIP3      H1             -1.0808249752      -18.4203993232        8.0415928508  WZ3       400             0.0000000000
     11673      3891  TIP3      H2             -1.2227349752      -17.5842893232        9.2956528508  WZ3       400             0.0000000000
     11674      3892  TIP3      OH2           -14.3483649752      -21.1434693232       19.1927728508  WZ3       402             0.0000000000
     11675      3892  TIP3      H1            -15.1691149752      -20.9688193232       18.7322428508  WZ3       402             0.0000000000
     11676      3892  TIP3      H2            -14.6005849752      -21.2169993232       20.1132128508  WZ3       402             0.0000000000
     11677      3893  TIP3      OH2           -11.3940749752      -20.1693493232       15.4511728508  WZ3       403             0.0000000000
     11678      3893  TIP3      H1            -11.8189649752      -19.3594993232       15.1686328508  WZ3       403             0.0000000000
     11679      3893  TIP3      H2            -10.4897949752      -20.0839393232       15.1491528508  WZ3       403             0.0000000000
     11680      3894  TIP3      OH2            -7.0829349752      -18.7703493232       18.4105428508  WZ3       404             0.0000000000
     11681      3894  TIP3      H1             -6.8981849752      -19.1037393232       19.2885728508  WZ3       404             0.0000000000
     11682      3894  TIP3      H2             -6.2364849752      -18.4604893232       18.0884628508  WZ3       404             0.0000000000
     11683      3895  TIP3      OH2            -4.7378949752      -17.4844593232       17.6546828508  WZ3       405             0.0000000000
     11684      3895  TIP3      H1             -4.0610049752      -18.1172293232       17.4146028508  WZ3       405             0.0000000000
     11685      3895  TIP3      H2             -4.4160149752      -17.0834093232       18.4620128508  WZ3       405             0.0000000000
     11686      3896  TIP3      OH2           -13.9924049752      -16.9129593232       15.4987028508  WZ3       407             0.0000000000
     11687      3896  TIP3      H1            -14.7127649752      -16.4728593232       15.0474728508  WZ3       407             0.0000000000
     11688      3896  TIP3      H2            -14.3580049752      -17.1634893232       16.3471028508  WZ3       407             0.0000000000
     11689      3897  TIP3      OH2           -11.5251449752      -17.3125693232       14.5284228508  WZ3       408             0.0000000000
     11690      3897  TIP3      H1            -12.3899249752      -17.2407193232       14.9324328508  WZ3       408             0.0000000000
     11691      3897  TIP3      H2            -11.5802449752      -16.7658393232       13.7446728508  WZ3       408             0.0000000000
     11692      3898  TIP3      OH2            -6.8145849752      -17.4246793232       13.7040228508  WZ3       409             0.0000000000
     11693      3898  TIP3      H1             -7.2711849752      -16.8957093232       13.0498628508  WZ3       409             0.0000000000
     11694      3898  TIP3      H2             -6.6517849752      -16.8215393232       14.4292528508  WZ3       409             0.0000000000
     11695      3899  TIP3      OH2            -4.4869549752      -18.5467193232       14.6490528508  WZ3       410             0.0000000000
     11696      3899  TIP3      H1             -5.3915849752      -18.3816993232       14.3832628508  WZ3       410             0.0000000000
     11697      3899  TIP3      H2             -4.0580949752      -17.6934993232       14.5833928508  WZ3       410             0.0000000000
     11698      3900  TIP3      OH2            -1.8827649752      -16.9768093232       14.9438328508  WZ3       411             0.0000000000
     11699      3900  TIP3      H1             -2.0645649752      -16.0609193232       14.7333228508  WZ3       411             0.0000000000
     11700      3900  TIP3      H2             -1.7059849752      -17.3870993232       14.0972928508  WZ3       411             0.0000000000
     11701      3901  TIP3      OH2           -14.5775949752      -18.2897093232       12.4088828508  WZ3       412             0.0000000000
     11702      3901  TIP3      H1            -14.5959949752      -18.7151993232       13.2661128508  WZ3       412             0.0000000000
     11703      3901  TIP3      H2            -13.7728049752      -18.6082093232       12.0001028508  WZ3       412             0.0000000000
     11704      3902  TIP3      OH2           -12.4362849752      -19.5798393232       11.0638728508  WZ3       413             0.0000000000
     11705      3902  TIP3      H1            -12.6552149752      -20.4960993232       11.2334728508  WZ3       413             0.0000000000
     11706      3902  TIP3      H2            -11.6120649752      -19.4397993232       11.5300128508  WZ3       413             0.0000000000
     11707      3903  TIP3      OH2            -9.8990349752      -19.1099093232       11.9126728508  WZ3       414             0.0000000000
     11708      3903  TIP3      H1             -9.6864649752      -19.9980093232       11.6257628508  WZ3       414             0.0000000000
     11709      3903  TIP3      H2             -9.8345249752      -19.1441393232       12.8670728508  WZ3       414             0.0000000000
     11710      3904  TIP3      OH2           -15.3266249752      -19.0657893232        5.5801128508  WZ3       423             0.0000000000
     11711      3904  TIP3      H1            -16.0116349752      -19.1038993232        4.9126228508  WZ3       423             0.0000000000
     11712      3904  TIP3      H2            -15.3229049752      -18.1530293232        5.8683228508  WZ3       423             0.0000000000
     11713      3905  TIP3      OH2            -6.4622749752      -17.8562993232        3.9777328508  WZ3       426             0.0000000000
     11714      3905  TIP3      H1             -5.5962549752      -17.4895593232        3.7995528508  WZ3       426             0.0000000000
     11715      3905  TIP3      H2             -6.7089949752      -18.2954993232        3.1638128508  WZ3       426             0.0000000000
     11716      3906  TIP3      OH2             0.2466850248      -18.2932693232        6.6568428508  WZ3       427             0.0000000000
     11717      3906  TIP3      H1              0.0523950248      -19.0410593232        6.0918028508  WZ3       427             0.0000000000
     11718      3906  TIP3      H2              0.2076950248      -17.5352593232        6.0736328508  WZ3       427             0.0000000000
     11719      3907  TIP3      OH2           -13.5085049752      -18.1457093232        2.6053228508  WZ3       430             0.0000000000
     11720      3907  TIP3      H1            -13.7760449752      -17.8594193232        3.4786328508  WZ3       430             0.0000000000
     11721      3907  TIP3      H2            -12.7372449752      -18.6917893232        2.7575728508  WZ3       430             0.0000000000
     11722      3908  TIP3      OH2            -0.5356949752      -19.5420293232       18.8070228508  WZ3       432             0.0000000000
     11723      3908  TIP3      H1             -1.3175049752      -19.7282293232       18.2870828508  WZ3       432             0.0000000000
     11724      3908  TIP3      H2             -0.6077049752      -18.6125993232       19.0242728508  WZ3       432             0.0000000000
     11725      3909  TIP3      OH2            13.8703450248      -25.6555893232        8.8377428508  WZ3       433             0.0000000000
     11726      3909  TIP3      H1             13.9594550248      -24.7117693232        8.7054528508  WZ3       433             0.0000000000
     11727      3909  TIP3      H2             13.2321050248      -25.9309493232        8.1796828508  WZ3       433             0.0000000000
     11728      3910  TIP3      OH2            12.8034750248      -26.4005193232       12.2565628508  WZ3       434             0.0000000000
     11729      3910  TIP3      H1             12.7652250248      -27.0468893232       12.9615228508  WZ3       434             0.0000000000
     11730      3910  TIP3      H2             12.4811250248      -26.8670793232       11.4854328508  WZ3       434             0.0000000000
     11731      3911  TIP3      OH2             5.1719750248      -26.7863093232       13.8495528508  WZ3       435             0.0000000000
     11732      3911  TIP3      H1              5.2131850248      -27.4119793232       14.5727928508  WZ3       435             0.0000000000
     11733      3911  TIP3      H2              5.8747450248      -26.1624493232       14.0315928508  WZ3       435             0.0000000000
     11734      3912  TIP3      OH2            16.5094950248      -23.4614793232       10.5580728508  WZ3       436             0.0000000000
     11735      3912  TIP3      H1             16.0687650248      -24.1818793232       11.0086328508  WZ3       436             0.0000000000
     11736      3912  TIP3      H2             16.4964650248      -22.7407593232       11.1878428508  WZ3       436             0.0000000000
     11737      3913  TIP3      OH2             6.0952850248      -22.3364193232       12.3844628508  WZ3       437             0.0000000000
     11738      3913  TIP3      H1              5.7258050248      -23.1383693232       12.0148928508  WZ3       437             0.0000000000
     11739      3913  TIP3      H2              7.0363950248      -22.5049293232       12.4308028508  WZ3       437             0.0000000000
     11740      3914  TIP3      OH2             2.7053350248      -28.6761593232        7.7773428508  WZ3       438             0.0000000000
     11741      3914  TIP3      H1              2.2576750248      -27.8302893232        7.7589928508  WZ3       438             0.0000000000
     11742      3914  TIP3      H2              2.1444550248      -29.2557393232        7.2618528508  WZ3       438             0.0000000000
     11743      3915  TIP3      OH2             3.4159450248      -26.5141993232        9.9031428508  WZ3       439             0.0000000000
     11744      3915  TIP3      H1              3.6292950248      -27.2840393232       10.4304428508  WZ3       439             0.0000000000
     11745      3915  TIP3      H2              4.1537050248      -26.4245293232        9.2999028508  WZ3       439             0.0000000000
     11746      3916  TIP3      OH2            13.6210450248      -18.3573093232       10.7701128508  WZ3       440             0.0000000000
     11747      3916  TIP3      H1             14.2406850248      -19.0338393232       10.4970328508  WZ3       440             0.0000000000
     11748      3916  TIP3      H2             13.4127850248      -18.5752293232       11.6786028508  WZ3       440             0.0000000000
     11749      3917  TIP3      OH2            11.1929150248      -23.9683793232       12.6626628508  WZ3       441             0.0000000000
     11750      3917  TIP3      H1             11.4967050248      -24.6542393232       12.0680728508  WZ3       441             0.0000000000
     11751      3917  TIP3      H2             11.9143150248      -23.8495093232       13.2804628508  WZ3       441             0.0000000000
     11752      3918  TIP3      OH2            19.8558950248      -32.3668493232       13.5232828508  WZ3       442             0.0000000000
     11753      3918  TIP3      H1             19.9051150248      -31.7567293232       14.2591928508  WZ3       442             0.0000000000
     11754      3918  TIP3      H2             20.2814050248      -31.9057593232       12.8003928508  WZ3       442             0.0000000000
     11755      3919  TIP3      OH2            14.3336150248      -29.5741393232       12.9901428508  WZ3       443             0.0000000000
     11756      3919  TIP3      H1             14.4762050248      -30.5204393232       13.0103028508  WZ3       443             0.0000000000
     11757      3919  TIP3      H2             14.2275150248      -29.3671593232       12.0616328508  WZ3       443             0.0000000000
     11758      3920  TIP3      OH2             7.4884450248      -31.4724993232       10.2626228508  WZ3       444             0.0000000000
     11759      3920  TIP3      H1              7.5315550248      -30.6126493232        9.8442528508  WZ3       444             0.0000000000
     11760      3920  TIP3      H2              7.0308550248      -32.0250293232        9.6289428508  WZ3       444             0.0000000000
     11761      3921  TIP3      OH2            15.2107150248      -31.3419393232        8.6634528508  WZ3       445             0.0000000000
     11762      3921  TIP3      H1             15.8571450248      -31.6706193232        9.2882128508  WZ3       445             0.0000000000
     11763      3921  TIP3      H2             15.7206550248      -30.8240393232        8.0405928508  WZ3       445             0.0000000000
     11764      3922  TIP3      OH2             4.1085950248      -29.0759193232       11.0247628508  WZ3       446             0.0000000000
     11765      3922  TIP3      H1              4.7622550248      -29.6257493232       11.4567728508  WZ3       446             0.0000000000
     11766      3922  TIP3      H2              4.1325250248      -29.3500193232       10.1079628508  WZ3       446             0.0000000000
     11767      3923  TIP3      OH2             9.2650450248      -27.5257893232       10.2399128508  WZ3       447             0.0000000000
     11768      3923  TIP3      H1              9.8811450248      -28.0522493232       10.7493128508  WZ3       447             0.0000000000
     11769      3923  TIP3      H2              8.6789250248      -28.1659193232        9.8362728508  WZ3       447             0.0000000000
     11770      3924  TIP3      OH2            20.2473550248      -30.8889293232       15.7592628508  WZ3       448             0.0000000000
     11771      3924  TIP3      H1             19.5588150248      -30.2308593232       15.6639228508  WZ3       448             0.0000000000
     11772      3924  TIP3      H2             20.2628150248      -31.0861393232       16.6958028508  WZ3       448             0.0000000000
     11773      3925  TIP3      OH2             6.2986350248      -32.5546593232       14.3367028508  WZ3       449             0.0000000000
     11774      3925  TIP3      H1              6.0798050248      -32.0245993232       13.5703028508  WZ3       449             0.0000000000
     11775      3925  TIP3      H2              5.6307250248      -32.3281093232       14.9838428508  WZ3       449             0.0000000000
     11776      3926  TIP3      OH2            13.6676150248      -23.0545493232        7.8806128508  WZ3       450             0.0000000000
     11777      3926  TIP3      H1             13.3721250248      -23.3773193232        7.0293028508  WZ3       450             0.0000000000
     11778      3926  TIP3      H2             13.3433950248      -22.1548793232        7.9218728508  WZ3       450             0.0000000000
     11779      3927  TIP3      OH2             8.8677750248      -24.8790893232       14.6240728508  WZ3       451             0.0000000000
     11780      3927  TIP3      H1              8.1276850248      -24.2809393232       14.7275928508  WZ3       451             0.0000000000
     11781      3927  TIP3      H2              9.5817250248      -24.3251293232       14.3084328508  WZ3       451             0.0000000000
     11782      3928  TIP3      OH2            16.9745550248      -32.0510093232       10.6440428508  WZ3       452             0.0000000000
     11783      3928  TIP3      H1             16.7593550248      -32.8166693232       11.1766428508  WZ3       452             0.0000000000
     11784      3928  TIP3      H2             17.6302950248      -31.5785493232       11.1568928508  WZ3       452             0.0000000000
     11785      3929  TIP3      OH2             5.8923650248      -30.6624793232       12.2889228508  WZ3       453             0.0000000000
     11786      3929  TIP3      H1              6.5059950248      -30.0297193232       12.6621628508  WZ3       453             0.0000000000
     11787      3929  TIP3      H2              6.4044350248      -31.1349793232       11.6326128508  WZ3       453             0.0000000000
     11788      3930  TIP3      OH2             7.2752050248      -22.9147893232       15.4112228508  WZ3       454             0.0000000000
     11789      3930  TIP3      H1              7.2699650248      -22.0354393232       15.0331528508  WZ3       454             0.0000000000
     11790      3930  TIP3      H2              6.4216150248      -22.9983793232       15.8362128508  WZ3       454             0.0000000000
     11791      3931  TIP3      OH2             3.3962950248      -23.2439993232        6.1931528508  WZ3       455             0.0000000000
     11792      3931  TIP3      H1              3.1243850248      -23.0148993232        5.3044428508  WZ3       455             0.0000000000
     11793      3931  TIP3      H2              3.4418650248      -22.4061193232        6.6536828508  WZ3       455             0.0000000000
     11794      3932  TIP3      OH2            17.0212650248      -21.6224093232       12.9060028508  WZ3       456             0.0000000000
     11795      3932  TIP3      H1             16.0796350248      -21.5640193232       13.0676928508  WZ3       456             0.0000000000
     11796      3932  TIP3      H2             17.2978750248      -20.7163593232       12.7689728508  WZ3       456             0.0000000000
     11797      3933  TIP3      OH2            15.2733850248      -19.8410593232        9.5311628508  WZ3       459             0.0000000000
     11798      3933  TIP3      H1             15.6986150248      -20.5482693232        9.0461228508  WZ3       459             0.0000000000
     11799      3933  TIP3      H2             15.5903850248      -19.0397893232        9.1143828508  WZ3       459             0.0000000000
     11800      3934  TIP3      OH2            16.4330350248      -21.9402093232        8.0398228508  WZ3       460             0.0000000000
     11801      3934  TIP3      H1             16.1755150248      -22.6301993232        7.4284128508  WZ3       460             0.0000000000
     11802      3934  TIP3      H2             16.5041150248      -22.3830893232        8.8854128508  WZ3       460             0.0000000000
     11803      3935  TIP3      OH2            18.1190550248      -23.3735393232       16.5171728508  WZ3       461             0.0000000000
     11804      3935  TIP3      H1             18.2586850248      -23.9652893232       15.7778728508  WZ3       461             0.0000000000
     11805      3935  TIP3      H2             18.2863350248      -22.5009493232       16.1610528508  WZ3       461             0.0000000000
     11806      3936  TIP3      OH2            12.5915950248      -26.4115893232        6.2897728508  WZ3       462             0.0000000000
     11807      3936  TIP3      H1             11.8801450248      -25.8766193232        5.9378228508  WZ3       462             0.0000000000
     11808      3936  TIP3      H2             13.2825550248      -26.3563793232        5.6296628508  WZ3       462             0.0000000000
     11809      3937  TIP3      OH2            12.6455150248      -27.9541593232        3.3282728508  WZ3       463             0.0000000000
     11810      3937  TIP3      H1             13.3465050248      -27.9314693232        3.9796728508  WZ3       463             0.0000000000
     11811      3937  TIP3      H2             12.9478050248      -28.5821893232        2.6722028508  WZ3       463             0.0000000000
     11812      3938  TIP3      OH2            19.9609850248      -27.0337393232       14.5832128508  WZ3       464             0.0000000000
     11813      3938  TIP3      H1             19.3083950248      -26.3391793232       14.6723028508  WZ3       464             0.0000000000
     11814      3938  TIP3      H2             20.4260150248      -26.8236493232       13.7733728508  WZ3       464             0.0000000000
     11815      3939  TIP3      OH2            15.9973650248      -26.2022593232        7.2413628508  WZ3       465             0.0000000000
     11816      3939  TIP3      H1             15.2654650248      -25.9738893232        7.8144228508  WZ3       465             0.0000000000
     11817      3939  TIP3      H2             16.4445850248      -26.9159893232        7.6961128508  WZ3       465             0.0000000000
     11818      3940  TIP3      OH2            15.8947150248      -28.0279993232       16.3090628508  WZ3       466             0.0000000000
     11819      3940  TIP3      H1             15.9746250248      -27.2645593232       16.8809128508  WZ3       466             0.0000000000
     11820      3940  TIP3      H2             15.2934850248      -27.7487593232       15.6185728508  WZ3       466             0.0000000000
     11821      3941  TIP3      OH2             7.6427350248      -25.5716393232        9.1238628508  WZ3       467             0.0000000000
     11822      3941  TIP3      H1              7.3122550248      -25.9422993232        8.3055628508  WZ3       467             0.0000000000
     11823      3941  TIP3      H2              8.2311450248      -26.2422393232        9.4706928508  WZ3       467             0.0000000000
     11824      3942  TIP3      OH2             9.0094850248      -22.1435793232       11.8050828508  WZ3       468             0.0000000000
     11825      3942  TIP3      H1              8.9146150248      -22.7222693232       11.0485428508  WZ3       468             0.0000000000
     11826      3942  TIP3      H2              9.7388450248      -22.5150093232       12.3013628508  WZ3       468             0.0000000000
     11827      3943  TIP3      OH2             8.0092850248      -26.8030793232       12.7573628508  WZ3       469             0.0000000000
     11828      3943  TIP3      H1              8.5745350248      -26.6816593232       11.9944828508  WZ3       469             0.0000000000
     11829      3943  TIP3      H2              8.3281750248      -26.1655793232       13.3962128508  WZ3       469             0.0000000000
     11830      3944  TIP3      OH2            14.3185050248      -21.2998893232       13.4914128508  WZ3       470             0.0000000000
     11831      3944  TIP3      H1             14.0781650248      -20.6375793232       14.1393328508  WZ3       470             0.0000000000
     11832      3944  TIP3      H2             14.1203250248      -22.1343693232       13.9163728508  WZ3       470             0.0000000000
     11833      3945  TIP3      OH2             8.8893550248      -22.4038093232       17.4745528508  WZ3       471             0.0000000000
     11834      3945  TIP3      H1              8.5781050248      -21.6214893232       17.9298728508  WZ3       471             0.0000000000
     11835      3945  TIP3      H2              8.2393750248      -22.5568993232       16.7887528508  WZ3       471             0.0000000000
     11836      3946  TIP3      OH2            14.8683150248      -27.0399693232        4.9264828508  WZ3       472             0.0000000000
     11837      3946  TIP3      H1             15.4478650248      -26.8899393232        5.6733728508  WZ3       472             0.0000000000
     11838      3946  TIP3      H2             15.2823150248      -26.5692293232        4.2031228508  WZ3       472             0.0000000000
     11839      3947  TIP3      OH2             5.8093450248      -26.2056993232       16.7031228508  WZ3       473             0.0000000000
     11840      3947  TIP3      H1              5.8796650248      -25.5550193232       17.4016228508  WZ3       473             0.0000000000
     11841      3947  TIP3      H2              4.9185650248      -26.1029493232       16.3682128508  WZ3       473             0.0000000000
     11842      3948  TIP3      OH2            12.5948050248      -20.3031193232        8.3617928508  WZ3       474             0.0000000000
     11843      3948  TIP3      H1             13.0685650248      -20.0074893232        9.1392128508  WZ3       474             0.0000000000
     11844      3948  TIP3      H2             12.0317350248      -19.5649593232        8.1287528508  WZ3       474             0.0000000000
     11845      3949  TIP3      OH2             7.1289450248      -20.3323093232       18.2379328508  WZ3       475             0.0000000000
     11846      3949  TIP3      H1              7.1364750248      -20.4683393232       17.2904828508  WZ3       475             0.0000000000
     11847      3949  TIP3      H2              6.2129850248      -20.4494993232       18.4899328508  WZ3       475             0.0000000000
     11848      3950  TIP3      OH2             6.6330050248      -26.5022093232        6.7131428508  WZ3       477             0.0000000000
     11849      3950  TIP3      H1              6.3411350248      -25.7340393232        6.2222728508  WZ3       477             0.0000000000
     11850      3950  TIP3      H2              5.9585250248      -27.1615893232        6.5502828508  WZ3       477             0.0000000000
     11851      3951  TIP3      OH2            19.7562950248      -20.9236893232        3.1158428508  WZ3       478             0.0000000000
     11852      3951  TIP3      H1             19.8296450248      -19.9846693232        3.2863728508  WZ3       478             0.0000000000
     11853      3951  TIP3      H2             20.6618050248      -21.2288293232        3.0595728508  WZ3       478             0.0000000000
     11854      3952  TIP3      OH2             2.7260150248      -24.1392893232       15.5281228508  WZ3       479             0.0000000000
     11855      3952  TIP3      H1              2.2248550248      -24.1673493232       14.7130928508  WZ3       479             0.0000000000
     11856      3952  TIP3      H2              2.7313850248      -25.0449693232       15.8378528508  WZ3       479             0.0000000000
     11857      3953  TIP3      OH2             2.4762850248      -21.3589093232       12.4121428508  WZ3       480             0.0000000000
     11858      3953  TIP3      H1              3.4223450248      -21.5032093232       12.3930928508  WZ3       480             0.0000000000
     11859      3953  TIP3      H2              2.3639150248      -20.5746293232       12.9492628508  WZ3       480             0.0000000000
     11860      3954  TIP3      OH2            20.6741350248      -20.6929393232       18.0945128508  WZ3       481             0.0000000000
     11861      3954  TIP3      H1             20.6248150248      -21.6481293232       18.0572728508  WZ3       481             0.0000000000
     11862      3954  TIP3      H2             19.8473650248      -20.4254093232       18.4958928508  WZ3       481             0.0000000000
     11863      3955  TIP3      OH2            11.6525350248      -21.1190193232       16.9706528508  WZ3       482             0.0000000000
     11864      3955  TIP3      H1             11.7399950248      -20.2925593232       17.4455628508  WZ3       482             0.0000000000
     11865      3955  TIP3      H2             10.7890450248      -21.4486393232       17.2195828508  WZ3       482             0.0000000000
     11866      3956  TIP3      OH2            12.0671150248      -17.3466493232        6.7767128508  WZ3       483             0.0000000000
     11867      3956  TIP3      H1             11.9917150248      -17.4679293232        5.8302328508  WZ3       483             0.0000000000
     11868      3956  TIP3      H2             12.0999850248      -16.3973793232        6.8951728508  WZ3       483             0.0000000000
     11869      3957  TIP3      OH2             5.7204950248      -18.5579493232        8.5576128508  WZ3       484             0.0000000000
     11870      3957  TIP3      H1              5.8725350248      -18.9059093232        9.4362628508  WZ3       484             0.0000000000
     11871      3957  TIP3      H2              4.8695350248      -18.9142193232        8.3023328508  WZ3       484             0.0000000000
     11872      3958  TIP3      OH2            15.1687150248      -18.1926293232        3.7789528508  WZ3       485             0.0000000000
     11873      3958  TIP3      H1             15.5435550248      -18.9370193232        3.3082128508  WZ3       485             0.0000000000
     11874      3958  TIP3      H2             15.1730850248      -18.4625693232        4.6972828508  WZ3       485             0.0000000000
     11875      3959  TIP3      OH2            14.8375250248      -18.2669193232        6.5281728508  WZ3       486             0.0000000000
     11876      3959  TIP3      H1             13.9025050248      -18.1667293232        6.7068728508  WZ3       486             0.0000000000
     11877      3959  TIP3      H2             15.1177150248      -18.9763193232        7.1064928508  WZ3       486             0.0000000000
     11878      3960  TIP3      OH2            17.8261150248      -29.1996893232       18.5747328508  WZ3       487             0.0000000000
     11879      3960  TIP3      H1             17.4187950248      -28.7191293232       17.8540628508  WZ3       487             0.0000000000
     11880      3960  TIP3      H2             17.8666850248      -30.1050893232       18.2668128508  WZ3       487             0.0000000000
     11881      3961  TIP3      OH2             4.9750650248      -22.8157493232       16.5714028508  WZ3       488             0.0000000000
     11882      3961  TIP3      H1              5.1911950248      -23.1771893232       17.4309828508  WZ3       488             0.0000000000
     11883      3961  TIP3      H2              4.1195350248      -23.1903693232       16.3617528508  WZ3       488             0.0000000000
     11884      3962  TIP3      OH2            15.5831350248      -30.8681393232       16.7949728508  WZ3       491             0.0000000000
     11885      3962  TIP3      H1             15.0690850248      -30.9939193232       17.5925728508  WZ3       491             0.0000000000
     11886      3962  TIP3      H2             15.4276050248      -29.9558293232       16.5505928508  WZ3       491             0.0000000000
     11887      3963  TIP3      OH2            16.3456250248      -26.0071393232        2.5562728508  WZ3       492             0.0000000000
     11888      3963  TIP3      H1             16.3877050248      -26.2297493232        1.6262728508  WZ3       492             0.0000000000
     11889      3963  TIP3      H2             17.1948350248      -25.6084293232        2.7462628508  WZ3       492             0.0000000000
     11890      3964  TIP3      OH2             7.6848750248      -29.3802493232       13.6618428508  WZ3       494             0.0000000000
     11891      3964  TIP3      H1              7.0430850248      -29.4205193232       14.3708528508  WZ3       494             0.0000000000
     11892      3964  TIP3      H2              7.7220750248      -28.4537793232       13.4241428508  WZ3       494             0.0000000000
     11893      3965  TIP3      OH2             7.6817850248      -29.1592393232        8.5738428508  WZ3       495             0.0000000000
     11894      3965  TIP3      H1              6.7890750248      -29.4996293232        8.5152228508  WZ3       495             0.0000000000
     11895      3965  TIP3      H2              8.1324450248      -29.5361493232        7.8181628508  WZ3       495             0.0000000000
     11896      3966  TIP3      OH2            13.2173350248      -28.7432093232        7.3909228508  WZ3       496             0.0000000000
     11897      3966  TIP3      H1             12.8083650248      -27.9283493232        7.0994028508  WZ3       496             0.0000000000
     11898      3966  TIP3      H2             13.9379550248      -28.8831993232        6.7766328508  WZ3       496             0.0000000000
     11899      3967  TIP3      OH2            12.3194950248      -28.5675693232       18.8789928508  WZ3       497             0.0000000000
     11900      3967  TIP3      H1             11.7568750248      -29.2724093232       19.1997728508  WZ3       497             0.0000000000
     11901      3967  TIP3      H2             13.1458350248      -28.6883793232       19.3467528508  WZ3       497             0.0000000000
     11902      3968  TIP3      OH2            14.2221050248      -29.2971693232       10.2048928508  WZ3       498             0.0000000000
     11903      3968  TIP3      H1             14.0265550248      -28.6914893232        9.4899528508  WZ3       498             0.0000000000
     11904      3968  TIP3      H2             14.4033650248      -30.1306493232        9.7705228508  WZ3       498             0.0000000000
     11905      3969  TIP3      OH2             5.4349250248      -29.0598993232       15.5290428508  WZ3       499             0.0000000000
     11906      3969  TIP3      H1              5.3968650248      -28.6597393232       16.3977528508  WZ3       499             0.0000000000
     11907      3969  TIP3      H2              4.9440350248      -29.8766593232       15.6193328508  WZ3       499             0.0000000000
     11908      3970  TIP3      OH2             8.8006650248      -31.6856693232        2.3276428508  WZ3       500             0.0000000000
     11909      3970  TIP3      H1              8.3697350248      -32.1306593232        3.0573828508  WZ3       500             0.0000000000
     11910      3970  TIP3      H2              8.0825350248      -31.3140393232        1.8153928508  WZ3       500             0.0000000000
     11911      3971  TIP3      OH2             2.0430050248      -31.9437193232        9.3795128508  WZ3       501             0.0000000000
     11912      3971  TIP3      H1              2.6737750248      -31.9725093232       10.0989028508  WZ3       501             0.0000000000
     11913      3971  TIP3      H2              2.4924350248      -32.3688493232        8.6491028508  WZ3       501             0.0000000000
     11914      3972  TIP3      OH2             3.3172150248      -31.1975193232        4.8035528508  WZ3       502             0.0000000000
     11915      3972  TIP3      H1              3.7913850248      -30.6065293232        4.2186428508  WZ3       502             0.0000000000
     11916      3972  TIP3      H2              2.5998550248      -30.6672293232        5.1505628508  WZ3       502             0.0000000000
     11917      3973  TIP3      OH2            13.4860250248      -27.6590393232       14.8761328508  WZ3       503             0.0000000000
     11918      3973  TIP3      H1             13.8095050248      -28.2900693232       14.2331828508  WZ3       503             0.0000000000
     11919      3973  TIP3      H2             13.0459550248      -28.1938193232       15.5368728508  WZ3       503             0.0000000000
     11920      3974  TIP3      OH2            10.2633150248      -31.7314893232        9.6602528508  WZ3       504             0.0000000000
     11921      3974  TIP3      H1              9.3524250248      -31.6748093232        9.9488528508  WZ3       504             0.0000000000
     11922      3974  TIP3      H2             10.7686050248      -31.7919393232       10.4709728508  WZ3       504             0.0000000000
     11923      3975  TIP3      OH2             5.0916550248      -30.1028593232        8.4870128508  WZ3       505             0.0000000000
     11924      3975  TIP3      H1              4.2024550248      -30.0033093232        8.1469728508  WZ3       505             0.0000000000
     11925      3975  TIP3      H2              5.3881450248      -30.9445593232        8.1408028508  WZ3       505             0.0000000000
     11926      3976  TIP3      OH2             8.7448350248      -30.1025993232        6.1434728508  WZ3       506             0.0000000000
     11927      3976  TIP3      H1              9.6763850248      -29.9735993232        6.3217828508  WZ3       506             0.0000000000
     11928      3976  TIP3      H2              8.5298650248      -29.4331693232        5.4939428508  WZ3       506             0.0000000000
     11929      3977  TIP3      OH2             7.4188550248      -28.9083793232        3.7100828508  WZ3       508             0.0000000000
     11930      3977  TIP3      H1              6.8763650248      -29.2879993232        3.0188428508  WZ3       508             0.0000000000
     11931      3977  TIP3      H2              8.2523450248      -28.7139093232        3.2814928508  WZ3       508             0.0000000000
     11932      3978  TIP3      OH2            17.9560150248      -16.8253193232       19.2011928508  WZ3       509             0.0000000000
     11933      3978  TIP3      H1             18.1558850248      -16.4011293232       18.3667228508  WZ3       509             0.0000000000
     11934      3978  TIP3      H2             18.6113850248      -16.4814993232       19.8082328508  WZ3       509             0.0000000000
     11935      3979  TIP3      OH2             5.5539950248      -24.3511893232       18.8092428508  WZ3       510             0.0000000000
     11936      3979  TIP3      H1              6.2862350248      -24.0965993232       19.3706928508  WZ3       510             0.0000000000
     11937      3979  TIP3      H2              4.7738650248      -24.1466493232       19.3247828508  WZ3       510             0.0000000000
     11938      3980  TIP3      OH2            11.5832850248      -28.9441893232       11.5472128508  WZ3       511             0.0000000000
     11939      3980  TIP3      H1             12.1476250248      -29.4905293232       11.0001728508  WZ3       511             0.0000000000
     11940      3980  TIP3      H2             11.4356250248      -29.4659993232       12.3359728508  WZ3       511             0.0000000000
     11941      3981  TIP3      OH2            10.2098750248      -30.5555793232       13.9612528508  WZ3       513             0.0000000000
     11942      3981  TIP3      H1              9.3744050248      -30.1016293232       14.0714928508  WZ3       513             0.0000000000
     11943      3981  TIP3      H2             10.7339350248      -30.2797293232       14.7132428508  WZ3       513             0.0000000000
     11944      3982  TIP3      OH2            10.7541350248      -24.3428093232        5.6458928508  WZ3       514             0.0000000000
     11945      3982  TIP3      H1             10.0092350248      -24.8502793232        5.3236828508  WZ3       514             0.0000000000
     11946      3982  TIP3      H2             10.6198550248      -24.2940093232        6.5923728508  WZ3       514             0.0000000000
     11947      3983  TIP3      OH2            17.9040250248      -25.2099893232       14.4326528508  WZ3       515             0.0000000000
     11948      3983  TIP3      H1             18.5459050248      -24.7533593232       13.8888728508  WZ3       515             0.0000000000
     11949      3983  TIP3      H2             17.0737150248      -25.0967493232       13.9700628508  WZ3       515             0.0000000000
     11950      3984  TIP3      OH2            14.6518150248      -31.5288193232        3.8451528508  WZ3       516             0.0000000000
     11951      3984  TIP3      H1             13.7132350248      -31.4172593232        3.6940328508  WZ3       516             0.0000000000
     11952      3984  TIP3      H2             14.9490250248      -30.6721293232        4.1517228508  WZ3       516             0.0000000000
     11953      3985  TIP3      OH2            12.2733450248      -24.1584793232       16.8828028508  WZ3       517             0.0000000000
     11954      3985  TIP3      H1             11.9279550248      -24.5402393232       17.6897628508  WZ3       517             0.0000000000
     11955      3985  TIP3      H2             12.0733550248      -23.2251193232       16.9540928508  WZ3       517             0.0000000000
     11956      3986  TIP3      OH2            15.3701650248      -29.6615493232        5.5058928508  WZ3       518             0.0000000000
     11957      3986  TIP3      H1             16.2620650248      -29.7990493232        5.8250128508  WZ3       518             0.0000000000
     11958      3986  TIP3      H2             15.4265250248      -28.8709393232        4.9692428508  WZ3       518             0.0000000000
     11959      3987  TIP3      OH2             5.8789650248      -25.0478093232       11.4156828508  WZ3       519             0.0000000000
     11960      3987  TIP3      H1              6.6236850248      -25.0502393232       10.8143328508  WZ3       519             0.0000000000
     11961      3987  TIP3      H2              5.9566250248      -25.8714293232       11.8971928508  WZ3       519             0.0000000000
     11962      3988  TIP3      OH2            12.8795450248      -22.8843793232        4.6713528508  WZ3       520             0.0000000000
     11963      3988  TIP3      H1             12.5843850248      -22.0575893232        5.0528328508  WZ3       520             0.0000000000
     11964      3988  TIP3      H2             12.1765450248      -23.5036893232        4.8674928508  WZ3       520             0.0000000000
     11965      3989  TIP3      OH2             2.8869350248      -26.5871193232       16.7305328508  WZ3       521             0.0000000000
     11966      3989  TIP3      H1              3.1097950248      -27.0051593232       17.5622828508  WZ3       521             0.0000000000
     11967      3989  TIP3      H2              2.2849450248      -27.1996193232       16.3078128508  WZ3       521             0.0000000000
     11968      3990  TIP3      OH2             9.9034250248      -27.0701293232       18.9435028508  WZ3       522             0.0000000000
     11969      3990  TIP3      H1              9.6075050248      -27.2358293232       18.0484128508  WZ3       522             0.0000000000
     11970      3990  TIP3      H2             10.8349450248      -27.2900993232       18.9328928508  WZ3       522             0.0000000000
     11971      3991  TIP3      OH2            14.5237050248      -21.6969293232       16.8333028508  WZ3       523             0.0000000000
     11972      3991  TIP3      H1             13.6231350248      -21.5136693232       16.5656928508  WZ3       523             0.0000000000
     11973      3991  TIP3      H2             14.5578150248      -21.4379993232       17.7541828508  WZ3       523             0.0000000000
     11974      3992  TIP3      OH2            20.2550350248      -29.4521393232        5.2005628508  WZ3       524             0.0000000000
     11975      3992  TIP3      H1             19.7006650248      -29.8483393232        4.5283128508  WZ3       524             0.0000000000
     11976      3992  TIP3      H2             20.3553950248      -28.5416193232        4.9228928508  WZ3       524             0.0000000000
     11977      3993  TIP3      OH2            20.2182350248      -23.6519693232       18.0377128508  WZ3       525             0.0000000000
     11978      3993  TIP3      H1             19.3670850248      -23.4135893232       17.6703528508  WZ3       525             0.0000000000
     11979      3993  TIP3      H2             20.8085750248      -23.6686493232       17.2844228508  WZ3       525             0.0000000000
     11980      3994  TIP3      OH2            18.5502050248      -20.6660993232        5.6657728508  WZ3       526             0.0000000000
     11981      3994  TIP3      H1             18.1773150248      -21.4917193232        5.9748328508  WZ3       526             0.0000000000
     11982      3994  TIP3      H2             18.8275550248      -20.8491593232        4.7681128508  WZ3       526             0.0000000000
     11983      3995  TIP3      OH2            15.7105950248      -25.8581493232       12.6869628508  WZ3       527             0.0000000000
     11984      3995  TIP3      H1             14.7822850248      -26.0899593232       12.6598928508  WZ3       527             0.0000000000
     11985      3995  TIP3      H2             16.1617050248      -26.6351693232       12.3568428508  WZ3       527             0.0000000000
     11986      3996  TIP3      OH2             8.2539050248      -21.5299893232        8.8198328508  WZ3       528             0.0000000000
     11987      3996  TIP3      H1              8.7811250248      -20.7565493232        8.6197128508  WZ3       528             0.0000000000
     11988      3996  TIP3      H2              7.3737550248      -21.3050693232        8.5182328508  WZ3       528             0.0000000000
     11989      3997  TIP3      OH2             4.0086750248      -26.6675793232        3.4070728508  WZ3       529             0.0000000000
     11990      3997  TIP3      H1              4.6246650248      -26.0408593232        3.7865528508  WZ3       529             0.0000000000
     11991      3997  TIP3      H2              3.1469350248      -26.3515993232        3.6787228508  WZ3       529             0.0000000000
     11992      3998  TIP3      OH2             9.6811350248      -23.8669993232        8.3962628508  WZ3       530             0.0000000000
     11993      3998  TIP3      H1              9.4401350248      -22.9415593232        8.4377928508  WZ3       530             0.0000000000
     11994      3998  TIP3      H2              8.9404950248      -24.3258693232        8.7926528508  WZ3       530             0.0000000000
     11995      3999  TIP3      OH2            10.1957950248      -19.7176393232       14.7113728508  WZ3       531             0.0000000000
     11996      3999  TIP3      H1             10.5582650248      -18.8630793232       14.4778128508  WZ3       531             0.0000000000
     11997      3999  TIP3      H2             10.7273150248      -20.0094793232       15.4520028508  WZ3       531             0.0000000000
     11998      4000  TIP3      OH2             8.3642150248      -18.8452393232        7.9414828508  WZ3       532             0.0000000000
     11999      4000  TIP3      H1              7.4142650248      -18.7394993232        7.9928128508  WZ3       532             0.0000000000
     12000      4000  TIP3      H2              8.7160250248      -18.0244993232        8.2862328508  WZ3       532             0.0000000000
     12001      4001  TIP3      OH2            13.7398750248      -23.6185693232       14.4119328508  WZ3       533             0.0000000000
     12002      4001  TIP3      H1             13.3140050248      -23.8463993232       15.2383328508  WZ3       533             0.0000000000
     12003      4001  TIP3      H2             14.3204550248      -24.3573893232       14.2294628508  WZ3       533             0.0000000000
     12004      4002  TIP3      OH2            15.9427650248      -22.6895193232        3.4858328508  WZ3       534             0.0000000000
     12005      4002  TIP3      H1             16.2960750248      -23.0695393232        4.2901828508  WZ3       534             0.0000000000
     12006      4002  TIP3      H2             14.9941150248      -22.7830393232        3.5727628508  WZ3       534             0.0000000000
     12007      4003  TIP3      OH2            16.3982950248      -19.0666193232       16.8814128508  WZ3       535             0.0000000000
     12008      4003  TIP3      H1             15.7966150248      -19.6223293232       16.3860428508  WZ3       535             0.0000000000
     12009      4003  TIP3      H2             16.6796650248      -18.3996393232       16.2551528508  WZ3       535             0.0000000000
     12010      4004  TIP3      OH2            20.4462050248      -18.2102693232        3.6868528508  WZ3       536             0.0000000000
     12011      4004  TIP3      H1             21.1899950248      -17.6242193232        3.5470128508  WZ3       536             0.0000000000
     12012      4004  TIP3      H2             19.7520150248      -17.6416893232        4.0200928508  WZ3       536             0.0000000000
     12013      4005  TIP3      OH2             4.5208850248      -31.8338493232       16.2886728508  WZ3       537             0.0000000000
     12014      4005  TIP3      H1              3.6281150248      -31.4953093232       16.2210728508  WZ3       537             0.0000000000
     12015      4005  TIP3      H2              4.4221650248      -32.6892393232       16.7067528508  WZ3       537             0.0000000000
     12016      4006  TIP3      OH2            16.8086950248      -24.0173193232        5.7126228508  WZ3       538             0.0000000000
     12017      4006  TIP3      H1             16.5314550248      -24.7453893232        6.2687328508  WZ3       538             0.0000000000
     12018      4006  TIP3      H2             17.7359950248      -23.8981193232        5.9178828508  WZ3       538             0.0000000000
     12019      4007  TIP3      OH2             4.1720850248      -20.0294093232       14.7236128508  WZ3       539             0.0000000000
     12020      4007  TIP3      H1              4.3891150248      -20.9611693232       14.6925828508  WZ3       539             0.0000000000
     12021      4007  TIP3      H2              4.4184350248      -19.7549093232       15.6068928508  WZ3       539             0.0000000000
     12022      4008  TIP3      OH2            10.0335450248      -21.5779093232        1.9328328508  WZ3       540             0.0000000000
     12023      4008  TIP3      H1             10.2725250248      -22.3260993232        1.3857228508  WZ3       540             0.0000000000
     12024      4008  TIP3      H2              9.7646750248      -21.9657393232        2.7656128508  WZ3       540             0.0000000000
     12025      4009  TIP3      OH2             8.9706050248      -22.0075293232        4.3890928508  WZ3       541             0.0000000000
     12026      4009  TIP3      H1              9.1174050248      -22.5275493232        5.1791828508  WZ3       541             0.0000000000
     12027      4009  TIP3      H2              8.9677750248      -21.1007693232        4.6956828508  WZ3       541             0.0000000000
     12028      4010  TIP3      OH2             5.4237150248      -24.7551993232        4.8996328508  WZ3       542             0.0000000000
     12029      4010  TIP3      H1              4.7376450248      -24.4029493232        5.4666028508  WZ3       542             0.0000000000
     12030      4010  TIP3      H2              5.9465050248      -23.9922393232        4.6530628508  WZ3       542             0.0000000000
     12031      4011  TIP3      OH2            13.2552250248      -32.0928193232       15.1785328508  WZ3       543             0.0000000000
     12032      4011  TIP3      H1             13.9540150248      -32.0189493232       15.8285028508  WZ3       543             0.0000000000
     12033      4011  TIP3      H2             12.8743650248      -32.9573193232       15.3328228508  WZ3       543             0.0000000000
     12034      4012  TIP3      OH2            14.0397150248      -32.4406493232        6.2757628508  WZ3       544             0.0000000000
     12035      4012  TIP3      H1             14.2595450248      -31.9691093232        5.4723028508  WZ3       544             0.0000000000
     12036      4012  TIP3      H2             14.5981150248      -32.0463893232        6.9458228508  WZ3       544             0.0000000000
     12037      4013  TIP3      OH2            11.7083250248      -20.3101693232        5.1385128508  WZ3       545             0.0000000000
     12038      4013  TIP3      H1             10.8919350248      -19.8131993232        5.1909428508  WZ3       545             0.0000000000
     12039      4013  TIP3      H2             12.2379550248      -19.8348193232        4.4983928508  WZ3       545             0.0000000000
     12040      4014  TIP3      OH2            11.2397050248      -30.7127693232        7.1106028508  WZ3       546             0.0000000000
     12041      4014  TIP3      H1             12.0519650248      -30.2084493232        7.1567728508  WZ3       546             0.0000000000
     12042      4014  TIP3      H2             10.9950050248      -30.8577993232        8.0245628508  WZ3       546             0.0000000000
     12043      4015  TIP3      OH2            11.7753450248      -29.7264993232       16.2952628508  WZ3       547             0.0000000000
     12044      4015  TIP3      H1             11.8943750248      -29.1529593232       17.0523028508  WZ3       547             0.0000000000
     12045      4015  TIP3      H2             12.4308050248      -30.4145593232       16.4100428508  WZ3       547             0.0000000000
     12046      4016  TIP3      OH2             9.0466350248      -19.2664493232        5.1202028508  WZ3       549             0.0000000000
     12047      4016  TIP3      H1              9.2075050248      -18.4666993232        4.6194628508  WZ3       549             0.0000000000
     12048      4016  TIP3      H2              8.8494150248      -18.9598493232        6.0052628508  WZ3       549             0.0000000000
     12049      4017  TIP3      OH2             7.7810750248      -32.5685293232        4.7359628508  WZ3       550             0.0000000000
     12050      4017  TIP3      H1              7.6975550248      -31.6802193232        5.0826028508  WZ3       550             0.0000000000
     12051      4017  TIP3      H2              8.6711050248      -32.8338593232        4.9676428508  WZ3       550             0.0000000000
     12052      4018  TIP3      OH2            17.9799250248      -31.8194693232       17.1302328508  WZ3       551             0.0000000000
     12053      4018  TIP3      H1             17.0635050248      -31.5572993232       17.0426028508  WZ3       551             0.0000000000
     12054      4018  TIP3      H2             18.3154250248      -31.8225693232       16.2337628508  WZ3       551             0.0000000000
     12055      4019  TIP3      OH2            16.5820250248      -28.0693693232       11.2259628508  WZ3       552             0.0000000000
     12056      4019  TIP3      H1             15.7844650248      -28.4843493232       10.8974628508  WZ3       552             0.0000000000
     12057      4019  TIP3      H2             17.0271350248      -28.7599993232       11.7170128508  WZ3       552             0.0000000000
     12058      4020  TIP3      OH2             6.0396050248      -22.1413093232        3.7964128508  WZ3       553             0.0000000000
     12059      4020  TIP3      H1              6.6317550248      -21.4418293232        4.0726528508  WZ3       553             0.0000000000
     12060      4020  TIP3      H2              6.4989050248      -22.5743593232        3.0768728508  WZ3       553             0.0000000000
     12061      4021  TIP3      OH2             4.3555250248      -29.4770093232        2.9123528508  WZ3       554             0.0000000000
     12062      4021  TIP3      H1              4.3107850248      -28.5376993232        3.0910528508  WZ3       554             0.0000000000
     12063      4021  TIP3      H2              3.4678450248      -29.7125193232        2.6425628508  WZ3       554             0.0000000000
     12064      4022  TIP3      OH2            17.6684850248      -18.8131193232       12.8483128508  WZ3       555             0.0000000000
     12065      4022  TIP3      H1             17.5129150248      -18.1346793232       12.1912428508  WZ3       555             0.0000000000
     12066      4022  TIP3      H2             18.6011250248      -18.7411893232       13.0513728508  WZ3       555             0.0000000000
     12067      4023  TIP3      OH2             4.0940550248      -20.7546393232        7.7460328508  WZ3       557             0.0000000000
     12068      4023  TIP3      H1              3.2619150248      -20.2823693232        7.7731728508  WZ3       557             0.0000000000
     12069      4023  TIP3      H2              4.6398850248      -20.2448793232        7.1473428508  WZ3       557             0.0000000000
     12070      4024  TIP3      OH2             3.3824250248      -18.1422693232       19.0758328508  WZ3       558             0.0000000000
     12071      4024  TIP3      H1              3.9226450248      -18.3588693232       19.8357528508  WZ3       558             0.0000000000
     12072      4024  TIP3      H2              2.9012250248      -18.9476693232       18.8860828508  WZ3       558             0.0000000000
     12073      4025  TIP3      OH2             7.9797650248      -19.2228293232       20.6962528508  WZ3       559             0.0000000000
     12074      4025  TIP3      H1              8.7474850248      -19.6817493232       21.0371728508  WZ3       559             0.0000000000
     12075      4025  TIP3      H2              7.9583850248      -19.4488493232       19.7663728508  WZ3       559             0.0000000000
     12076      4026  TIP3      OH2            12.0717250248      -19.7147693232        2.0714328508  WZ3       560             0.0000000000
     12077      4026  TIP3      H1             11.4278250248      -20.3459093232        2.3928028508  WZ3       560             0.0000000000
     12078      4026  TIP3      H2             12.8335550248      -20.2459693232        1.8397828508  WZ3       560             0.0000000000
     12079      4027  TIP3      OH2            14.5566350248      -20.8427193232       19.4254028508  WZ3       561             0.0000000000
     12080      4027  TIP3      H1             14.2055850248      -21.6994193232       19.6684428508  WZ3       561             0.0000000000
     12081      4027  TIP3      H2             15.2829550248      -20.7000493232       20.0323028508  WZ3       561             0.0000000000
     12082      4028  TIP3      OH2            16.6760150248      -19.8977793232        2.3052328508  WZ3       562             0.0000000000
     12083      4028  TIP3      H1             16.9590550248      -20.6922593232        2.7579228508  WZ3       562             0.0000000000
     12084      4028  TIP3      H2             17.4158050248      -19.6646793232        1.7443428508  WZ3       562             0.0000000000
     12085      4029  TIP3      OH2             3.2893750248      -24.3318593232       20.0302628508  WZ3       563             0.0000000000
     12086      4029  TIP3      H1              3.4334250248      -25.2337893232       19.7439328508  WZ3       563             0.0000000000
     12087      4029  TIP3      H2              2.5171150248      -24.0456493232       19.5424928508  WZ3       563             0.0000000000
     12088      4030  TIP3      OH2             7.6307450248      -23.9882893232        2.1627228508  WZ3       564             0.0000000000
     12089      4030  TIP3      H1              7.6951550248      -24.7823293232        2.6933628508  WZ3       564             0.0000000000
     12090      4030  TIP3      H2              8.2836650248      -24.1070093232        1.4729228508  WZ3       564             0.0000000000
     12091      4031  TIP3      OH2             9.9449850248      -24.3620493232       19.4629028508  WZ3       565             0.0000000000
     12092      4031  TIP3      H1              9.6163650248      -24.0912393232       18.6056428508  WZ3       565             0.0000000000
     12093      4031  TIP3      H2             10.0968050248      -25.3030693232       19.3754028508  WZ3       565             0.0000000000
     12094      4032  TIP3      OH2            12.9830850248      -22.9411193232        1.8985228508  WZ3       566             0.0000000000
     12095      4032  TIP3      H1             12.7144950248      -22.7609093232        2.7994128508  WZ3       566             0.0000000000
     12096      4032  TIP3      H2             12.7766450248      -23.8664993232        1.7671028508  WZ3       566             0.0000000000
     12097      4033  TIP3      OH2            15.6795050248      -24.4463193232       16.8461328508  WZ3       567             0.0000000000
     12098      4033  TIP3      H1             16.4249850248      -23.8579493232       16.7265328508  WZ3       567             0.0000000000
     12099      4033  TIP3      H2             14.9221850248      -23.8643493232       16.9094428508  WZ3       567             0.0000000000
     12100      4034  TIP3      OH2             4.1220250248      -27.1315293232       19.4501928508  WZ3       568             0.0000000000
     12101      4034  TIP3      H1              4.5301450248      -27.9888693232       19.3292528508  WZ3       568             0.0000000000
     12102      4034  TIP3      H2              3.8617850248      -27.1173993232       20.3712228508  WZ3       568             0.0000000000
     12103      4035  TIP3      OH2             8.7801250248      -26.0156693232        4.4685228508  WZ3       569             0.0000000000
     12104      4035  TIP3      H1              8.3203250248      -26.4998393232        5.1543728508  WZ3       569             0.0000000000
     12105      4035  TIP3      H2              9.0349950248      -26.6841293232        3.8325728508  WZ3       569             0.0000000000
     12106      4036  TIP3      OH2             8.0690550248      -28.1229593232       16.8244828508  WZ3       570             0.0000000000
     12107      4036  TIP3      H1              7.4506650248      -27.4482993232       17.1049528508  WZ3       570             0.0000000000
     12108      4036  TIP3      H2              8.4131750248      -27.8015693232       15.9911028508  WZ3       570             0.0000000000
     12109      4037  TIP3      OH2             9.8511650248      -27.7724893232        2.7308428508  WZ3       571             0.0000000000
     12110      4037  TIP3      H1              9.6706650248      -27.9273693232        1.8036728508  WZ3       571             0.0000000000
     12111      4037  TIP3      H2             10.8012150248      -27.6646193232        2.7756328508  WZ3       571             0.0000000000
     12112      4038  TIP3      OH2            13.0888750248      -25.6514293232       20.1019628508  WZ3       572             0.0000000000
     12113      4038  TIP3      H1             14.0419950248      -25.5675193232       20.0745628508  WZ3       572             0.0000000000
     12114      4038  TIP3      H2             12.9283350248      -26.3632493232       20.7214528508  WZ3       572             0.0000000000
     12115      4039  TIP3      OH2            19.2409950248      -25.4180693232        2.1766528508  WZ3       573             0.0000000000
     12116      4039  TIP3      H1             18.9674750248      -25.8425193232        1.3634828508  WZ3       573             0.0000000000
     12117      4039  TIP3      H2             19.2804050248      -24.4866193232        1.9596928508  WZ3       573             0.0000000000
     12118      4040  TIP3      OH2             8.4084250248      -30.7678793232       17.9067928508  WZ3       574             0.0000000000
     12119      4040  TIP3      H1              8.5585150248      -31.4967493232       17.3047628508  WZ3       574             0.0000000000
     12120      4040  TIP3      H2              8.4106650248      -29.9907093232       17.3480128508  WZ3       574             0.0000000000
     12121      4041  TIP3      OH2             8.8209950248      -32.3982993232       15.3995328508  WZ3       575             0.0000000000
     12122      4041  TIP3      H1              9.3567450248      -31.9466293232       14.7474628508  WZ3       575             0.0000000000
     12123      4041  TIP3      H2              7.9689550248      -32.5063193232       14.9769428508  WZ3       575             0.0000000000
     12124      4042  TIP3      OH2            10.4028350248      -26.9586793232       15.6390528508  WZ3       576             0.0000000000
     12125      4042  TIP3      H1             11.1533150248      -27.1149293232       15.0658328508  WZ3       576             0.0000000000
     12126      4042  TIP3      H2             10.0636650248      -26.1070193232       15.3636028508  WZ3       576             0.0000000000
     12127      4043  TIP3      OH2            16.1351750248      -26.3549793232       18.7448528508  WZ3       578             0.0000000000
     12128      4043  TIP3      H1             15.8536750248      -25.6455193232       18.1672328508  WZ3       578             0.0000000000
     12129      4043  TIP3      H2             17.0776050248      -26.4276793232       18.5939728508  WZ3       578             0.0000000000
     12130      4044  TIP3      OH2             6.8870550248      -29.5695293232       19.8183528508  WZ3       579             0.0000000000
     12131      4044  TIP3      H1              6.1199550248      -30.1020493232       19.6081128508  WZ3       579             0.0000000000
     12132      4044  TIP3      H2              7.5659550248      -29.8794893232       19.2189828508  WZ3       579             0.0000000000
     12133      4045  TIP3      OH2            10.8905950248      -30.6201893232       19.3947328508  WZ3       581             0.0000000000
     12134      4045  TIP3      H1             10.6551350248      -30.8395193232       20.2962228508  WZ3       581             0.0000000000
     12135      4045  TIP3      H2             10.1072850248      -30.8270693232       18.8849828508  WZ3       581             0.0000000000
     12136      4046  TIP3      OH2            13.6062550248      -31.4928393232       18.4700828508  WZ3       582             0.0000000000
     12137      4046  TIP3      H1             12.6587950248      -31.4608693232       18.6024128508  WZ3       582             0.0000000000
     12138      4046  TIP3      H2             13.9189250248      -32.1181293232       19.1239028508  WZ3       582             0.0000000000
     12139      4047  TIP3      OH2             5.0673350248      -31.6491493232       19.5228228508  WZ3       584             0.0000000000
     12140      4047  TIP3      H1              5.2790750248      -32.3555393232       18.9125728508  WZ3       584             0.0000000000
     12141      4047  TIP3      H2              4.9560850248      -32.0865493232       20.3669428508  WZ3       584             0.0000000000
     12142      4048  TIP3      OH2             9.7483350248      -17.0821193232        3.7322028508  WZ3       587             0.0000000000
     12143      4048  TIP3      H1             10.6814050248      -16.9242493232        3.8760428508  WZ3       587             0.0000000000
     12144      4048  TIP3      H2              9.4842150248      -16.4068193232        3.1073528508  WZ3       587             0.0000000000
     12145      4049  TIP3      OH2             3.3168250248      -22.4457393232        3.2150128508  WZ3       588             0.0000000000
     12146      4049  TIP3      H1              4.2307450248      -22.3668493232        3.4884028508  WZ3       588             0.0000000000
     12147      4049  TIP3      H2              3.3241350248      -23.1327793232        2.5485728508  WZ3       588             0.0000000000
     12148      4050  TIP3      OH2             1.9658850248      -17.0528893232        8.2924028508  WZ3       589             0.0000000000
     12149      4050  TIP3      H1              1.3185950248      -17.5147193232        7.7595228508  WZ3       589             0.0000000000
     12150      4050  TIP3      H2              2.3203450248      -17.7245593232        8.8750228508  WZ3       589             0.0000000000
     12151      4051  TIP3      OH2             2.8358050248      -18.9721893232       10.0970228508  WZ3       590             0.0000000000
     12152      4051  TIP3      H1              2.5014850248      -19.8524593232       10.2690428508  WZ3       590             0.0000000000
     12153      4051  TIP3      H2              3.0580450248      -18.6266893232       10.9615828508  WZ3       590             0.0000000000
     12154      4052  TIP3      OH2            20.3842850248      -18.1625493232       13.0775028508  WZ3       591             0.0000000000
     12155      4052  TIP3      H1             20.3629550248      -17.9777093232       14.0164428508  WZ3       591             0.0000000000
     12156      4052  TIP3      H2             21.0749050248      -17.5941493232       12.7366428508  WZ3       591             0.0000000000
     12157      4053  TIP3      OH2            19.9475750248      -18.5954393232       15.9994128508  WZ3       592             0.0000000000
     12158      4053  TIP3      H1             19.4604450248      -19.3310293232       15.6281528508  WZ3       592             0.0000000000
     12159      4053  TIP3      H2             20.4968450248      -18.9890493232       16.6773528508  WZ3       592             0.0000000000
     12160      4054  TIP3      OH2            18.3983050248      -22.8056293232       20.6374428508  WZ3       593             0.0000000000
     12161      4054  TIP3      H1             17.5324150248      -22.9106593232       21.0316728508  WZ3       593             0.0000000000
     12162      4054  TIP3      H2             18.7748950248      -22.0472993232       21.0839128508  WZ3       593             0.0000000000
     12163      4055  TIP3      OH2            19.6992750248      -24.5492593232        6.1516928508  WZ3       594             0.0000000000
     12164      4055  TIP3      H1             20.5494150248      -24.1281693232        6.2788528508  WZ3       594             0.0000000000
     12165      4055  TIP3      H2             19.7047850248      -25.2892493232        6.7588328508  WZ3       594             0.0000000000
     12166      4056  TIP3      OH2            20.0938350248      -26.4955193232        7.9752628508  WZ3       595             0.0000000000
     12167      4056  TIP3      H1             19.3672950248      -26.9752593232        8.3730228508  WZ3       595             0.0000000000
     12168      4056  TIP3      H2             20.6751650248      -26.2900493232        8.7074228508  WZ3       595             0.0000000000
     12169      4057  TIP3      OH2            19.8529550248      -23.7107693232       12.9230228508  WZ3       596             0.0000000000
     12170      4057  TIP3      H1             20.6863750248      -24.0887693232       12.6423828508  WZ3       596             0.0000000000
     12171      4057  TIP3      H2             19.9649850248      -22.7676493232       12.8039328508  WZ3       596             0.0000000000
     12172      4058  TIP3      OH2            18.3391850248      -20.8330193232       15.2298628508  WZ3       597             0.0000000000
     12173      4058  TIP3      H1             17.6917150248      -20.5078693232       15.8553828508  WZ3       597             0.0000000000
     12174      4058  TIP3      H2             17.8215850248      -21.2732493232       14.5556928508  WZ3       597             0.0000000000
     12175      4059  TIP3      OH2            20.3621450248      -26.5946693232        4.3663928508  WZ3       598             0.0000000000
     12176      4059  TIP3      H1             19.8402550248      -26.2382593232        3.6474828508  WZ3       598             0.0000000000
     12177      4059  TIP3      H2             20.3290650248      -25.9198893232        5.0444828508  WZ3       598             0.0000000000
     12178      4060  TIP3      OH2            18.7110450248      -29.3551093232        2.9171028508  WZ3       599             0.0000000000
     12179      4060  TIP3      H1             18.8074850248      -28.6884093232        2.2370728508  WZ3       599             0.0000000000
     12180      4060  TIP3      H2             18.5710050248      -30.1704793232        2.4356528508  WZ3       599             0.0000000000
     12181      4061  TIP3      OH2            17.8805150248      -27.9748693232        8.5381328508  WZ3       600             0.0000000000
     12182      4061  TIP3      H1             17.7303950248      -28.9200093232        8.5179128508  WZ3       600             0.0000000000
     12183      4061  TIP3      H2             17.5269650248      -27.6937293232        9.3820428508  WZ3       600             0.0000000000
     12184      4062  TIP3      OH2             2.9157550248      -25.8966493232       12.5485128508  WZ3       601             0.0000000000
     12185      4062  TIP3      H1              3.1000450248      -25.9784793232       11.6128028508  WZ3       601             0.0000000000
     12186      4062  TIP3      H2              3.7650450248      -26.0209493232       12.9721528508  WZ3       601             0.0000000000
     12187      4063  TIP3      OH2            18.7368050248      -26.0045393232       18.1769628508  WZ3       602             0.0000000000
     12188      4063  TIP3      H1             19.3195350248      -26.7393093232       18.3686828508  WZ3       602             0.0000000000
     12189      4063  TIP3      H2             19.3007350248      -25.2325093232       18.2235428508  WZ3       602             0.0000000000
     12190      4064  TIP3      OH2            17.9584250248      -31.9471293232        2.0346528508  WZ3       604             0.0000000000
     12191      4064  TIP3      H1             18.5690050248      -32.3184493232        2.6714728508  WZ3       604             0.0000000000
     12192      4064  TIP3      H2             17.1215750248      -32.3684393232        2.2306528508  WZ3       604             0.0000000000
     12193      4065  TIP3      OH2            17.5909950248      -30.3922893232        7.0006428508  WZ3       605             0.0000000000
     12194      4065  TIP3      H1             17.8707050248      -31.2992493232        7.1248128508  WZ3       605             0.0000000000
     12195      4065  TIP3      H2             18.3501650248      -29.9581393232        6.6115628508  WZ3       605             0.0000000000
     12196      4066  TIP3      OH2            18.2028250248      -29.8105493232       12.4365328508  WZ3       606             0.0000000000
     12197      4066  TIP3      H1             19.1356250248      -29.5985593232       12.4021328508  WZ3       606             0.0000000000
     12198      4066  TIP3      H2             17.9675750248      -29.7093393232       13.3588328508  WZ3       606             0.0000000000
     12199      4067  TIP3      OH2            18.2320150248      -29.0740193232       15.2124728508  WZ3       607             0.0000000000
     12200      4067  TIP3      H1             17.3891450248      -28.8059793232       15.5784528508  WZ3       607             0.0000000000
     12201      4067  TIP3      H2             18.6744450248      -28.2518293232       15.0015828508  WZ3       607             0.0000000000
     12202      4068  TIP3      OH2             2.5132350248      -30.6261493232       18.6893928508  WZ3       608             0.0000000000
     12203      4068  TIP3      H1              3.4327250248      -30.7483193232       18.9257028508  WZ3       608             0.0000000000
     12204      4068  TIP3      H2              2.0636850248      -31.3761793232       19.0787428508  WZ3       608             0.0000000000
     12205      4069  TIP3      OH2             3.7344850248      -32.3139893232       11.5806828508  WZ3       611             0.0000000000
     12206      4069  TIP3      H1              4.1796450248      -33.1057393232       11.8826528508  WZ3       611             0.0000000000
     12207      4069  TIP3      H2              4.2007850248      -31.5974693232       12.0112428508  WZ3       611             0.0000000000
     12208      4070  TIP3      OH2             2.0385150248      -29.3146893232       12.6497028508  WZ3       612             0.0000000000
     12209      4070  TIP3      H1              2.5304950248      -29.5356393232       11.8589028508  WZ3       612             0.0000000000
     12210      4070  TIP3      H2              2.4006050248      -28.4743493232       12.9306528508  WZ3       612             0.0000000000
     12211      4071  TIP3      OH2            17.1228850248      -18.0726093232        8.6496828508  WZ3       616             0.0000000000
     12212      4071  TIP3      H1             17.7751750248      -18.4203993232        8.0415928508  WZ3       616             0.0000000000
     12213      4071  TIP3      H2             17.6332650248      -17.5842893232        9.2956528508  WZ3       616             0.0000000000
     12214      4072  TIP3      OH2             4.5076350248      -21.1434693232       19.1927728508  WZ3       618             0.0000000000
     12215      4072  TIP3      H1              3.6868850248      -20.9688193232       18.7322428508  WZ3       618             0.0000000000
     12216      4072  TIP3      H2              4.2554150248      -21.2169993232       20.1132128508  WZ3       618             0.0000000000
     12217      4073  TIP3      OH2             7.4619250248      -20.1693493232       15.4511728508  WZ3       619             0.0000000000
     12218      4073  TIP3      H1              7.0370350248      -19.3594993232       15.1686328508  WZ3       619             0.0000000000
     12219      4073  TIP3      H2              8.3662050248      -20.0839393232       15.1491528508  WZ3       619             0.0000000000
     12220      4074  TIP3      OH2            11.7730650248      -18.7703493232       18.4105428508  WZ3       620             0.0000000000
     12221      4074  TIP3      H1             11.9578150248      -19.1037393232       19.2885728508  WZ3       620             0.0000000000
     12222      4074  TIP3      H2             12.6195150248      -18.4604893232       18.0884628508  WZ3       620             0.0000000000
     12223      4075  TIP3      OH2            14.1181050248      -17.4844593232       17.6546828508  WZ3       621             0.0000000000
     12224      4075  TIP3      H1             14.7949950248      -18.1172293232       17.4146028508  WZ3       621             0.0000000000
     12225      4075  TIP3      H2             14.4399850248      -17.0834093232       18.4620128508  WZ3       621             0.0000000000
     12226      4076  TIP3      OH2             4.8635950248      -16.9129593232       15.4987028508  WZ3       623             0.0000000000
     12227      4076  TIP3      H1              4.1432350248      -16.4728593232       15.0474728508  WZ3       623             0.0000000000
     12228      4076  TIP3      H2              4.4979950248      -17.1634893232       16.3471028508  WZ3       623             0.0000000000
     12229      4077  TIP3      OH2             7.3308550248      -17.3125693232       14.5284228508  WZ3       624             0.0000000000
     12230      4077  TIP3      H1              6.4660750248      -17.2407193232       14.9324328508  WZ3       624             0.0000000000
     12231      4077  TIP3      H2              7.2757550248      -16.7658393232       13.7446728508  WZ3       624             0.0000000000
     12232      4078  TIP3      OH2            12.0414150248      -17.4246793232       13.7040228508  WZ3       625             0.0000000000
     12233      4078  TIP3      H1             11.5848150248      -16.8957093232       13.0498628508  WZ3       625             0.0000000000
     12234      4078  TIP3      H2             12.2042150248      -16.8215393232       14.4292528508  WZ3       625             0.0000000000
     12235      4079  TIP3      OH2            14.3690450248      -18.5467193232       14.6490528508  WZ3       626             0.0000000000
     12236      4079  TIP3      H1             13.4644150248      -18.3816993232       14.3832628508  WZ3       626             0.0000000000
     12237      4079  TIP3      H2             14.7979050248      -17.6934993232       14.5833928508  WZ3       626             0.0000000000
     12238      4080  TIP3      OH2            16.9732350248      -16.9768093232       14.9438328508  WZ3       627             0.0000000000
     12239      4080  TIP3      H1             16.7914350248      -16.0609193232       14.7333228508  WZ3       627             0.0000000000
     12240      4080  TIP3      H2             17.1500150248      -17.3870993232       14.0972928508  WZ3       627             0.0000000000
     12241      4081  TIP3      OH2             4.2784050248      -18.2897093232       12.4088828508  WZ3       628             0.0000000000
     12242      4081  TIP3      H1              4.2600050248      -18.7151993232       13.2661128508  WZ3       628             0.0000000000
     12243      4081  TIP3      H2              5.0831950248      -18.6082093232       12.0001028508  WZ3       628             0.0000000000
     12244      4082  TIP3      OH2             6.4197150248      -19.5798393232       11.0638728508  WZ3       629             0.0000000000
     12245      4082  TIP3      H1              6.2007850248      -20.4960993232       11.2334728508  WZ3       629             0.0000000000
     12246      4082  TIP3      H2              7.2439350248      -19.4397993232       11.5300128508  WZ3       629             0.0000000000
     12247      4083  TIP3      OH2             8.9569650248      -19.1099093232       11.9126728508  WZ3       630             0.0000000000
     12248      4083  TIP3      H1              9.1695350248      -19.9980093232       11.6257628508  WZ3       630             0.0000000000
     12249      4083  TIP3      H2              9.0214750248      -19.1441393232       12.8670728508  WZ3       630             0.0000000000
     12250      4084  TIP3      OH2             3.5293750248      -19.0657893232        5.5801128508  WZ3       639             0.0000000000
     12251      4084  TIP3      H1              2.8443650248      -19.1038993232        4.9126228508  WZ3       639             0.0000000000
     12252      4084  TIP3      H2              3.5330950248      -18.1530293232        5.8683228508  WZ3       639             0.0000000000
     12253      4085  TIP3      OH2            12.3937250248      -17.8562993232        3.9777328508  WZ3       642             0.0000000000
     12254      4085  TIP3      H1             13.2597450248      -17.4895593232        3.7995528508  WZ3       642             0.0000000000
     12255      4085  TIP3      H2             12.1470050248      -18.2954993232        3.1638128508  WZ3       642             0.0000000000
     12256      4086  TIP3      OH2            19.1026850248      -18.2932693232        6.6568428508  WZ3       643             0.0000000000
     12257      4086  TIP3      H1             18.9083950248      -19.0410593232        6.0918028508  WZ3       643             0.0000000000
     12258      4086  TIP3      H2             19.0636950248      -17.5352593232        6.0736328508  WZ3       643             0.0000000000
     12259      4087  TIP3      OH2             5.3474950248      -18.1457093232        2.6053228508  WZ3       646             0.0000000000
     12260      4087  TIP3      H1              5.0799550248      -17.8594193232        3.4786328508  WZ3       646             0.0000000000
     12261      4087  TIP3      H2              6.1187550248      -18.6917893232        2.7575728508  WZ3       646             0.0000000000
     12262      4088  TIP3      OH2            18.3203050248      -19.5420293232       18.8070228508  WZ3       648             0.0000000000
     12263      4088  TIP3      H1             17.5384950248      -19.7282293232       18.2870828508  WZ3       648             0.0000000000
     12264      4088  TIP3      H2             18.2482950248      -18.6125993232       19.0242728508  WZ3       648             0.0000000000
     12265      4089  TIP3      OH2            24.0279750248      -26.7863093232       13.8495528508  WZ3       651             0.0000000000
     12266      4089  TIP3      H1             24.0691850248      -27.4119793232       14.5727928508  WZ3       651             0.0000000000
     12267      4089  TIP3      H2             24.7307450248      -26.1624493232       14.0315928508  WZ3       651             0.0000000000
     12268      4090  TIP3      OH2            24.9512850248      -22.3364193232       12.3844628508  WZ3       653             0.0000000000
     12269      4090  TIP3      H1             24.5818050248      -23.1383693232       12.0148928508  WZ3       653             0.0000000000
     12270      4090  TIP3      H2             25.8923950248      -22.5049293232       12.4308028508  WZ3       653             0.0000000000
     12271      4091  TIP3      OH2            21.5613350248      -28.6761593232        7.7773428508  WZ3       654             0.0000000000
     12272      4091  TIP3      H1             21.1136750248      -27.8302893232        7.7589928508  WZ3       654             0.0000000000
     12273      4091  TIP3      H2             21.0004550248      -29.2557393232        7.2618528508  WZ3       654             0.0000000000
     12274      4092  TIP3      OH2            22.2719450248      -26.5141993232        9.9031428508  WZ3       655             0.0000000000
     12275      4092  TIP3      H1             22.4852950248      -27.2840393232       10.4304428508  WZ3       655             0.0000000000
     12276      4092  TIP3      H2             23.0097050248      -26.4245293232        9.2999028508  WZ3       655             0.0000000000
     12277      4093  TIP3      OH2            22.9645950248      -29.0759193232       11.0247628508  WZ3       661             0.0000000000
     12278      4093  TIP3      H1             23.6182550248      -29.6257493232       11.4567728508  WZ3       661             0.0000000000
     12279      4093  TIP3      H2             22.9885250248      -29.3500193232       10.1079628508  WZ3       661             0.0000000000
     12280      4094  TIP3      OH2            26.1312050248      -22.9147893232       15.4112228508  WZ3       667             0.0000000000
     12281      4094  TIP3      H1             26.1259650248      -22.0354393232       15.0331528508  WZ3       667             0.0000000000
     12282      4094  TIP3      H2             25.2776150248      -22.9983793232       15.8362128508  WZ3       667             0.0000000000
     12283      4095  TIP3      OH2            22.2522950248      -23.2439993232        6.1931528508  WZ3       668             0.0000000000
     12284      4095  TIP3      H1             21.9803850248      -23.0148993232        5.3044428508  WZ3       668             0.0000000000
     12285      4095  TIP3      H2             22.2978650248      -22.4061193232        6.6536828508  WZ3       668             0.0000000000
     12286      4096  TIP3      OH2            24.6653450248      -26.2056993232       16.7031228508  WZ3       682             0.0000000000
     12287      4096  TIP3      H1             24.7356650248      -25.5550193232       17.4016228508  WZ3       682             0.0000000000
     12288      4096  TIP3      H2             23.7745650248      -26.1029493232       16.3682128508  WZ3       682             0.0000000000
     12289      4097  TIP3      OH2            25.9849450248      -20.3323093232       18.2379328508  WZ3       684             0.0000000000
     12290      4097  TIP3      H1             25.9924750248      -20.4683393232       17.2904828508  WZ3       684             0.0000000000
     12291      4097  TIP3      H2             25.0689850248      -20.4494993232       18.4899328508  WZ3       684             0.0000000000
     12292      4098  TIP3      OH2            21.5820150248      -24.1392893232       15.5281228508  WZ3       686             0.0000000000
     12293      4098  TIP3      H1             21.0808550248      -24.1673493232       14.7130928508  WZ3       686             0.0000000000
     12294      4098  TIP3      H2             21.5873850248      -25.0449693232       15.8378528508  WZ3       686             0.0000000000
     12295      4099  TIP3      OH2            21.3322850248      -21.3589093232       12.4121428508  WZ3       687             0.0000000000
     12296      4099  TIP3      H1             22.2783450248      -21.5032093232       12.3930928508  WZ3       687             0.0000000000
     12297      4099  TIP3      H2             21.2199150248      -20.5746293232       12.9492628508  WZ3       687             0.0000000000
     12298      4100  TIP3      OH2            24.5764950248      -18.5579493232        8.5576128508  WZ3       690             0.0000000000
     12299      4100  TIP3      H1             24.7285350248      -18.9059093232        9.4362628508  WZ3       690             0.0000000000
     12300      4100  TIP3      H2             23.7255350248      -18.9142193232        8.3023328508  WZ3       690             0.0000000000
     12301      4101  TIP3      OH2            23.8310650248      -22.8157493232       16.5714028508  WZ3       693             0.0000000000
     12302      4101  TIP3      H1             24.0471950248      -23.1771893232       17.4309828508  WZ3       693             0.0000000000
     12303      4101  TIP3      H2             22.9755350248      -23.1903693232       16.3617528508  WZ3       693             0.0000000000
     12304      4102  TIP3      OH2            20.8990050248      -31.9437193232        9.3795128508  WZ3       706             0.0000000000
     12305      4102  TIP3      H1             21.5297750248      -31.9725093232       10.0989028508  WZ3       706             0.0000000000
     12306      4102  TIP3      H2             21.3484350248      -32.3688493232        8.6491028508  WZ3       706             0.0000000000
     12307      4103  TIP3      OH2            22.1732150248      -31.1975193232        4.8035528508  WZ3       707             0.0000000000
     12308      4103  TIP3      H1             22.6473850248      -30.6065293232        4.2186428508  WZ3       707             0.0000000000
     12309      4103  TIP3      H2             21.4558550248      -30.6672293232        5.1505628508  WZ3       707             0.0000000000
     12310      4104  TIP3      OH2            23.9476550248      -30.1028593232        8.4870128508  WZ3       710             0.0000000000
     12311      4104  TIP3      H1             23.0584550248      -30.0033093232        8.1469728508  WZ3       710             0.0000000000
     12312      4104  TIP3      H2             24.2441450248      -30.9445593232        8.1408028508  WZ3       710             0.0000000000
     12313      4105  TIP3      OH2            24.4099950248      -24.3511893232       18.8092428508  WZ3       714             0.0000000000
     12314      4105  TIP3      H1             25.1422350248      -24.0965993232       19.3706928508  WZ3       714             0.0000000000
     12315      4105  TIP3      H2             23.6298650248      -24.1466493232       19.3247828508  WZ3       714             0.0000000000
     12316      4106  TIP3      OH2            24.7349650248      -25.0478093232       11.4156828508  WZ3       722             0.0000000000
     12317      4106  TIP3      H1             25.4796850248      -25.0502393232       10.8143328508  WZ3       722             0.0000000000
     12318      4106  TIP3      H2             24.8126250248      -25.8714293232       11.8971928508  WZ3       722             0.0000000000
     12319      4107  TIP3      OH2            21.7429350248      -26.5871193232       16.7305328508  WZ3       724             0.0000000000
     12320      4107  TIP3      H1             21.9657950248      -27.0051593232       17.5622828508  WZ3       724             0.0000000000
     12321      4107  TIP3      H2             21.1409450248      -27.1996193232       16.3078128508  WZ3       724             0.0000000000
     12322      4108  TIP3      OH2            27.1099050248      -21.5299893232        8.8198328508  WZ3       728             0.0000000000
     12323      4108  TIP3      H1             27.6371250248      -20.7565493232        8.6197128508  WZ3       728             0.0000000000
     12324      4108  TIP3      H2             26.2297550248      -21.3050693232        8.5182328508  WZ3       728             0.0000000000
     12325      4109  TIP3      OH2            22.8646750248      -26.6675793232        3.4070728508  WZ3       729             0.0000000000
     12326      4109  TIP3      H1             23.4806650248      -26.0408593232        3.7865528508  WZ3       729             0.0000000000
     12327      4109  TIP3      H2             22.0029350248      -26.3515993232        3.6787228508  WZ3       729             0.0000000000
     12328      4110  TIP3      OH2            27.2202150248      -18.8452393232        7.9414828508  WZ3       732             0.0000000000
     12329      4110  TIP3      H1             26.2702650248      -18.7394993232        7.9928128508  WZ3       732             0.0000000000
     12330      4110  TIP3      H2             27.5720250248      -18.0244993232        8.2862328508  WZ3       732             0.0000000000
     12331      4111  TIP3      OH2            23.0280850248      -20.0294093232       14.7236128508  WZ3       738             0.0000000000
     12332      4111  TIP3      H1             23.2451150248      -20.9611693232       14.6925828508  WZ3       738             0.0000000000
     12333      4111  TIP3      H2             23.2744350248      -19.7549093232       15.6068928508  WZ3       738             0.0000000000
     12334      4112  TIP3      OH2            24.2797150248      -24.7551993232        4.8996328508  WZ3       741             0.0000000000
     12335      4112  TIP3      H1             23.5936450248      -24.4029493232        5.4666028508  WZ3       741             0.0000000000
     12336      4112  TIP3      H2             24.8025050248      -23.9922393232        4.6530628508  WZ3       741             0.0000000000
     12337      4113  TIP3      OH2            24.8956050248      -22.1413093232        3.7964128508  WZ3       751             0.0000000000
     12338      4113  TIP3      H1             25.4877550248      -21.4418293232        4.0726528508  WZ3       751             0.0000000000
     12339      4113  TIP3      H2             25.3549050248      -22.5743593232        3.0768728508  WZ3       751             0.0000000000
     12340      4114  TIP3      OH2            23.2115250248      -29.4770093232        2.9123528508  WZ3       752             0.0000000000
     12341      4114  TIP3      H1             23.1667850248      -28.5376993232        3.0910528508  WZ3       752             0.0000000000
     12342      4114  TIP3      H2             22.3238450248      -29.7125193232        2.6425628508  WZ3       752             0.0000000000
     12343      4115  TIP3      OH2            22.9500550248      -20.7546393232        7.7460328508  WZ3       754             0.0000000000
     12344      4115  TIP3      H1             22.1179150248      -20.2823693232        7.7731728508  WZ3       754             0.0000000000
     12345      4115  TIP3      H2             23.4958850248      -20.2448793232        7.1473428508  WZ3       754             0.0000000000
     12346      4116  TIP3      OH2            22.2384250248      -18.1422693232       19.0758328508  WZ3       755             0.0000000000
     12347      4116  TIP3      H1             22.7786450248      -18.3588693232       19.8357528508  WZ3       755             0.0000000000
     12348      4116  TIP3      H2             21.7572250248      -18.9476693232       18.8860828508  WZ3       755             0.0000000000
     12349      4117  TIP3      OH2            26.8357650248      -19.2228293232       20.6962528508  WZ3       756             0.0000000000
     12350      4117  TIP3      H1             27.6034850248      -19.6817493232       21.0371728508  WZ3       756             0.0000000000
     12351      4117  TIP3      H2             26.8143850248      -19.4488493232       19.7663728508  WZ3       756             0.0000000000
     12352      4118  TIP3      OH2            22.1453750248      -24.3318593232       20.0302628508  WZ3       760             0.0000000000
     12353      4118  TIP3      H1             22.2894250248      -25.2337893232       19.7439328508  WZ3       760             0.0000000000
     12354      4118  TIP3      H2             21.3731150248      -24.0456493232       19.5424928508  WZ3       760             0.0000000000
     12355      4119  TIP3      OH2            22.1728250248      -22.4457393232        3.2150128508  WZ3       784             0.0000000000
     12356      4119  TIP3      H1             23.0867450248      -22.3668493232        3.4884028508  WZ3       784             0.0000000000
     12357      4119  TIP3      H2             22.1801350248      -23.1327793232        2.5485728508  WZ3       784             0.0000000000
     12358      4120  TIP3      OH2            20.8218850248      -17.0528893232        8.2924028508  WZ3       785             0.0000000000
     12359      4120  TIP3      H1             20.1745950248      -17.5147193232        7.7595228508  WZ3       785             0.0000000000
     12360      4120  TIP3      H2             21.1763450248      -17.7245593232        8.8750228508  WZ3       785             0.0000000000
     12361      4121  TIP3      OH2            21.6918050248      -18.9721893232       10.0970228508  WZ3       786             0.0000000000
     12362      4121  TIP3      H1             21.3574850248      -19.8524593232       10.2690428508  WZ3       786             0.0000000000
     12363      4121  TIP3      H2             21.9140450248      -18.6266893232       10.9615828508  WZ3       786             0.0000000000
     12364      4122  TIP3      OH2            21.7717550248      -25.8966493232       12.5485128508  WZ3       787             0.0000000000
     12365      4122  TIP3      H1             21.9560450248      -25.9784793232       11.6128028508  WZ3       787             0.0000000000
     12366      4122  TIP3      H2             22.6210450248      -26.0209493232       12.9721528508  WZ3       787             0.0000000000
     12367      4123  TIP3      OH2            22.5904850248      -32.3139893232       11.5806828508  WZ3       789             0.0000000000
     12368      4123  TIP3      H1             23.0356450248      -33.1057393232       11.8826528508  WZ3       789             0.0000000000
     12369      4123  TIP3      H2             23.0567850248      -31.5974693232       12.0112428508  WZ3       789             0.0000000000
     12370      4124  TIP3      OH2            20.8945150248      -29.3146893232       12.6497028508  WZ3       790             0.0000000000
     12371      4124  TIP3      H1             21.3864950248      -29.5356393232       11.8589028508  WZ3       790             0.0000000000
     12372      4124  TIP3      H2             21.2566050248      -28.4743493232       12.9306528508  WZ3       790             0.0000000000
     12373      4125  TIP3      OH2            23.3636350248      -21.1434693232       19.1927728508  WZ3       793             0.0000000000
     12374      4125  TIP3      H1             22.5428850248      -20.9688193232       18.7322428508  WZ3       793             0.0000000000
     12375      4125  TIP3      H2             23.1114150248      -21.2169993232       20.1132128508  WZ3       793             0.0000000000
     12376      4126  TIP3      OH2            26.3179250248      -20.1693493232       15.4511728508  WZ3       794             0.0000000000
     12377      4126  TIP3      H1             25.8930350248      -19.3594993232       15.1686328508  WZ3       794             0.0000000000
     12378      4126  TIP3      H2             27.2222050248      -20.0839393232       15.1491528508  WZ3       794             0.0000000000
     12379      4127  TIP3      OH2            23.7195950248      -16.9129593232       15.4987028508  WZ3       797             0.0000000000
     12380      4127  TIP3      H1             22.9992350248      -16.4728593232       15.0474728508  WZ3       797             0.0000000000
     12381      4127  TIP3      H2             23.3539950248      -17.1634893232       16.3471028508  WZ3       797             0.0000000000
     12382      4128  TIP3      OH2            26.1868550248      -17.3125693232       14.5284228508  WZ3       798             0.0000000000
     12383      4128  TIP3      H1             25.3220750248      -17.2407193232       14.9324328508  WZ3       798             0.0000000000
     12384      4128  TIP3      H2             26.1317550248      -16.7658393232       13.7446728508  WZ3       798             0.0000000000
     12385      4129  TIP3      OH2            23.1344050248      -18.2897093232       12.4088828508  WZ3       801             0.0000000000
     12386      4129  TIP3      H1             23.1160050248      -18.7151993232       13.2661128508  WZ3       801             0.0000000000
     12387      4129  TIP3      H2             23.9391950248      -18.6082093232       12.0001028508  WZ3       801             0.0000000000
     12388      4130  TIP3      OH2            25.2757150248      -19.5798393232       11.0638728508  WZ3       802             0.0000000000
     12389      4130  TIP3      H1             25.0567850248      -20.4960993232       11.2334728508  WZ3       802             0.0000000000
     12390      4130  TIP3      H2             26.0999350248      -19.4397993232       11.5300128508  WZ3       802             0.0000000000
     12391      4131  TIP3      OH2            22.3853750248      -19.0657893232        5.5801128508  WZ3       810             0.0000000000
     12392      4131  TIP3      H1             21.7003650248      -19.1038993232        4.9126228508  WZ3       810             0.0000000000
     12393      4131  TIP3      H2             22.3890950248      -18.1530293232        5.8683228508  WZ3       810             0.0000000000
     12394      4132  TIP3      OH2            24.2034950248      -18.1457093232        2.6053228508  WZ3       816             0.0000000000
     12395      4132  TIP3      H1             23.9359550248      -17.8594193232        3.4786328508  WZ3       816             0.0000000000
     12396      4132  TIP3      H2             24.9747550248      -18.6917893232        2.7575728508  WZ3       816             0.0000000000
     12397      4133  TIP3      OH2           -23.8416549752       -6.7995893232        8.8377428508  WZ3       818             0.0000000000
     12398      4133  TIP3      H1            -23.7525449752       -5.8557693232        8.7054528508  WZ3       818             0.0000000000
     12399      4133  TIP3      H2            -24.4798949752       -7.0749493232        8.1796828508  WZ3       818             0.0000000000
     12400      4134  TIP3      OH2           -24.9085249752       -7.5445193232       12.2565628508  WZ3       819             0.0000000000
     12401      4134  TIP3      H1            -24.9467749752       -8.1908893232       12.9615228508  WZ3       819             0.0000000000
     12402      4134  TIP3      H2            -25.2308749752       -8.0110793232       11.4854328508  WZ3       819             0.0000000000
     12403      4135  TIP3      OH2           -32.5400249752       -7.9303093232       13.8495528508  WZ3       820             0.0000000000
     12404      4135  TIP3      H1            -32.4988149752       -8.5559793232       14.5727928508  WZ3       820             0.0000000000
     12405      4135  TIP3      H2            -31.8372549752       -7.3064493232       14.0315928508  WZ3       820             0.0000000000
     12406      4136  TIP3      OH2           -21.2025049752       -4.6054793232       10.5580728508  WZ3       821             0.0000000000
     12407      4136  TIP3      H1            -21.6432349752       -5.3258793232       11.0086328508  WZ3       821             0.0000000000
     12408      4136  TIP3      H2            -21.2155349752       -3.8847593232       11.1878428508  WZ3       821             0.0000000000
     12409      4137  TIP3      OH2           -31.6167149752       -3.4804193232       12.3844628508  WZ3       822             0.0000000000
     12410      4137  TIP3      H1            -31.9861949752       -4.2823693232       12.0148928508  WZ3       822             0.0000000000
     12411      4137  TIP3      H2            -30.6756049752       -3.6489293232       12.4308028508  WZ3       822             0.0000000000
     12412      4138  TIP3      OH2           -35.0066649752       -9.8201593232        7.7773428508  WZ3       823             0.0000000000
     12413      4138  TIP3      H1            -35.4543249752       -8.9742893232        7.7589928508  WZ3       823             0.0000000000
     12414      4138  TIP3      H2            -35.5675449752      -10.3997393232        7.2618528508  WZ3       823             0.0000000000
     12415      4139  TIP3      OH2           -34.2960549752       -7.6581993232        9.9031428508  WZ3       824             0.0000000000
     12416      4139  TIP3      H1            -34.0827049752       -8.4280393232       10.4304428508  WZ3       824             0.0000000000
     12417      4139  TIP3      H2            -33.5582949752       -7.5685293232        9.2999028508  WZ3       824             0.0000000000
     12418      4140  TIP3      OH2           -24.0909549752        0.4986906768       10.7701128508  WZ3       825             0.0000000000
     12419      4140  TIP3      H1            -23.4713149752       -0.1778393232       10.4970328508  WZ3       825             0.0000000000
     12420      4140  TIP3      H2            -24.2992149752        0.2807706768       11.6786028508  WZ3       825             0.0000000000
     12421      4141  TIP3      OH2           -26.5190849752       -5.1123793232       12.6626628508  WZ3       826             0.0000000000
     12422      4141  TIP3      H1            -26.2152949752       -5.7982393232       12.0680728508  WZ3       826             0.0000000000
     12423      4141  TIP3      H2            -25.7976849752       -4.9935093232       13.2804628508  WZ3       826             0.0000000000
     12424      4142  TIP3      OH2           -17.8561049752      -13.5108493232       13.5232828508  WZ3       827             0.0000000000
     12425      4142  TIP3      H1            -17.8068849752      -12.9007293232       14.2591928508  WZ3       827             0.0000000000
     12426      4142  TIP3      H2            -17.4305949752      -13.0497593232       12.8003928508  WZ3       827             0.0000000000
     12427      4143  TIP3      OH2           -23.3783849752      -10.7181393232       12.9901428508  WZ3       828             0.0000000000
     12428      4143  TIP3      H1            -23.2357949752      -11.6644393232       13.0103028508  WZ3       828             0.0000000000
     12429      4143  TIP3      H2            -23.4844849752      -10.5111593232       12.0616328508  WZ3       828             0.0000000000
     12430      4144  TIP3      OH2           -30.2235549752      -12.6164993232       10.2626228508  WZ3       829             0.0000000000
     12431      4144  TIP3      H1            -30.1804449752      -11.7566493232        9.8442528508  WZ3       829             0.0000000000
     12432      4144  TIP3      H2            -30.6811449752      -13.1690293232        9.6289428508  WZ3       829             0.0000000000
     12433      4145  TIP3      OH2           -22.5012849752      -12.4859393232        8.6634528508  WZ3       830             0.0000000000
     12434      4145  TIP3      H1            -21.8548549752      -12.8146193232        9.2882128508  WZ3       830             0.0000000000
     12435      4145  TIP3      H2            -21.9913449752      -11.9680393232        8.0405928508  WZ3       830             0.0000000000
     12436      4146  TIP3      OH2           -33.6034049752      -10.2199193232       11.0247628508  WZ3       831             0.0000000000
     12437      4146  TIP3      H1            -32.9497449752      -10.7697493232       11.4567728508  WZ3       831             0.0000000000
     12438      4146  TIP3      H2            -33.5794749752      -10.4940193232       10.1079628508  WZ3       831             0.0000000000
     12439      4147  TIP3      OH2           -28.4469549752       -8.6697893232       10.2399128508  WZ3       832             0.0000000000
     12440      4147  TIP3      H1            -27.8308549752       -9.1962493232       10.7493128508  WZ3       832             0.0000000000
     12441      4147  TIP3      H2            -29.0330749752       -9.3099193232        9.8362728508  WZ3       832             0.0000000000
     12442      4148  TIP3      OH2           -17.4646449752      -12.0329293232       15.7592628508  WZ3       833             0.0000000000
     12443      4148  TIP3      H1            -18.1531849752      -11.3748593232       15.6639228508  WZ3       833             0.0000000000
     12444      4148  TIP3      H2            -17.4491849752      -12.2301393232       16.6958028508  WZ3       833             0.0000000000
     12445      4149  TIP3      OH2           -31.4133649752      -13.6986593232       14.3367028508  WZ3       834             0.0000000000
     12446      4149  TIP3      H1            -31.6321949752      -13.1685993232       13.5703028508  WZ3       834             0.0000000000
     12447      4149  TIP3      H2            -32.0812749752      -13.4721093232       14.9838428508  WZ3       834             0.0000000000
     12448      4150  TIP3      OH2           -24.0443849752       -4.1985493232        7.8806128508  WZ3       835             0.0000000000
     12449      4150  TIP3      H1            -24.3398749752       -4.5213193232        7.0293028508  WZ3       835             0.0000000000
     12450      4150  TIP3      H2            -24.3686049752       -3.2988793232        7.9218728508  WZ3       835             0.0000000000
     12451      4151  TIP3      OH2           -28.8442249752       -6.0230893232       14.6240728508  WZ3       836             0.0000000000
     12452      4151  TIP3      H1            -29.5843149752       -5.4249393232       14.7275928508  WZ3       836             0.0000000000
     12453      4151  TIP3      H2            -28.1302749752       -5.4691293232       14.3084328508  WZ3       836             0.0000000000
     12454      4152  TIP3      OH2           -20.7374449752      -13.1950093232       10.6440428508  WZ3       837             0.0000000000
     12455      4152  TIP3      H1            -20.9526449752      -13.9606693232       11.1766428508  WZ3       837             0.0000000000
     12456      4152  TIP3      H2            -20.0817049752      -12.7225493232       11.1568928508  WZ3       837             0.0000000000
     12457      4153  TIP3      OH2           -31.8196349752      -11.8064793232       12.2889228508  WZ3       838             0.0000000000
     12458      4153  TIP3      H1            -31.2060049752      -11.1737193232       12.6621628508  WZ3       838             0.0000000000
     12459      4153  TIP3      H2            -31.3075649752      -12.2789793232       11.6326128508  WZ3       838             0.0000000000
     12460      4154  TIP3      OH2           -30.4367949752       -4.0587893232       15.4112228508  WZ3       839             0.0000000000
     12461      4154  TIP3      H1            -30.4420349752       -3.1794393232       15.0331528508  WZ3       839             0.0000000000
     12462      4154  TIP3      H2            -31.2903849752       -4.1423793232       15.8362128508  WZ3       839             0.0000000000
     12463      4155  TIP3      OH2           -34.3157049752       -4.3879993232        6.1931528508  WZ3       840             0.0000000000
     12464      4155  TIP3      H1            -34.5876149752       -4.1588993232        5.3044428508  WZ3       840             0.0000000000
     12465      4155  TIP3      H2            -34.2701349752       -3.5501193232        6.6536828508  WZ3       840             0.0000000000
     12466      4156  TIP3      OH2           -20.6907349752       -2.7664093232       12.9060028508  WZ3       841             0.0000000000
     12467      4156  TIP3      H1            -21.6323649752       -2.7080193232       13.0676928508  WZ3       841             0.0000000000
     12468      4156  TIP3      H2            -20.4141249752       -1.8603593232       12.7689728508  WZ3       841             0.0000000000
     12469      4157  TIP3      OH2           -20.3900349752      -14.4798793232       14.3233928508  WZ3       842             0.0000000000
     12470      4157  TIP3      H1            -21.1261149752      -13.8691693232       14.2855228508  WZ3       842             0.0000000000
     12471      4157  TIP3      H2            -19.7066349752      -14.0649793232       13.7970328508  WZ3       842             0.0000000000
     12472      4158  TIP3      OH2           -27.3868949752      -16.3931493232       11.7891928508  WZ3       843             0.0000000000
     12473      4158  TIP3      H1            -27.5044749752      -17.3415493232       11.7350228508  WZ3       843             0.0000000000
     12474      4158  TIP3      H2            -28.2418849752      -16.0605393232       12.0623028508  WZ3       843             0.0000000000
     12475      4159  TIP3      OH2           -22.4386149752       -0.9850593232        9.5311628508  WZ3       844             0.0000000000
     12476      4159  TIP3      H1            -22.0133849752       -1.6922693232        9.0461228508  WZ3       844             0.0000000000
     12477      4159  TIP3      H2            -22.1216149752       -0.1837893232        9.1143828508  WZ3       844             0.0000000000
     12478      4160  TIP3      OH2           -21.2789649752       -3.0842093232        8.0398228508  WZ3       845             0.0000000000
     12479      4160  TIP3      H1            -21.5364849752       -3.7741993232        7.4284128508  WZ3       845             0.0000000000
     12480      4160  TIP3      H2            -21.2078849752       -3.5270893232        8.8854128508  WZ3       845             0.0000000000
     12481      4161  TIP3      OH2           -19.5929449752       -4.5175393232       16.5171728508  WZ3       846             0.0000000000
     12482      4161  TIP3      H1            -19.4533149752       -5.1092893232       15.7778728508  WZ3       846             0.0000000000
     12483      4161  TIP3      H2            -19.4256649752       -3.6449493232       16.1610528508  WZ3       846             0.0000000000
     12484      4162  TIP3      OH2           -25.1204049752       -7.5555893232        6.2897728508  WZ3       847             0.0000000000
     12485      4162  TIP3      H1            -25.8318549752       -7.0206193232        5.9378228508  WZ3       847             0.0000000000
     12486      4162  TIP3      H2            -24.4294449752       -7.5003793232        5.6296628508  WZ3       847             0.0000000000
     12487      4163  TIP3      OH2           -25.0664849752       -9.0981593232        3.3282728508  WZ3       848             0.0000000000
     12488      4163  TIP3      H1            -24.3654949752       -9.0754693232        3.9796728508  WZ3       848             0.0000000000
     12489      4163  TIP3      H2            -24.7641949752       -9.7261893232        2.6722028508  WZ3       848             0.0000000000
     12490      4164  TIP3      OH2           -17.7510149752       -8.1777393232       14.5832128508  WZ3       849             0.0000000000
     12491      4164  TIP3      H1            -18.4036049752       -7.4831793232       14.6723028508  WZ3       849             0.0000000000
     12492      4164  TIP3      H2            -17.2859849752       -7.9676493232       13.7733728508  WZ3       849             0.0000000000
     12493      4165  TIP3      OH2           -21.7146349752       -7.3462593232        7.2413628508  WZ3       850             0.0000000000
     12494      4165  TIP3      H1            -22.4465349752       -7.1178893232        7.8144228508  WZ3       850             0.0000000000
     12495      4165  TIP3      H2            -21.2674149752       -8.0599893232        7.6961128508  WZ3       850             0.0000000000
     12496      4166  TIP3      OH2           -21.8172849752       -9.1719993232       16.3090628508  WZ3       851             0.0000000000
     12497      4166  TIP3      H1            -21.7373749752       -8.4085593232       16.8809128508  WZ3       851             0.0000000000
     12498      4166  TIP3      H2            -22.4185149752       -8.8927593232       15.6185728508  WZ3       851             0.0000000000
     12499      4167  TIP3      OH2           -30.0692649752       -6.7156393232        9.1238628508  WZ3       852             0.0000000000
     12500      4167  TIP3      H1            -30.3997449752       -7.0862993232        8.3055628508  WZ3       852             0.0000000000
     12501      4167  TIP3      H2            -29.4808549752       -7.3862393232        9.4706928508  WZ3       852             0.0000000000
     12502      4168  TIP3      OH2           -28.7025149752       -3.2875793232       11.8050828508  WZ3       853             0.0000000000
     12503      4168  TIP3      H1            -28.7973849752       -3.8662693232       11.0485428508  WZ3       853             0.0000000000
     12504      4168  TIP3      H2            -27.9731549752       -3.6590093232       12.3013628508  WZ3       853             0.0000000000
     12505      4169  TIP3      OH2           -29.7027149752       -7.9470793232       12.7573628508  WZ3       854             0.0000000000
     12506      4169  TIP3      H1            -29.1374649752       -7.8256593232       11.9944828508  WZ3       854             0.0000000000
     12507      4169  TIP3      H2            -29.3838249752       -7.3095793232       13.3962128508  WZ3       854             0.0000000000
     12508      4170  TIP3      OH2           -23.3934949752       -2.4438893232       13.4914128508  WZ3       855             0.0000000000
     12509      4170  TIP3      H1            -23.6338349752       -1.7815793232       14.1393328508  WZ3       855             0.0000000000
     12510      4170  TIP3      H2            -23.5916749752       -3.2783693232       13.9163728508  WZ3       855             0.0000000000
     12511      4171  TIP3      OH2           -28.8226449752       -3.5478093232       17.4745528508  WZ3       856             0.0000000000
     12512      4171  TIP3      H1            -29.1338949752       -2.7654893232       17.9298728508  WZ3       856             0.0000000000
     12513      4171  TIP3      H2            -29.4726249752       -3.7008993232       16.7887528508  WZ3       856             0.0000000000
     12514      4172  TIP3      OH2           -22.8436849752       -8.1839693232        4.9264828508  WZ3       857             0.0000000000
     12515      4172  TIP3      H1            -22.2641349752       -8.0339393232        5.6733728508  WZ3       857             0.0000000000
     12516      4172  TIP3      H2            -22.4296849752       -7.7132293232        4.2031228508  WZ3       857             0.0000000000
     12517      4173  TIP3      OH2           -31.9026549752       -7.3496993232       16.7031228508  WZ3       858             0.0000000000
     12518      4173  TIP3      H1            -31.8323349752       -6.6990193232       17.4016228508  WZ3       858             0.0000000000
     12519      4173  TIP3      H2            -32.7934349752       -7.2469493232       16.3682128508  WZ3       858             0.0000000000
     12520      4174  TIP3      OH2           -25.1171949752       -1.4471193232        8.3617928508  WZ3       859             0.0000000000
     12521      4174  TIP3      H1            -24.6434349752       -1.1514893232        9.1392128508  WZ3       859             0.0000000000
     12522      4174  TIP3      H2            -25.6802649752       -0.7089593232        8.1287528508  WZ3       859             0.0000000000
     12523      4175  TIP3      OH2           -30.5830549752       -1.4763093232       18.2379328508  WZ3       860             0.0000000000
     12524      4175  TIP3      H1            -30.5755249752       -1.6123393232       17.2904828508  WZ3       860             0.0000000000
     12525      4175  TIP3      H2            -31.4990149752       -1.5934993232       18.4899328508  WZ3       860             0.0000000000
     12526      4176  TIP3      OH2           -19.1448449752      -16.4339293232        4.7394528508  WZ3       861             0.0000000000
     12527      4176  TIP3      H1            -20.0447749752      -16.2950293232        5.0345128508  WZ3       861             0.0000000000
     12528      4176  TIP3      H2            -18.8930049752      -15.6024693232        4.3376228508  WZ3       861             0.0000000000
     12529      4177  TIP3      OH2           -31.0789949752       -7.6462093232        6.7131428508  WZ3       862             0.0000000000
     12530      4177  TIP3      H1            -31.3708649752       -6.8780393232        6.2222728508  WZ3       862             0.0000000000
     12531      4177  TIP3      H2            -31.7534749752       -8.3055893232        6.5502828508  WZ3       862             0.0000000000
     12532      4178  TIP3      OH2           -17.9557049752       -2.0676893232        3.1158428508  WZ3       863             0.0000000000
     12533      4178  TIP3      H1            -17.8823549752       -1.1286693232        3.2863728508  WZ3       863             0.0000000000
     12534      4178  TIP3      H2            -17.0501949752       -2.3728293232        3.0595728508  WZ3       863             0.0000000000
     12535      4179  TIP3      OH2           -34.9859849752       -5.2832893232       15.5281228508  WZ3       864             0.0000000000
     12536      4179  TIP3      H1            -35.4871449752       -5.3113493232       14.7130928508  WZ3       864             0.0000000000
     12537      4179  TIP3      H2            -34.9806149752       -6.1889693232       15.8378528508  WZ3       864             0.0000000000
     12538      4180  TIP3      OH2           -35.2357149752       -2.5029093232       12.4121428508  WZ3       865             0.0000000000
     12539      4180  TIP3      H1            -34.2896549752       -2.6472093232       12.3930928508  WZ3       865             0.0000000000
     12540      4180  TIP3      H2            -35.3480849752       -1.7186293232       12.9492628508  WZ3       865             0.0000000000
     12541      4181  TIP3      OH2           -17.0378649752       -1.8369393232       18.0945128508  WZ3       866             0.0000000000
     12542      4181  TIP3      H1            -17.0871849752       -2.7921293232       18.0572728508  WZ3       866             0.0000000000
     12543      4181  TIP3      H2            -17.8646349752       -1.5694093232       18.4958928508  WZ3       866             0.0000000000
     12544      4182  TIP3      OH2           -26.0594649752       -2.2630193232       16.9706528508  WZ3       867             0.0000000000
     12545      4182  TIP3      H1            -25.9720049752       -1.4365593232       17.4455628508  WZ3       867             0.0000000000
     12546      4182  TIP3      H2            -26.9229549752       -2.5926393232       17.2195828508  WZ3       867             0.0000000000
     12547      4183  TIP3      OH2           -25.6448849752        1.5093506768        6.7767128508  WZ3       868             0.0000000000
     12548      4183  TIP3      H1            -25.7202849752        1.3880706768        5.8302328508  WZ3       868             0.0000000000
     12549      4183  TIP3      H2            -25.6120149752        2.4586206768        6.8951728508  WZ3       868             0.0000000000
     12550      4184  TIP3      OH2           -31.9915049752        0.2980506768        8.5576128508  WZ3       869             0.0000000000
     12551      4184  TIP3      H1            -31.8394649752       -0.0499093232        9.4362628508  WZ3       869             0.0000000000
     12552      4184  TIP3      H2            -32.8424649752       -0.0582193232        8.3023328508  WZ3       869             0.0000000000
     12553      4185  TIP3      OH2           -22.5432849752        0.6633706768        3.7789528508  WZ3       870             0.0000000000
     12554      4185  TIP3      H1            -22.1684449752       -0.0810193232        3.3082128508  WZ3       870             0.0000000000
     12555      4185  TIP3      H2            -22.5389149752        0.3934306768        4.6972828508  WZ3       870             0.0000000000
     12556      4186  TIP3      OH2           -22.8744749752        0.5890806768        6.5281728508  WZ3       871             0.0000000000
     12557      4186  TIP3      H1            -23.8094949752        0.6892706768        6.7068728508  WZ3       871             0.0000000000
     12558      4186  TIP3      H2            -22.5942849752       -0.1203193232        7.1064928508  WZ3       871             0.0000000000
     12559      4187  TIP3      OH2           -19.8858849752      -10.3436893232       18.5747328508  WZ3       872             0.0000000000
     12560      4187  TIP3      H1            -20.2932049752       -9.8631293232       17.8540628508  WZ3       872             0.0000000000
     12561      4187  TIP3      H2            -19.8453149752      -11.2490893232       18.2668128508  WZ3       872             0.0000000000
     12562      4188  TIP3      OH2           -32.7369349752       -3.9597493232       16.5714028508  WZ3       873             0.0000000000
     12563      4188  TIP3      H1            -32.5208049752       -4.3211893232       17.4309828508  WZ3       873             0.0000000000
     12564      4188  TIP3      H2            -33.5924649752       -4.3343693232       16.3617528508  WZ3       873             0.0000000000
     12565      4189  TIP3      OH2           -30.1181349752      -15.4896993232       12.5668228508  WZ3       874             0.0000000000
     12566      4189  TIP3      H1            -30.9797649752      -15.5768793232       12.1591128508  WZ3       874             0.0000000000
     12567      4189  TIP3      H2            -30.1405649752      -14.6336893232       12.9945828508  WZ3       874             0.0000000000
     12568      4190  TIP3      OH2           -25.4553549752      -15.7676593232       15.9415228508  WZ3       875             0.0000000000
     12569      4190  TIP3      H1            -25.0350449752      -16.1829493232       16.6945828508  WZ3       875             0.0000000000
     12570      4190  TIP3      H2            -26.3883949752      -15.9463293232       16.0587228508  WZ3       875             0.0000000000
     12571      4191  TIP3      OH2           -22.1288649752      -12.0121393232       16.7949728508  WZ3       876             0.0000000000
     12572      4191  TIP3      H1            -22.6429149752      -12.1379193232       17.5925728508  WZ3       876             0.0000000000
     12573      4191  TIP3      H2            -22.2843949752      -11.0998293232       16.5505928508  WZ3       876             0.0000000000
     12574      4192  TIP3      OH2           -21.3663749752       -7.1511393232        2.5562728508  WZ3       877             0.0000000000
     12575      4192  TIP3      H1            -21.3242949752       -7.3737493232        1.6262728508  WZ3       877             0.0000000000
     12576      4192  TIP3      H2            -20.5171649752       -6.7524293232        2.7462628508  WZ3       877             0.0000000000
     12577      4193  TIP3      OH2           -25.7936249752      -13.2753193232        3.2266028508  WZ3       878             0.0000000000
     12578      4193  TIP3      H1            -26.0471449752      -13.2561593232        4.1494128508  WZ3       878             0.0000000000
     12579      4193  TIP3      H2            -26.0504149752      -14.1467793232        2.9252228508  WZ3       878             0.0000000000
     12580      4194  TIP3      OH2           -30.0271249752      -10.5242493232       13.6618428508  WZ3       879             0.0000000000
     12581      4194  TIP3      H1            -30.6689149752      -10.5645193232       14.3708528508  WZ3       879             0.0000000000
     12582      4194  TIP3      H2            -29.9899249752       -9.5977793232       13.4241428508  WZ3       879             0.0000000000
     12583      4195  TIP3      OH2           -30.0302149752      -10.3032393232        8.5738428508  WZ3       880             0.0000000000
     12584      4195  TIP3      H1            -30.9229249752      -10.6436293232        8.5152228508  WZ3       880             0.0000000000
     12585      4195  TIP3      H2            -29.5795549752      -10.6801493232        7.8181628508  WZ3       880             0.0000000000
     12586      4196  TIP3      OH2           -24.4946649752       -9.8872093232        7.3909228508  WZ3       881             0.0000000000
     12587      4196  TIP3      H1            -24.9036349752       -9.0723493232        7.0994028508  WZ3       881             0.0000000000
     12588      4196  TIP3      H2            -23.7740449752      -10.0271993232        6.7766328508  WZ3       881             0.0000000000
     12589      4197  TIP3      OH2           -25.3925049752       -9.7115693232       18.8789928508  WZ3       882             0.0000000000
     12590      4197  TIP3      H1            -25.9551249752      -10.4164093232       19.1997728508  WZ3       882             0.0000000000
     12591      4197  TIP3      H2            -24.5661649752       -9.8323793232       19.3467528508  WZ3       882             0.0000000000
     12592      4198  TIP3      OH2           -23.4898949752      -10.4411693232       10.2048928508  WZ3       883             0.0000000000
     12593      4198  TIP3      H1            -23.6854449752       -9.8354893232        9.4899528508  WZ3       883             0.0000000000
     12594      4198  TIP3      H2            -23.3086349752      -11.2746493232        9.7705228508  WZ3       883             0.0000000000
     12595      4199  TIP3      OH2           -32.2770749752      -10.2038993232       15.5290428508  WZ3       884             0.0000000000
     12596      4199  TIP3      H1            -32.3151349752       -9.8037393232       16.3977528508  WZ3       884             0.0000000000
     12597      4199  TIP3      H2            -32.7679649752      -11.0206593232       15.6193328508  WZ3       884             0.0000000000
     12598      4200  TIP3      OH2           -28.9113349752      -12.8296693232        2.3276428508  WZ3       885             0.0000000000
     12599      4200  TIP3      H1            -29.3422649752      -13.2746593232        3.0573828508  WZ3       885             0.0000000000
     12600      4200  TIP3      H2            -29.6294649752      -12.4580393232        1.8153928508  WZ3       885             0.0000000000
     12601      4201  TIP3      OH2           -35.6689949752      -13.0877193232        9.3795128508  WZ3       886             0.0000000000
     12602      4201  TIP3      H1            -35.0382249752      -13.1165093232       10.0989028508  WZ3       886             0.0000000000
     12603      4201  TIP3      H2            -35.2195649752      -13.5128493232        8.6491028508  WZ3       886             0.0000000000
     12604      4202  TIP3      OH2           -34.3947849752      -12.3415193232        4.8035528508  WZ3       887             0.0000000000
     12605      4202  TIP3      H1            -33.9206149752      -11.7505293232        4.2186428508  WZ3       887             0.0000000000
     12606      4202  TIP3      H2            -35.1121449752      -11.8112293232        5.1505628508  WZ3       887             0.0000000000
     12607      4203  TIP3      OH2           -24.2259749752       -8.8030393232       14.8761328508  WZ3       888             0.0000000000
     12608      4203  TIP3      H1            -23.9024949752       -9.4340693232       14.2331828508  WZ3       888             0.0000000000
     12609      4203  TIP3      H2            -24.6660449752       -9.3378193232       15.5368728508  WZ3       888             0.0000000000
     12610      4204  TIP3      OH2           -27.4486849752      -12.8754893232        9.6602528508  WZ3       889             0.0000000000
     12611      4204  TIP3      H1            -28.3595749752      -12.8188093232        9.9488528508  WZ3       889             0.0000000000
     12612      4204  TIP3      H2            -26.9433949752      -12.9359393232       10.4709728508  WZ3       889             0.0000000000
     12613      4205  TIP3      OH2           -32.6203449752      -11.2468593232        8.4870128508  WZ3       890             0.0000000000
     12614      4205  TIP3      H1            -33.5095449752      -11.1473093232        8.1469728508  WZ3       890             0.0000000000
     12615      4205  TIP3      H2            -32.3238549752      -12.0885593232        8.1408028508  WZ3       890             0.0000000000
     12616      4206  TIP3      OH2           -28.9671649752      -11.2465993232        6.1434728508  WZ3       891             0.0000000000
     12617      4206  TIP3      H1            -28.0356149752      -11.1175993232        6.3217828508  WZ3       891             0.0000000000
     12618      4206  TIP3      H2            -29.1821349752      -10.5771693232        5.4939428508  WZ3       891             0.0000000000
     12619      4207  TIP3      OH2           -23.0434949752      -13.6408593232       12.9244328508  WZ3       892             0.0000000000
     12620      4207  TIP3      H1            -23.7203349752      -13.5095493232       13.5884028508  WZ3       892             0.0000000000
     12621      4207  TIP3      H2            -23.5290049752      -13.7959093232       12.1142028508  WZ3       892             0.0000000000
     12622      4208  TIP3      OH2           -30.2931449752      -10.0523793232        3.7100828508  WZ3       893             0.0000000000
     12623      4208  TIP3      H1            -30.8356349752      -10.4319993232        3.0188428508  WZ3       893             0.0000000000
     12624      4208  TIP3      H2            -29.4596549752       -9.8579093232        3.2814928508  WZ3       893             0.0000000000
     12625      4209  TIP3      OH2           -19.7559849752        2.0306806768       19.2011928508  WZ3       894             0.0000000000
     12626      4209  TIP3      H1            -19.5561149752        2.4548706768       18.3667228508  WZ3       894             0.0000000000
     12627      4209  TIP3      H2            -19.1006149752        2.3745006768       19.8082328508  WZ3       894             0.0000000000
     12628      4210  TIP3      OH2           -26.1287149752      -10.0881893232       11.5472128508  WZ3       896             0.0000000000
     12629      4210  TIP3      H1            -25.5643749752      -10.6345293232       11.0001728508  WZ3       896             0.0000000000
     12630      4210  TIP3      H2            -26.2763749752      -10.6099993232       12.3359728508  WZ3       896             0.0000000000
     12631      4211  TIP3      OH2           -31.1267449752      -13.9515793232        7.9656928508  WZ3       897             0.0000000000
     12632      4211  TIP3      H1            -31.4437949752      -14.8540493232        7.9302328508  WZ3       897             0.0000000000
     12633      4211  TIP3      H2            -30.3453349752      -13.9498393232        7.4128528508  WZ3       897             0.0000000000
     12634      4212  TIP3      OH2           -27.5021249752      -11.6995793232       13.9612528508  WZ3       898             0.0000000000
     12635      4212  TIP3      H1            -28.3375949752      -11.2456293232       14.0714928508  WZ3       898             0.0000000000
     12636      4212  TIP3      H2            -26.9780649752      -11.4237293232       14.7132428508  WZ3       898             0.0000000000
     12637      4213  TIP3      OH2           -26.9578649752       -5.4868093232        5.6458928508  WZ3       899             0.0000000000
     12638      4213  TIP3      H1            -27.7027649752       -5.9942793232        5.3236828508  WZ3       899             0.0000000000
     12639      4213  TIP3      H2            -27.0921449752       -5.4380093232        6.5923728508  WZ3       899             0.0000000000
     12640      4214  TIP3      OH2           -19.8079749752       -6.3539893232       14.4326528508  WZ3       900             0.0000000000
     12641      4214  TIP3      H1            -19.1660949752       -5.8973593232       13.8888728508  WZ3       900             0.0000000000
     12642      4214  TIP3      H2            -20.6382849752       -6.2407493232       13.9700628508  WZ3       900             0.0000000000
     12643      4215  TIP3      OH2           -23.0601849752      -12.6728193232        3.8451528508  WZ3       901             0.0000000000
     12644      4215  TIP3      H1            -23.9987649752      -12.5612593232        3.6940328508  WZ3       901             0.0000000000
     12645      4215  TIP3      H2            -22.7629749752      -11.8161293232        4.1517228508  WZ3       901             0.0000000000
     12646      4216  TIP3      OH2           -25.4386549752       -5.3024793232       16.8828028508  WZ3       902             0.0000000000
     12647      4216  TIP3      H1            -25.7840449752       -5.6842393232       17.6897628508  WZ3       902             0.0000000000
     12648      4216  TIP3      H2            -25.6386449752       -4.3691193232       16.9540928508  WZ3       902             0.0000000000
     12649      4217  TIP3      OH2           -22.3418349752      -10.8055493232        5.5058928508  WZ3       903             0.0000000000
     12650      4217  TIP3      H1            -21.4499349752      -10.9430493232        5.8250128508  WZ3       903             0.0000000000
     12651      4217  TIP3      H2            -22.2854749752      -10.0149393232        4.9692428508  WZ3       903             0.0000000000
     12652      4218  TIP3      OH2           -31.8330349752       -6.1918093232       11.4156828508  WZ3       904             0.0000000000
     12653      4218  TIP3      H1            -31.0883149752       -6.1942393232       10.8143328508  WZ3       904             0.0000000000
     12654      4218  TIP3      H2            -31.7553749752       -7.0154293232       11.8971928508  WZ3       904             0.0000000000
     12655      4219  TIP3      OH2           -24.8324549752       -4.0283793232        4.6713528508  WZ3       905             0.0000000000
     12656      4219  TIP3      H1            -25.1276149752       -3.2015893232        5.0528328508  WZ3       905             0.0000000000
     12657      4219  TIP3      H2            -25.5354549752       -4.6476893232        4.8674928508  WZ3       905             0.0000000000
     12658      4220  TIP3      OH2           -27.8085749752       -8.2141293232       18.9435028508  WZ3       907             0.0000000000
     12659      4220  TIP3      H1            -28.1044949752       -8.3798293232       18.0484128508  WZ3       907             0.0000000000
     12660      4220  TIP3      H2            -26.8770549752       -8.4340993232       18.9328928508  WZ3       907             0.0000000000
     12661      4221  TIP3      OH2           -23.1882949752       -2.8409293232       16.8333028508  WZ3       908             0.0000000000
     12662      4221  TIP3      H1            -24.0888649752       -2.6576693232       16.5656928508  WZ3       908             0.0000000000
     12663      4221  TIP3      H2            -23.1541849752       -2.5819993232       17.7541828508  WZ3       908             0.0000000000
     12664      4222  TIP3      OH2           -17.4569649752      -10.5961393232        5.2005628508  WZ3       909             0.0000000000
     12665      4222  TIP3      H1            -18.0113349752      -10.9923393232        4.5283128508  WZ3       909             0.0000000000
     12666      4222  TIP3      H2            -17.3566049752       -9.6856193232        4.9228928508  WZ3       909             0.0000000000
     12667      4223  TIP3      OH2           -17.4937649752       -4.7959693232       18.0377128508  WZ3       910             0.0000000000
     12668      4223  TIP3      H1            -18.3449149752       -4.5575893232       17.6703528508  WZ3       910             0.0000000000
     12669      4223  TIP3      H2            -16.9034249752       -4.8126493232       17.2844228508  WZ3       910             0.0000000000
     12670      4224  TIP3      OH2           -19.1617949752       -1.8100993232        5.6657728508  WZ3       911             0.0000000000
     12671      4224  TIP3      H1            -19.5346849752       -2.6357193232        5.9748328508  WZ3       911             0.0000000000
     12672      4224  TIP3      H2            -18.8844449752       -1.9931593232        4.7681128508  WZ3       911             0.0000000000
     12673      4225  TIP3      OH2           -22.0014049752       -7.0021493232       12.6869628508  WZ3       912             0.0000000000
     12674      4225  TIP3      H1            -22.9297149752       -7.2339593232       12.6598928508  WZ3       912             0.0000000000
     12675      4225  TIP3      H2            -21.5502949752       -7.7791693232       12.3568428508  WZ3       912             0.0000000000
     12676      4226  TIP3      OH2           -29.4580949752       -2.6739893232        8.8198328508  WZ3       913             0.0000000000
     12677      4226  TIP3      H1            -28.9308749752       -1.9005493232        8.6197128508  WZ3       913             0.0000000000
     12678      4226  TIP3      H2            -30.3382449752       -2.4490693232        8.5182328508  WZ3       913             0.0000000000
     12679      4227  TIP3      OH2           -33.7033249752       -7.8115793232        3.4070728508  WZ3       914             0.0000000000
     12680      4227  TIP3      H1            -33.0873349752       -7.1848593232        3.7865528508  WZ3       914             0.0000000000
     12681      4227  TIP3      H2            -34.5650649752       -7.4955993232        3.6787228508  WZ3       914             0.0000000000
     12682      4228  TIP3      OH2           -28.0308649752       -5.0109993232        8.3962628508  WZ3       915             0.0000000000
     12683      4228  TIP3      H1            -28.2718649752       -4.0855593232        8.4377928508  WZ3       915             0.0000000000
     12684      4228  TIP3      H2            -28.7715049752       -5.4698693232        8.7926528508  WZ3       915             0.0000000000
     12685      4229  TIP3      OH2           -27.5162049752       -0.8616393232       14.7113728508  WZ3       916             0.0000000000
     12686      4229  TIP3      H1            -27.1537349752       -0.0070793232       14.4778128508  WZ3       916             0.0000000000
     12687      4229  TIP3      H2            -26.9846849752       -1.1534793232       15.4520028508  WZ3       916             0.0000000000
     12688      4230  TIP3      OH2           -29.3477849752        0.0107606768        7.9414828508  WZ3       917             0.0000000000
     12689      4230  TIP3      H1            -30.2977349752        0.1165006768        7.9928128508  WZ3       917             0.0000000000
     12690      4230  TIP3      H2            -28.9959749752        0.8315006768        8.2862328508  WZ3       917             0.0000000000
     12691      4231  TIP3      OH2           -23.9721249752       -4.7625693232       14.4119328508  WZ3       918             0.0000000000
     12692      4231  TIP3      H1            -24.3979949752       -4.9903993232       15.2383328508  WZ3       918             0.0000000000
     12693      4231  TIP3      H2            -23.3915449752       -5.5013893232       14.2294628508  WZ3       918             0.0000000000
     12694      4232  TIP3      OH2           -21.7692349752       -3.8335193232        3.4858328508  WZ3       919             0.0000000000
     12695      4232  TIP3      H1            -21.4159249752       -4.2135393232        4.2901828508  WZ3       919             0.0000000000
     12696      4232  TIP3      H2            -22.7178849752       -3.9270393232        3.5727628508  WZ3       919             0.0000000000
     12697      4233  TIP3      OH2           -21.3137049752       -0.2106193232       16.8814128508  WZ3       920             0.0000000000
     12698      4233  TIP3      H1            -21.9153849752       -0.7663293232       16.3860428508  WZ3       920             0.0000000000
     12699      4233  TIP3      H2            -21.0323349752        0.4563606768       16.2551528508  WZ3       920             0.0000000000
     12700      4234  TIP3      OH2           -17.2657949752        0.6457306768        3.6868528508  WZ3       921             0.0000000000
     12701      4234  TIP3      H1            -16.5220049752        1.2317806768        3.5470128508  WZ3       921             0.0000000000
     12702      4234  TIP3      H2            -17.9599849752        1.2143106768        4.0200928508  WZ3       921             0.0000000000
     12703      4235  TIP3      OH2           -20.9033049752       -5.1613193232        5.7126228508  WZ3       923             0.0000000000
     12704      4235  TIP3      H1            -21.1805449752       -5.8893893232        6.2687328508  WZ3       923             0.0000000000
     12705      4235  TIP3      H2            -19.9760049752       -5.0421193232        5.9178828508  WZ3       923             0.0000000000
     12706      4236  TIP3      OH2           -33.5399149752       -1.1734093232       14.7236128508  WZ3       924             0.0000000000
     12707      4236  TIP3      H1            -33.3228849752       -2.1051693232       14.6925828508  WZ3       924             0.0000000000
     12708      4236  TIP3      H2            -33.2935649752       -0.8989093232       15.6068928508  WZ3       924             0.0000000000
     12709      4237  TIP3      OH2           -27.6784549752       -2.7219093232        1.9328328508  WZ3       925             0.0000000000
     12710      4237  TIP3      H1            -27.4394749752       -3.4700993232        1.3857228508  WZ3       925             0.0000000000
     12711      4237  TIP3      H2            -27.9473249752       -3.1097393232        2.7656128508  WZ3       925             0.0000000000
     12712      4238  TIP3      OH2           -28.7413949752       -3.1515293232        4.3890928508  WZ3       926             0.0000000000
     12713      4238  TIP3      H1            -28.5945949752       -3.6715493232        5.1791828508  WZ3       926             0.0000000000
     12714      4238  TIP3      H2            -28.7442249752       -2.2447693232        4.6956828508  WZ3       926             0.0000000000
     12715      4239  TIP3      OH2           -32.2882849752       -5.8991993232        4.8996328508  WZ3       927             0.0000000000
     12716      4239  TIP3      H1            -32.9743549752       -5.5469493232        5.4666028508  WZ3       927             0.0000000000
     12717      4239  TIP3      H2            -31.7654949752       -5.1362393232        4.6530628508  WZ3       927             0.0000000000
     12718      4240  TIP3      OH2           -24.4567749752      -13.2368193232       15.1785328508  WZ3       928             0.0000000000
     12719      4240  TIP3      H1            -23.7579849752      -13.1629493232       15.8285028508  WZ3       928             0.0000000000
     12720      4240  TIP3      H2            -24.8376349752      -14.1013193232       15.3328228508  WZ3       928             0.0000000000
     12721      4241  TIP3      OH2           -23.6722849752      -13.5846493232        6.2757628508  WZ3       929             0.0000000000
     12722      4241  TIP3      H1            -23.4524549752      -13.1131093232        5.4723028508  WZ3       929             0.0000000000
     12723      4241  TIP3      H2            -23.1138849752      -13.1903893232        6.9458228508  WZ3       929             0.0000000000
     12724      4242  TIP3      OH2           -26.0036749752       -1.4541693232        5.1385128508  WZ3       930             0.0000000000
     12725      4242  TIP3      H1            -26.8200649752       -0.9571993232        5.1909428508  WZ3       930             0.0000000000
     12726      4242  TIP3      H2            -25.4740449752       -0.9788193232        4.4983928508  WZ3       930             0.0000000000
     12727      4243  TIP3      OH2           -26.4722949752      -11.8567693232        7.1106028508  WZ3       931             0.0000000000
     12728      4243  TIP3      H1            -25.6600349752      -11.3524493232        7.1567728508  WZ3       931             0.0000000000
     12729      4243  TIP3      H2            -26.7169949752      -12.0017993232        8.0245628508  WZ3       931             0.0000000000
     12730      4244  TIP3      OH2           -25.9366549752      -10.8704993232       16.2952628508  WZ3       932             0.0000000000
     12731      4244  TIP3      H1            -25.8176249752      -10.2969593232       17.0523028508  WZ3       932             0.0000000000
     12732      4244  TIP3      H2            -25.2811949752      -11.5585593232       16.4100428508  WZ3       932             0.0000000000
     12733      4245  TIP3      OH2           -25.5886249752      -14.7754693232        8.0487128508  WZ3       933             0.0000000000
     12734      4245  TIP3      H1            -25.9352749752      -14.1584093232        8.6931428508  WZ3       933             0.0000000000
     12735      4245  TIP3      H2            -24.9299349752      -14.2748993232        7.5672628508  WZ3       933             0.0000000000
     12736      4246  TIP3      OH2           -28.6653649752       -0.4104493232        5.1202028508  WZ3       934             0.0000000000
     12737      4246  TIP3      H1            -28.5044949752        0.3893006768        4.6194628508  WZ3       934             0.0000000000
     12738      4246  TIP3      H2            -28.8625849752       -0.1038493232        6.0052628508  WZ3       934             0.0000000000
     12739      4247  TIP3      OH2           -29.9309249752      -13.7125293232        4.7359628508  WZ3       935             0.0000000000
     12740      4247  TIP3      H1            -30.0144449752      -12.8242193232        5.0826028508  WZ3       935             0.0000000000
     12741      4247  TIP3      H2            -29.0408949752      -13.9778593232        4.9676428508  WZ3       935             0.0000000000
     12742      4248  TIP3      OH2           -19.7320749752      -12.9634693232       17.1302328508  WZ3       936             0.0000000000
     12743      4248  TIP3      H1            -20.6484949752      -12.7012993232       17.0426028508  WZ3       936             0.0000000000
     12744      4248  TIP3      H2            -19.3965749752      -12.9665693232       16.2337628508  WZ3       936             0.0000000000
     12745      4249  TIP3      OH2           -21.1299749752       -9.2133693232       11.2259628508  WZ3       937             0.0000000000
     12746      4249  TIP3      H1            -21.9275349752       -9.6283493232       10.8974628508  WZ3       937             0.0000000000
     12747      4249  TIP3      H2            -20.6848649752       -9.9039993232       11.7170128508  WZ3       937             0.0000000000
     12748      4250  TIP3      OH2           -31.6723949752       -3.2853093232        3.7964128508  WZ3       938             0.0000000000
     12749      4250  TIP3      H1            -31.0802449752       -2.5858293232        4.0726528508  WZ3       938             0.0000000000
     12750      4250  TIP3      H2            -31.2130949752       -3.7183593232        3.0768728508  WZ3       938             0.0000000000
     12751      4251  TIP3      OH2           -33.3564749752      -10.6210093232        2.9123528508  WZ3       939             0.0000000000
     12752      4251  TIP3      H1            -33.4012149752       -9.6816993232        3.0910528508  WZ3       939             0.0000000000
     12753      4251  TIP3      H2            -34.2441549752      -10.8565193232        2.6425628508  WZ3       939             0.0000000000
     12754      4252  TIP3      OH2           -20.0435149752        0.0428806768       12.8483128508  WZ3       940             0.0000000000
     12755      4252  TIP3      H1            -20.1990849752        0.7213206768       12.1912428508  WZ3       940             0.0000000000
     12756      4252  TIP3      H2            -19.1108749752        0.1148106768       13.0513728508  WZ3       940             0.0000000000
     12757      4253  TIP3      OH2           -32.5482749752      -15.8393493232       11.5854528508  WZ3       941             0.0000000000
     12758      4253  TIP3      H1            -32.7772949752      -15.7800993232       10.6579528508  WZ3       941             0.0000000000
     12759      4253  TIP3      H2            -32.9909349752      -16.6307993232       11.8918628508  WZ3       941             0.0000000000
     12760      4254  TIP3      OH2           -33.6179449752       -1.8986393232        7.7460328508  WZ3       942             0.0000000000
     12761      4254  TIP3      H1            -34.4500849752       -1.4263693232        7.7731728508  WZ3       942             0.0000000000
     12762      4254  TIP3      H2            -33.0721149752       -1.3888793232        7.1473428508  WZ3       942             0.0000000000
     12763      4255  TIP3      OH2           -34.3295749752        0.7137306768       19.0758328508  WZ3       943             0.0000000000
     12764      4255  TIP3      H1            -33.7893549752        0.4971306768       19.8357528508  WZ3       943             0.0000000000
     12765      4255  TIP3      H2            -34.8107749752       -0.0916693232       18.8860828508  WZ3       943             0.0000000000
     12766      4256  TIP3      OH2           -29.7322349752       -0.3668293232       20.6962528508  WZ3       944             0.0000000000
     12767      4256  TIP3      H1            -28.9645149752       -0.8257493232       21.0371728508  WZ3       944             0.0000000000
     12768      4256  TIP3      H2            -29.7536149752       -0.5928493232       19.7663728508  WZ3       944             0.0000000000
     12769      4257  TIP3      OH2           -25.6402749752       -0.8587693232        2.0714328508  WZ3       945             0.0000000000
     12770      4257  TIP3      H1            -26.2841749752       -1.4899093232        2.3928028508  WZ3       945             0.0000000000
     12771      4257  TIP3      H2            -24.8784449752       -1.3899693232        1.8397828508  WZ3       945             0.0000000000
     12772      4258  TIP3      OH2           -23.1553649752       -1.9867193232       19.4254028508  WZ3       946             0.0000000000
     12773      4258  TIP3      H1            -23.5064149752       -2.8434193232       19.6684428508  WZ3       946             0.0000000000
     12774      4258  TIP3      H2            -22.4290449752       -1.8440493232       20.0323028508  WZ3       946             0.0000000000
     12775      4259  TIP3      OH2           -21.0359849752       -1.0417793232        2.3052328508  WZ3       947             0.0000000000
     12776      4259  TIP3      H1            -20.7529449752       -1.8362593232        2.7579228508  WZ3       947             0.0000000000
     12777      4259  TIP3      H2            -20.2961949752       -0.8086793232        1.7443428508  WZ3       947             0.0000000000
     12778      4260  TIP3      OH2           -30.0812549752       -5.1322893232        2.1627228508  WZ3       949             0.0000000000
     12779      4260  TIP3      H1            -30.0168449752       -5.9263293232        2.6933628508  WZ3       949             0.0000000000
     12780      4260  TIP3      H2            -29.4283349752       -5.2510093232        1.4729228508  WZ3       949             0.0000000000
     12781      4261  TIP3      OH2           -27.7670149752       -5.5060493232       19.4629028508  WZ3       950             0.0000000000
     12782      4261  TIP3      H1            -28.0956349752       -5.2352393232       18.6056428508  WZ3       950             0.0000000000
     12783      4261  TIP3      H2            -27.6151949752       -6.4470693232       19.3754028508  WZ3       950             0.0000000000
     12784      4262  TIP3      OH2           -24.7289149752       -4.0851193232        1.8985228508  WZ3       951             0.0000000000
     12785      4262  TIP3      H1            -24.9975049752       -3.9049093232        2.7994128508  WZ3       951             0.0000000000
     12786      4262  TIP3      H2            -24.9353549752       -5.0104993232        1.7671028508  WZ3       951             0.0000000000
     12787      4263  TIP3      OH2           -22.0324949752       -5.5903193232       16.8461328508  WZ3       952             0.0000000000
     12788      4263  TIP3      H1            -21.2870149752       -5.0019493232       16.7265328508  WZ3       952             0.0000000000
     12789      4263  TIP3      H2            -22.7898149752       -5.0083493232       16.9094428508  WZ3       952             0.0000000000
     12790      4264  TIP3      OH2           -28.9318749752       -7.1596693232        4.4685228508  WZ3       954             0.0000000000
     12791      4264  TIP3      H1            -29.3916749752       -7.6438393232        5.1543728508  WZ3       954             0.0000000000
     12792      4264  TIP3      H2            -28.6770049752       -7.8281293232        3.8325728508  WZ3       954             0.0000000000
     12793      4265  TIP3      OH2           -29.6429449752       -9.2669593232       16.8244828508  WZ3       955             0.0000000000
     12794      4265  TIP3      H1            -30.2613349752       -8.5922993232       17.1049528508  WZ3       955             0.0000000000
     12795      4265  TIP3      H2            -29.2988249752       -8.9455693232       15.9911028508  WZ3       955             0.0000000000
     12796      4266  TIP3      OH2           -27.8608349752       -8.9164893232        2.7308428508  WZ3       956             0.0000000000
     12797      4266  TIP3      H1            -28.0413349752       -9.0713693232        1.8036728508  WZ3       956             0.0000000000
     12798      4266  TIP3      H2            -26.9107849752       -8.8086193232        2.7756328508  WZ3       956             0.0000000000
     12799      4267  TIP3      OH2           -24.6231249752       -6.7954293232       20.1019628508  WZ3       957             0.0000000000
     12800      4267  TIP3      H1            -23.6700049752       -6.7115193232       20.0745628508  WZ3       957             0.0000000000
     12801      4267  TIP3      H2            -24.7836649752       -7.5072493232       20.7214528508  WZ3       957             0.0000000000
     12802      4268  TIP3      OH2           -18.4710049752       -6.5620693232        2.1766528508  WZ3       958             0.0000000000
     12803      4268  TIP3      H1            -18.7445249752       -6.9865193232        1.3634828508  WZ3       958             0.0000000000
     12804      4268  TIP3      H2            -18.4315949752       -5.6306193232        1.9596928508  WZ3       958             0.0000000000
     12805      4269  TIP3      OH2           -29.3035749752      -11.9118793232       17.9067928508  WZ3       959             0.0000000000
     12806      4269  TIP3      H1            -29.1534849752      -12.6407493232       17.3047628508  WZ3       959             0.0000000000
     12807      4269  TIP3      H2            -29.3013349752      -11.1347093232       17.3480128508  WZ3       959             0.0000000000
     12808      4270  TIP3      OH2           -28.8910049752      -13.5422993232       15.3995328508  WZ3       960             0.0000000000
     12809      4270  TIP3      H1            -28.3552549752      -13.0906293232       14.7474628508  WZ3       960             0.0000000000
     12810      4270  TIP3      H2            -29.7430449752      -13.6503193232       14.9769428508  WZ3       960             0.0000000000
     12811      4271  TIP3      OH2           -27.3091649752       -8.1026793232       15.6390528508  WZ3       961             0.0000000000
     12812      4271  TIP3      H1            -26.5586849752       -8.2589293232       15.0658328508  WZ3       961             0.0000000000
     12813      4271  TIP3      H2            -27.6483349752       -7.2510193232       15.3636028508  WZ3       961             0.0000000000
     12814      4272  TIP3      OH2           -22.8935449752      -10.2874993232       20.6675828508  WZ3       962             0.0000000000
     12815      4272  TIP3      H1            -22.7014149752      -11.2185593232       20.5560328508  WZ3       962             0.0000000000
     12816      4272  TIP3      H2            -22.0359149752       -9.8625493232       20.6571228508  WZ3       962             0.0000000000
     12817      4273  TIP3      OH2           -21.5768249752       -7.4989793232       18.7448528508  WZ3       963             0.0000000000
     12818      4273  TIP3      H1            -21.8583249752       -6.7895193232       18.1672328508  WZ3       963             0.0000000000
     12819      4273  TIP3      H2            -20.6343949752       -7.5716793232       18.5939728508  WZ3       963             0.0000000000
     12820      4274  TIP3      OH2           -28.0854549752      -16.0857293232       15.8308928508  WZ3       965             0.0000000000
     12821      4274  TIP3      H1            -28.1834949752      -15.1394093232       15.7255128508  WZ3       965             0.0000000000
     12822      4274  TIP3      H2            -28.8278349752      -16.4583493232       15.3552428508  WZ3       965             0.0000000000
     12823      4275  TIP3      OH2           -24.1057449752      -12.6368393232       18.4700828508  WZ3       967             0.0000000000
     12824      4275  TIP3      H1            -25.0532049752      -12.6048693232       18.6024128508  WZ3       967             0.0000000000
     12825      4275  TIP3      H2            -23.7930749752      -13.2621293232       19.1239028508  WZ3       967             0.0000000000
     12826      4276  TIP3      OH2           -22.4715949752      -14.0027293232       20.4752728508  WZ3       968             0.0000000000
     12827      4276  TIP3      H1            -22.5684149752      -14.9549993232       20.4694628508  WZ3       968             0.0000000000
     12828      4276  TIP3      H2            -22.7932849752      -13.7340493232       21.3358228508  WZ3       968             0.0000000000
     12829      4277  TIP3      OH2           -27.9636649752        1.7738806768        3.7322028508  WZ3       972             0.0000000000
     12830      4277  TIP3      H1            -27.0305949752        1.9317506768        3.8760428508  WZ3       972             0.0000000000
     12831      4277  TIP3      H2            -28.2277849752        2.4491806768        3.1073528508  WZ3       972             0.0000000000
     12832      4278  TIP3      OH2           -34.3951749752       -3.5897393232        3.2150128508  WZ3       973             0.0000000000
     12833      4278  TIP3      H1            -33.4812549752       -3.5108493232        3.4884028508  WZ3       973             0.0000000000
     12834      4278  TIP3      H2            -34.3878649752       -4.2767793232        2.5485728508  WZ3       973             0.0000000000
     12835      4279  TIP3      OH2           -17.3277149752        0.6934506768       13.0775028508  WZ3       976             0.0000000000
     12836      4279  TIP3      H1            -17.3490449752        0.8782906768       14.0164428508  WZ3       976             0.0000000000
     12837      4279  TIP3      H2            -16.6370949752        1.2618506768       12.7366428508  WZ3       976             0.0000000000
     12838      4280  TIP3      OH2           -17.7644249752        0.2605606768       15.9994128508  WZ3       977             0.0000000000
     12839      4280  TIP3      H1            -18.2515549752       -0.4750293232       15.6281528508  WZ3       977             0.0000000000
     12840      4280  TIP3      H2            -17.2151549752       -0.1330493232       16.6773528508  WZ3       977             0.0000000000
     12841      4281  TIP3      OH2           -19.3136949752       -3.9496293232       20.6374428508  WZ3       978             0.0000000000
     12842      4281  TIP3      H1            -20.1795849752       -4.0546593232       21.0316728508  WZ3       978             0.0000000000
     12843      4281  TIP3      H2            -18.9371049752       -3.1912993232       21.0839128508  WZ3       978             0.0000000000
     12844      4282  TIP3      OH2           -18.0127249752       -5.6932593232        6.1516928508  WZ3       979             0.0000000000
     12845      4282  TIP3      H1            -17.1625849752       -5.2721693232        6.2788528508  WZ3       979             0.0000000000
     12846      4282  TIP3      H2            -18.0072149752       -6.4332493232        6.7588328508  WZ3       979             0.0000000000
     12847      4283  TIP3      OH2           -17.6181649752       -7.6395193232        7.9752628508  WZ3       980             0.0000000000
     12848      4283  TIP3      H1            -18.3447049752       -8.1192593232        8.3730228508  WZ3       980             0.0000000000
     12849      4283  TIP3      H2            -17.0368349752       -7.4340493232        8.7074228508  WZ3       980             0.0000000000
     12850      4284  TIP3      OH2           -17.8590449752       -4.8547693232       12.9230228508  WZ3       981             0.0000000000
     12851      4284  TIP3      H1            -17.0256249752       -5.2327693232       12.6423828508  WZ3       981             0.0000000000
     12852      4284  TIP3      H2            -17.7470149752       -3.9116493232       12.8039328508  WZ3       981             0.0000000000
     12853      4285  TIP3      OH2           -19.3728149752       -1.9770193232       15.2298628508  WZ3       982             0.0000000000
     12854      4285  TIP3      H1            -20.0202849752       -1.6518693232       15.8553828508  WZ3       982             0.0000000000
     12855      4285  TIP3      H2            -19.8904149752       -2.4172493232       14.5556928508  WZ3       982             0.0000000000
     12856      4286  TIP3      OH2           -17.3498549752       -7.7386693232        4.3663928508  WZ3       983             0.0000000000
     12857      4286  TIP3      H1            -17.8717449752       -7.3822593232        3.6474828508  WZ3       983             0.0000000000
     12858      4286  TIP3      H2            -17.3829349752       -7.0638893232        5.0444828508  WZ3       983             0.0000000000
     12859      4287  TIP3      OH2           -19.0009549752      -10.4991093232        2.9171028508  WZ3       984             0.0000000000
     12860      4287  TIP3      H1            -18.9045149752       -9.8324093232        2.2370728508  WZ3       984             0.0000000000
     12861      4287  TIP3      H2            -19.1409949752      -11.3144793232        2.4356528508  WZ3       984             0.0000000000
     12862      4288  TIP3      OH2           -19.8314849752       -9.1188693232        8.5381328508  WZ3       985             0.0000000000
     12863      4288  TIP3      H1            -19.9816049752      -10.0640093232        8.5179128508  WZ3       985             0.0000000000
     12864      4288  TIP3      H2            -20.1850349752       -8.8377293232        9.3820428508  WZ3       985             0.0000000000
     12865      4289  TIP3      OH2           -34.7962449752       -7.0406493232       12.5485128508  WZ3       986             0.0000000000
     12866      4289  TIP3      H1            -34.6119549752       -7.1224793232       11.6128028508  WZ3       986             0.0000000000
     12867      4289  TIP3      H2            -33.9469549752       -7.1649493232       12.9721528508  WZ3       986             0.0000000000
     12868      4290  TIP3      OH2           -18.9751949752       -7.1485393232       18.1769628508  WZ3       987             0.0000000000
     12869      4290  TIP3      H1            -18.3924649752       -7.8833093232       18.3686828508  WZ3       987             0.0000000000
     12870      4290  TIP3      H2            -18.4112649752       -6.3765093232       18.2235428508  WZ3       987             0.0000000000
     12871      4291  TIP3      OH2           -17.4784849752       -9.2459593232       18.8615028508  WZ3       988             0.0000000000
     12872      4291  TIP3      H1            -18.3418149752       -9.6247493232       18.6959728508  WZ3       988             0.0000000000
     12873      4291  TIP3      H2            -16.8741149752       -9.9844793232       18.7870828508  WZ3       988             0.0000000000
     12874      4292  TIP3      OH2           -19.7535749752      -13.0911293232        2.0346528508  WZ3       989             0.0000000000
     12875      4292  TIP3      H1            -19.1429949752      -13.4624493232        2.6714728508  WZ3       989             0.0000000000
     12876      4292  TIP3      H2            -20.5904249752      -13.5124393232        2.2306528508  WZ3       989             0.0000000000
     12877      4293  TIP3      OH2           -20.1210049752      -11.5362893232        7.0006428508  WZ3       990             0.0000000000
     12878      4293  TIP3      H1            -19.8412949752      -12.4432493232        7.1248128508  WZ3       990             0.0000000000
     12879      4293  TIP3      H2            -19.3618349752      -11.1021393232        6.6115628508  WZ3       990             0.0000000000
     12880      4294  TIP3      OH2           -19.5091749752      -10.9545493232       12.4365328508  WZ3       991             0.0000000000
     12881      4294  TIP3      H1            -18.5763749752      -10.7425593232       12.4021328508  WZ3       991             0.0000000000
     12882      4294  TIP3      H2            -19.7444249752      -10.8533393232       13.3588328508  WZ3       991             0.0000000000
     12883      4295  TIP3      OH2           -19.4799849752      -10.2180193232       15.2124728508  WZ3       992             0.0000000000
     12884      4295  TIP3      H1            -20.3228549752       -9.9499793232       15.5784528508  WZ3       992             0.0000000000
     12885      4295  TIP3      H2            -19.0375549752       -9.3958293232       15.0015828508  WZ3       992             0.0000000000
     12886      4296  TIP3      OH2           -17.1968249752      -16.2379993232       20.5659728508  WZ3       994             0.0000000000
     12887      4296  TIP3      H1            -16.8471249752      -16.8916493232       19.9604428508  WZ3       994             0.0000000000
     12888      4296  TIP3      H2            -17.0498749752      -15.4005893232       20.1262328508  WZ3       994             0.0000000000
     12889      4297  TIP3      OH2           -19.5075249752      -14.2733593232        7.0488428508  WZ3       995             0.0000000000
     12890      4297  TIP3      H1            -19.3250249752      -14.7222093232        7.8743428508  WZ3       995             0.0000000000
     12891      4297  TIP3      H2            -20.1072349752      -14.8579193232        6.5853028508  WZ3       995             0.0000000000
     12892      4298  TIP3      OH2           -33.9775149752      -13.4579893232       11.5806828508  WZ3       996             0.0000000000
     12893      4298  TIP3      H1            -33.5323549752      -14.2497393232       11.8826528508  WZ3       996             0.0000000000
     12894      4298  TIP3      H2            -33.5112149752      -12.7414693232       12.0112428508  WZ3       996             0.0000000000
     12895      4299  TIP3      OH2           -35.6734849752      -10.4586893232       12.6497028508  WZ3       997             0.0000000000
     12896      4299  TIP3      H1            -35.1815049752      -10.6796393232       11.8589028508  WZ3       997             0.0000000000
     12897      4299  TIP3      H2            -35.3113949752       -9.6183493232       12.9306528508  WZ3       997             0.0000000000
     12898      4300  TIP3      OH2           -17.6771049752      -14.1285393232       18.9151028508  WZ3       998             0.0000000000
     12899      4300  TIP3      H1            -18.5945349752      -13.8578293232       18.8794528508  WZ3       998             0.0000000000
     12900      4300  TIP3      H2            -17.5541649752      -14.6636993232       18.1310728508  WZ3       998             0.0000000000
     12901      4301  TIP3      OH2           -17.6409049752      -14.2055493232        3.5768728508  WZ3       999             0.0000000000
     12902      4301  TIP3      H1            -17.2286449752      -14.9269793232        3.1016728508  WZ3       999             0.0000000000
     12903      4301  TIP3      H2            -16.9592549752      -13.5360893232        3.6353028508  WZ3       999             0.0000000000
     12904      4302  TIP3      OH2           -35.3598349752      -14.2007793232        6.7039428508  WZ3       1000            0.0000000000
     12905      4302  TIP3      H1            -36.2849949752      -13.9921193232        6.5744928508  WZ3       1000            0.0000000000
     12906      4302  TIP3      H2            -34.9058449752      -13.7166993232        6.0141728508  WZ3       1000            0.0000000000
     12907      4303  TIP3      OH2           -20.5891149752        0.7833906768        8.6496828508  WZ3       1001            0.0000000000
     12908      4303  TIP3      H1            -19.9368249752        0.4356006768        8.0415928508  WZ3       1001            0.0000000000
     12909      4303  TIP3      H2            -20.0787349752        1.2717106768        9.2956528508  WZ3       1001            0.0000000000
     12910      4304  TIP3      OH2           -30.2500749752       -1.3133493232       15.4511728508  WZ3       1004            0.0000000000
     12911      4304  TIP3      H1            -30.6749649752       -0.5034993232       15.1686328508  WZ3       1004            0.0000000000
     12912      4304  TIP3      H2            -29.3457949752       -1.2279393232       15.1491528508  WZ3       1004            0.0000000000
     12913      4305  TIP3      OH2           -25.9389349752        0.0856506768       18.4105428508  WZ3       1005            0.0000000000
     12914      4305  TIP3      H1            -25.7541849752       -0.2477393232       19.2885728508  WZ3       1005            0.0000000000
     12915      4305  TIP3      H2            -25.0924849752        0.3955106768       18.0884628508  WZ3       1005            0.0000000000
     12916      4306  TIP3      OH2           -23.5938949752        1.3715406768       17.6546828508  WZ3       1006            0.0000000000
     12917      4306  TIP3      H1            -22.9170049752        0.7387706768       17.4146028508  WZ3       1006            0.0000000000
     12918      4306  TIP3      H2            -23.2720149752        1.7725906768       18.4620128508  WZ3       1006            0.0000000000
     12919      4307  TIP3      OH2           -18.6765149752      -16.0389093232       16.7341828508  WZ3       1007            0.0000000000
     12920      4307  TIP3      H1            -19.4891649752      -15.7138793232       16.3466528508  WZ3       1007            0.0000000000
     12921      4307  TIP3      H2            -18.4436649752      -16.7990593232       16.2010928508  WZ3       1007            0.0000000000
     12922      4308  TIP3      OH2           -32.8484049752        1.9430406768       15.4987028508  WZ3       1008            0.0000000000
     12923      4308  TIP3      H1            -33.5687649752        2.3831406768       15.0474728508  WZ3       1008            0.0000000000
     12924      4308  TIP3      H2            -33.2140049752        1.6925106768       16.3471028508  WZ3       1008            0.0000000000
     12925      4309  TIP3      OH2           -30.3811449752        1.5434306768       14.5284228508  WZ3       1009            0.0000000000
     12926      4309  TIP3      H1            -31.2459249752        1.6152806768       14.9324328508  WZ3       1009            0.0000000000
     12927      4309  TIP3      H2            -30.4362449752        2.0901606768       13.7446728508  WZ3       1009            0.0000000000
     12928      4310  TIP3      OH2           -25.6705849752        1.4313206768       13.7040228508  WZ3       1010            0.0000000000
     12929      4310  TIP3      H1            -26.1271849752        1.9602906768       13.0498628508  WZ3       1010            0.0000000000
     12930      4310  TIP3      H2            -25.5077849752        2.0344606768       14.4292528508  WZ3       1010            0.0000000000
     12931      4311  TIP3      OH2           -23.3429549752        0.3092806768       14.6490528508  WZ3       1011            0.0000000000
     12932      4311  TIP3      H1            -24.2475849752        0.4743006768       14.3832628508  WZ3       1011            0.0000000000
     12933      4311  TIP3      H2            -22.9140949752        1.1625006768       14.5833928508  WZ3       1011            0.0000000000
     12934      4312  TIP3      OH2           -20.7387649752        1.8791906768       14.9438328508  WZ3       1012            0.0000000000
     12935      4312  TIP3      H1            -20.9205649752        2.7950806768       14.7333228508  WZ3       1012            0.0000000000
     12936      4312  TIP3      H2            -20.5619849752        1.4689006768       14.0972928508  WZ3       1012            0.0000000000
     12937      4313  TIP3      OH2           -33.4335949752        0.5662906768       12.4088828508  WZ3       1013            0.0000000000
     12938      4313  TIP3      H1            -33.4519949752        0.1408006768       13.2661128508  WZ3       1013            0.0000000000
     12939      4313  TIP3      H2            -32.6288049752        0.2477906768       12.0001028508  WZ3       1013            0.0000000000
     12940      4314  TIP3      OH2           -31.2922849752       -0.7238393232       11.0638728508  WZ3       1014            0.0000000000
     12941      4314  TIP3      H1            -31.5112149752       -1.6400993232       11.2334728508  WZ3       1014            0.0000000000
     12942      4314  TIP3      H2            -30.4680649752       -0.5837993232       11.5300128508  WZ3       1014            0.0000000000
     12943      4315  TIP3      OH2           -28.7550349752       -0.2539093232       11.9126728508  WZ3       1015            0.0000000000
     12944      4315  TIP3      H1            -28.5424649752       -1.1420093232       11.6257628508  WZ3       1015            0.0000000000
     12945      4315  TIP3      H2            -28.6905249752       -0.2881393232       12.8670728508  WZ3       1015            0.0000000000
     12946      4316  TIP3      OH2           -25.2466649752      -14.5898493232       11.0570028508  WZ3       1016            0.0000000000
     12947      4316  TIP3      H1            -25.9209849752      -15.2192893232       11.3125828508  WZ3       1016            0.0000000000
     12948      4316  TIP3      H2            -24.6827449752      -15.0739593232       10.4537928508  WZ3       1016            0.0000000000
     12949      4317  TIP3      OH2           -20.1039449752      -16.4824493232       11.1697128508  WZ3       1017            0.0000000000
     12950      4317  TIP3      H1            -19.5001849752      -15.9349093232       10.6678128508  WZ3       1017            0.0000000000
     12951      4317  TIP3      H2            -20.9737449752      -16.1634093232       10.9291228508  WZ3       1017            0.0000000000
     12952      4318  TIP3      OH2           -18.3769049752      -15.3435793232        9.5028028508  WZ3       1018            0.0000000000
     12953      4318  TIP3      H1            -17.7651549752      -15.8580093232        8.9761628508  WZ3       1018            0.0000000000
     12954      4318  TIP3      H2            -17.9945649752      -14.4663693232        9.5262428508  WZ3       1018            0.0000000000
     12955      4319  TIP3      OH2           -32.9199149752      -15.9558193232        8.8789928508  WZ3       1019            0.0000000000
     12956      4319  TIP3      H1            -33.6969349752      -16.1903293232        8.3715828508  WZ3       1019            0.0000000000
     12957      4319  TIP3      H2            -32.3895549752      -16.7526093232        8.8877928508  WZ3       1019            0.0000000000
     12958      4320  TIP3      OH2           -34.0835749752      -16.1580093232        4.6826028508  WZ3       1020            0.0000000000
     12959      4320  TIP3      H1            -33.6445049752      -15.5469593232        4.0909528508  WZ3       1020            0.0000000000
     12960      4320  TIP3      H2            -34.7173349752      -15.6195993232        5.1566028508  WZ3       1020            0.0000000000
     12961      4321  TIP3      OH2           -28.3406549752      -16.0291093232        8.6923028508  WZ3       1021            0.0000000000
     12962      4321  TIP3      H1            -27.4663149752      -15.6406793232        8.6627328508  WZ3       1021            0.0000000000
     12963      4321  TIP3      H2            -28.4765749752      -16.2443293232        9.6150228508  WZ3       1021            0.0000000000
     12964      4322  TIP3      OH2           -22.7838149752      -15.9991293232       10.3414728508  WZ3       1022            0.0000000000
     12965      4322  TIP3      H1            -22.7076549752      -15.9039693232        9.3920728508  WZ3       1022            0.0000000000
     12966      4322  TIP3      H2            -23.0588949752      -16.9068393232       10.4703828508  WZ3       1022            0.0000000000
     12967      4323  TIP3      OH2           -21.4305549752      -15.9733493232        6.0339728508  WZ3       1023            0.0000000000
     12968      4323  TIP3      H1            -22.1334449752      -15.3584293232        5.8241128508  WZ3       1023            0.0000000000
     12969      4323  TIP3      H2            -21.8754149752      -16.8106793232        6.1650628508  WZ3       1023            0.0000000000
     12970      4324  TIP3      OH2           -32.2226649752      -14.2418593232        3.1250128508  WZ3       1025            0.0000000000
     12971      4324  TIP3      H1            -31.7313249752      -14.8716193232        2.5975628508  WZ3       1025            0.0000000000
     12972      4324  TIP3      H2            -31.5990349752      -13.9459193232        3.7881328508  WZ3       1025            0.0000000000
     12973      4325  TIP3      OH2           -27.1966549752      -13.9487093232        5.5820628508  WZ3       1026            0.0000000000
     12974      4325  TIP3      H1            -27.0185249752      -14.5953893232        6.2649228508  WZ3       1026            0.0000000000
     12975      4325  TIP3      H2            -27.2500349752      -13.1149393232        6.0491728508  WZ3       1026            0.0000000000
     12976      4326  TIP3      OH2           -25.3182749752        0.9997006768        3.9777328508  WZ3       1027            0.0000000000
     12977      4326  TIP3      H1            -24.4522549752        1.3664406768        3.7995528508  WZ3       1027            0.0000000000
     12978      4326  TIP3      H2            -25.5649949752        0.5605006768        3.1638128508  WZ3       1027            0.0000000000
     12979      4327  TIP3      OH2           -18.6093149752        0.5627306768        6.6568428508  WZ3       1028            0.0000000000
     12980      4327  TIP3      H1            -18.8036049752       -0.1850593232        6.0918028508  WZ3       1028            0.0000000000
     12981      4327  TIP3      H2            -18.6483049752        1.3207406768        6.0736328508  WZ3       1028            0.0000000000
     12982      4328  TIP3      OH2           -32.3645049752        0.7102906768        2.6053228508  WZ3       1031            0.0000000000
     12983      4328  TIP3      H1            -32.6320449752        0.9965806768        3.4786328508  WZ3       1031            0.0000000000
     12984      4328  TIP3      H2            -31.5932449752        0.1642106768        2.7575728508  WZ3       1031            0.0000000000
     12985      4329  TIP3      OH2           -19.3916949752       -0.6860293232       18.8070228508  WZ3       1033            0.0000000000
     12986      4329  TIP3      H1            -20.1735049752       -0.8722293232       18.2870828508  WZ3       1033            0.0000000000
     12987      4329  TIP3      H2            -19.4637049752        0.2434006768       19.0242728508  WZ3       1033            0.0000000000
     12988      4330  TIP3      OH2            -4.9856549752       -6.7995893232        8.8377428508  WZ3       1034            0.0000000000
     12989      4330  TIP3      H1             -4.8965449752       -5.8557693232        8.7054528508  WZ3       1034            0.0000000000
     12990      4330  TIP3      H2             -5.6238949752       -7.0749493232        8.1796828508  WZ3       1034            0.0000000000
     12991      4331  TIP3      OH2            -6.0525249752       -7.5445193232       12.2565628508  WZ3       1035            0.0000000000
     12992      4331  TIP3      H1             -6.0907749752       -8.1908893232       12.9615228508  WZ3       1035            0.0000000000
     12993      4331  TIP3      H2             -6.3748749752       -8.0110793232       11.4854328508  WZ3       1035            0.0000000000
     12994      4332  TIP3      OH2           -13.6840249752       -7.9303093232       13.8495528508  WZ3       1036            0.0000000000
     12995      4332  TIP3      H1            -13.6428149752       -8.5559793232       14.5727928508  WZ3       1036            0.0000000000
     12996      4332  TIP3      H2            -12.9812549752       -7.3064493232       14.0315928508  WZ3       1036            0.0000000000
     12997      4333  TIP3      OH2            -2.3465049752       -4.6054793232       10.5580728508  WZ3       1037            0.0000000000
     12998      4333  TIP3      H1             -2.7872349752       -5.3258793232       11.0086328508  WZ3       1037            0.0000000000
     12999      4333  TIP3      H2             -2.3595349752       -3.8847593232       11.1878428508  WZ3       1037            0.0000000000
     13000      4334  TIP3      OH2           -12.7607149752       -3.4804193232       12.3844628508  WZ3       1038            0.0000000000
     13001      4334  TIP3      H1            -13.1301949752       -4.2823693232       12.0148928508  WZ3       1038            0.0000000000
     13002      4334  TIP3      H2            -11.8196049752       -3.6489293232       12.4308028508  WZ3       1038            0.0000000000
     13003      4335  TIP3      OH2           -16.1506649752       -9.8201593232        7.7773428508  WZ3       1039            0.0000000000
     13004      4335  TIP3      H1            -16.5983249752       -8.9742893232        7.7589928508  WZ3       1039            0.0000000000
     13005      4335  TIP3      H2            -16.7115449752      -10.3997393232        7.2618528508  WZ3       1039            0.0000000000
     13006      4336  TIP3      OH2           -15.4400549752       -7.6581993232        9.9031428508  WZ3       1040            0.0000000000
     13007      4336  TIP3      H1            -15.2267049752       -8.4280393232       10.4304428508  WZ3       1040            0.0000000000
     13008      4336  TIP3      H2            -14.7022949752       -7.5685293232        9.2999028508  WZ3       1040            0.0000000000
     13009      4337  TIP3      OH2            -5.2349549752        0.4986906768       10.7701128508  WZ3       1041            0.0000000000
     13010      4337  TIP3      H1             -4.6153149752       -0.1778393232       10.4970328508  WZ3       1041            0.0000000000
     13011      4337  TIP3      H2             -5.4432149752        0.2807706768       11.6786028508  WZ3       1041            0.0000000000
     13012      4338  TIP3      OH2            -7.6630849752       -5.1123793232       12.6626628508  WZ3       1042            0.0000000000
     13013      4338  TIP3      H1             -7.3592949752       -5.7982393232       12.0680728508  WZ3       1042            0.0000000000
     13014      4338  TIP3      H2             -6.9416849752       -4.9935093232       13.2804628508  WZ3       1042            0.0000000000
     13015      4339  TIP3      OH2             0.9998950248      -13.5108493232       13.5232828508  WZ3       1043            0.0000000000
     13016      4339  TIP3      H1              1.0491150248      -12.9007293232       14.2591928508  WZ3       1043            0.0000000000
     13017      4339  TIP3      H2              1.4254050248      -13.0497593232       12.8003928508  WZ3       1043            0.0000000000
     13018      4340  TIP3      OH2            -4.5223849752      -10.7181393232       12.9901428508  WZ3       1044            0.0000000000
     13019      4340  TIP3      H1             -4.3797949752      -11.6644393232       13.0103028508  WZ3       1044            0.0000000000
     13020      4340  TIP3      H2             -4.6284849752      -10.5111593232       12.0616328508  WZ3       1044            0.0000000000
     13021      4341  TIP3      OH2           -11.3675549752      -12.6164993232       10.2626228508  WZ3       1045            0.0000000000
     13022      4341  TIP3      H1            -11.3244449752      -11.7566493232        9.8442528508  WZ3       1045            0.0000000000
     13023      4341  TIP3      H2            -11.8251449752      -13.1690293232        9.6289428508  WZ3       1045            0.0000000000
     13024      4342  TIP3      OH2            -3.6452849752      -12.4859393232        8.6634528508  WZ3       1046            0.0000000000
     13025      4342  TIP3      H1             -2.9988549752      -12.8146193232        9.2882128508  WZ3       1046            0.0000000000
     13026      4342  TIP3      H2             -3.1353449752      -11.9680393232        8.0405928508  WZ3       1046            0.0000000000
     13027      4343  TIP3      OH2           -14.7474049752      -10.2199193232       11.0247628508  WZ3       1047            0.0000000000
     13028      4343  TIP3      H1            -14.0937449752      -10.7697493232       11.4567728508  WZ3       1047            0.0000000000
     13029      4343  TIP3      H2            -14.7234749752      -10.4940193232       10.1079628508  WZ3       1047            0.0000000000
     13030      4344  TIP3      OH2            -9.5909549752       -8.6697893232       10.2399128508  WZ3       1048            0.0000000000
     13031      4344  TIP3      H1             -8.9748549752       -9.1962493232       10.7493128508  WZ3       1048            0.0000000000
     13032      4344  TIP3      H2            -10.1770749752       -9.3099193232        9.8362728508  WZ3       1048            0.0000000000
     13033      4345  TIP3      OH2             1.3913550248      -12.0329293232       15.7592628508  WZ3       1049            0.0000000000
     13034      4345  TIP3      H1              0.7028150248      -11.3748593232       15.6639228508  WZ3       1049            0.0000000000
     13035      4345  TIP3      H2              1.4068150248      -12.2301393232       16.6958028508  WZ3       1049            0.0000000000
     13036      4346  TIP3      OH2           -12.5573649752      -13.6986593232       14.3367028508  WZ3       1050            0.0000000000
     13037      4346  TIP3      H1            -12.7761949752      -13.1685993232       13.5703028508  WZ3       1050            0.0000000000
     13038      4346  TIP3      H2            -13.2252749752      -13.4721093232       14.9838428508  WZ3       1050            0.0000000000
     13039      4347  TIP3      OH2            -5.1883849752       -4.1985493232        7.8806128508  WZ3       1051            0.0000000000
     13040      4347  TIP3      H1             -5.4838749752       -4.5213193232        7.0293028508  WZ3       1051            0.0000000000
     13041      4347  TIP3      H2             -5.5126049752       -3.2988793232        7.9218728508  WZ3       1051            0.0000000000
     13042      4348  TIP3      OH2            -9.9882249752       -6.0230893232       14.6240728508  WZ3       1052            0.0000000000
     13043      4348  TIP3      H1            -10.7283149752       -5.4249393232       14.7275928508  WZ3       1052            0.0000000000
     13044      4348  TIP3      H2             -9.2742749752       -5.4691293232       14.3084328508  WZ3       1052            0.0000000000
     13045      4349  TIP3      OH2            -1.8814449752      -13.1950093232       10.6440428508  WZ3       1053            0.0000000000
     13046      4349  TIP3      H1             -2.0966449752      -13.9606693232       11.1766428508  WZ3       1053            0.0000000000
     13047      4349  TIP3      H2             -1.2257049752      -12.7225493232       11.1568928508  WZ3       1053            0.0000000000
     13048      4350  TIP3      OH2           -12.9636349752      -11.8064793232       12.2889228508  WZ3       1054            0.0000000000
     13049      4350  TIP3      H1            -12.3500049752      -11.1737193232       12.6621628508  WZ3       1054            0.0000000000
     13050      4350  TIP3      H2            -12.4515649752      -12.2789793232       11.6326128508  WZ3       1054            0.0000000000
     13051      4351  TIP3      OH2           -11.5807949752       -4.0587893232       15.4112228508  WZ3       1055            0.0000000000
     13052      4351  TIP3      H1            -11.5860349752       -3.1794393232       15.0331528508  WZ3       1055            0.0000000000
     13053      4351  TIP3      H2            -12.4343849752       -4.1423793232       15.8362128508  WZ3       1055            0.0000000000
     13054      4352  TIP3      OH2           -15.4597049752       -4.3879993232        6.1931528508  WZ3       1056            0.0000000000
     13055      4352  TIP3      H1            -15.7316149752       -4.1588993232        5.3044428508  WZ3       1056            0.0000000000
     13056      4352  TIP3      H2            -15.4141349752       -3.5501193232        6.6536828508  WZ3       1056            0.0000000000
     13057      4353  TIP3      OH2            -1.8347349752       -2.7664093232       12.9060028508  WZ3       1057            0.0000000000
     13058      4353  TIP3      H1             -2.7763649752       -2.7080193232       13.0676928508  WZ3       1057            0.0000000000
     13059      4353  TIP3      H2             -1.5581249752       -1.8603593232       12.7689728508  WZ3       1057            0.0000000000
     13060      4354  TIP3      OH2            -1.5340349752      -14.4798793232       14.3233928508  WZ3       1058            0.0000000000
     13061      4354  TIP3      H1             -2.2701149752      -13.8691693232       14.2855228508  WZ3       1058            0.0000000000
     13062      4354  TIP3      H2             -0.8506349752      -14.0649793232       13.7970328508  WZ3       1058            0.0000000000
     13063      4355  TIP3      OH2            -8.5308949752      -16.3931493232       11.7891928508  WZ3       1059            0.0000000000
     13064      4355  TIP3      H1             -8.6484749752      -17.3415493232       11.7350228508  WZ3       1059            0.0000000000
     13065      4355  TIP3      H2             -9.3858849752      -16.0605393232       12.0623028508  WZ3       1059            0.0000000000
     13066      4356  TIP3      OH2            -3.5826149752       -0.9850593232        9.5311628508  WZ3       1060            0.0000000000
     13067      4356  TIP3      H1             -3.1573849752       -1.6922693232        9.0461228508  WZ3       1060            0.0000000000
     13068      4356  TIP3      H2             -3.2656149752       -0.1837893232        9.1143828508  WZ3       1060            0.0000000000
     13069      4357  TIP3      OH2            -2.4229649752       -3.0842093232        8.0398228508  WZ3       1061            0.0000000000
     13070      4357  TIP3      H1             -2.6804849752       -3.7741993232        7.4284128508  WZ3       1061            0.0000000000
     13071      4357  TIP3      H2             -2.3518849752       -3.5270893232        8.8854128508  WZ3       1061            0.0000000000
     13072      4358  TIP3      OH2            -0.7369449752       -4.5175393232       16.5171728508  WZ3       1062            0.0000000000
     13073      4358  TIP3      H1             -0.5973149752       -5.1092893232       15.7778728508  WZ3       1062            0.0000000000
     13074      4358  TIP3      H2             -0.5696649752       -3.6449493232       16.1610528508  WZ3       1062            0.0000000000
     13075      4359  TIP3      OH2            -6.2644049752       -7.5555893232        6.2897728508  WZ3       1063            0.0000000000
     13076      4359  TIP3      H1             -6.9758549752       -7.0206193232        5.9378228508  WZ3       1063            0.0000000000
     13077      4359  TIP3      H2             -5.5734449752       -7.5003793232        5.6296628508  WZ3       1063            0.0000000000
     13078      4360  TIP3      OH2            -6.2104849752       -9.0981593232        3.3282728508  WZ3       1064            0.0000000000
     13079      4360  TIP3      H1             -5.5094949752       -9.0754693232        3.9796728508  WZ3       1064            0.0000000000
     13080      4360  TIP3      H2             -5.9081949752       -9.7261893232        2.6722028508  WZ3       1064            0.0000000000
     13081      4361  TIP3      OH2             1.1049850248       -8.1777393232       14.5832128508  WZ3       1065            0.0000000000
     13082      4361  TIP3      H1              0.4523950248       -7.4831793232       14.6723028508  WZ3       1065            0.0000000000
     13083      4361  TIP3      H2              1.5700150248       -7.9676493232       13.7733728508  WZ3       1065            0.0000000000
     13084      4362  TIP3      OH2            -2.8586349752       -7.3462593232        7.2413628508  WZ3       1066            0.0000000000
     13085      4362  TIP3      H1             -3.5905349752       -7.1178893232        7.8144228508  WZ3       1066            0.0000000000
     13086      4362  TIP3      H2             -2.4114149752       -8.0599893232        7.6961128508  WZ3       1066            0.0000000000
     13087      4363  TIP3      OH2            -2.9612849752       -9.1719993232       16.3090628508  WZ3       1067            0.0000000000
     13088      4363  TIP3      H1             -2.8813749752       -8.4085593232       16.8809128508  WZ3       1067            0.0000000000
     13089      4363  TIP3      H2             -3.5625149752       -8.8927593232       15.6185728508  WZ3       1067            0.0000000000
     13090      4364  TIP3      OH2           -11.2132649752       -6.7156393232        9.1238628508  WZ3       1068            0.0000000000
     13091      4364  TIP3      H1            -11.5437449752       -7.0862993232        8.3055628508  WZ3       1068            0.0000000000
     13092      4364  TIP3      H2            -10.6248549752       -7.3862393232        9.4706928508  WZ3       1068            0.0000000000
     13093      4365  TIP3      OH2            -9.8465149752       -3.2875793232       11.8050828508  WZ3       1069            0.0000000000
     13094      4365  TIP3      H1             -9.9413849752       -3.8662693232       11.0485428508  WZ3       1069            0.0000000000
     13095      4365  TIP3      H2             -9.1171549752       -3.6590093232       12.3013628508  WZ3       1069            0.0000000000
     13096      4366  TIP3      OH2           -10.8467149752       -7.9470793232       12.7573628508  WZ3       1070            0.0000000000
     13097      4366  TIP3      H1            -10.2814649752       -7.8256593232       11.9944828508  WZ3       1070            0.0000000000
     13098      4366  TIP3      H2            -10.5278249752       -7.3095793232       13.3962128508  WZ3       1070            0.0000000000
     13099      4367  TIP3      OH2            -4.5374949752       -2.4438893232       13.4914128508  WZ3       1071            0.0000000000
     13100      4367  TIP3      H1             -4.7778349752       -1.7815793232       14.1393328508  WZ3       1071            0.0000000000
     13101      4367  TIP3      H2             -4.7356749752       -3.2783693232       13.9163728508  WZ3       1071            0.0000000000
     13102      4368  TIP3      OH2            -9.9666449752       -3.5478093232       17.4745528508  WZ3       1072            0.0000000000
     13103      4368  TIP3      H1            -10.2778949752       -2.7654893232       17.9298728508  WZ3       1072            0.0000000000
     13104      4368  TIP3      H2            -10.6166249752       -3.7008993232       16.7887528508  WZ3       1072            0.0000000000
     13105      4369  TIP3      OH2            -3.9876849752       -8.1839693232        4.9264828508  WZ3       1073            0.0000000000
     13106      4369  TIP3      H1             -3.4081349752       -8.0339393232        5.6733728508  WZ3       1073            0.0000000000
     13107      4369  TIP3      H2             -3.5736849752       -7.7132293232        4.2031228508  WZ3       1073            0.0000000000
     13108      4370  TIP3      OH2           -13.0466549752       -7.3496993232       16.7031228508  WZ3       1074            0.0000000000
     13109      4370  TIP3      H1            -12.9763349752       -6.6990193232       17.4016228508  WZ3       1074            0.0000000000
     13110      4370  TIP3      H2            -13.9374349752       -7.2469493232       16.3682128508  WZ3       1074            0.0000000000
     13111      4371  TIP3      OH2            -6.2611949752       -1.4471193232        8.3617928508  WZ3       1075            0.0000000000
     13112      4371  TIP3      H1             -5.7874349752       -1.1514893232        9.1392128508  WZ3       1075            0.0000000000
     13113      4371  TIP3      H2             -6.8242649752       -0.7089593232        8.1287528508  WZ3       1075            0.0000000000
     13114      4372  TIP3      OH2           -11.7270549752       -1.4763093232       18.2379328508  WZ3       1076            0.0000000000
     13115      4372  TIP3      H1            -11.7195249752       -1.6123393232       17.2904828508  WZ3       1076            0.0000000000
     13116      4372  TIP3      H2            -12.6430149752       -1.5934993232       18.4899328508  WZ3       1076            0.0000000000
     13117      4373  TIP3      OH2            -0.2888449752      -16.4339293232        4.7394528508  WZ3       1077            0.0000000000
     13118      4373  TIP3      H1             -1.1887749752      -16.2950293232        5.0345128508  WZ3       1077            0.0000000000
     13119      4373  TIP3      H2             -0.0370049752      -15.6024693232        4.3376228508  WZ3       1077            0.0000000000
     13120      4374  TIP3      OH2           -12.2229949752       -7.6462093232        6.7131428508  WZ3       1078            0.0000000000
     13121      4374  TIP3      H1            -12.5148649752       -6.8780393232        6.2222728508  WZ3       1078            0.0000000000
     13122      4374  TIP3      H2            -12.8974749752       -8.3055893232        6.5502828508  WZ3       1078            0.0000000000
     13123      4375  TIP3      OH2             0.9002950248       -2.0676893232        3.1158428508  WZ3       1079            0.0000000000
     13124      4375  TIP3      H1              0.9736450248       -1.1286693232        3.2863728508  WZ3       1079            0.0000000000
     13125      4375  TIP3      H2              1.8058050248       -2.3728293232        3.0595728508  WZ3       1079            0.0000000000
     13126      4376  TIP3      OH2           -16.1299849752       -5.2832893232       15.5281228508  WZ3       1080            0.0000000000
     13127      4376  TIP3      H1            -16.6311449752       -5.3113493232       14.7130928508  WZ3       1080            0.0000000000
     13128      4376  TIP3      H2            -16.1246149752       -6.1889693232       15.8378528508  WZ3       1080            0.0000000000
     13129      4377  TIP3      OH2           -16.3797149752       -2.5029093232       12.4121428508  WZ3       1081            0.0000000000
     13130      4377  TIP3      H1            -15.4336549752       -2.6472093232       12.3930928508  WZ3       1081            0.0000000000
     13131      4377  TIP3      H2            -16.4920849752       -1.7186293232       12.9492628508  WZ3       1081            0.0000000000
     13132      4378  TIP3      OH2             1.8181350248       -1.8369393232       18.0945128508  WZ3       1082            0.0000000000
     13133      4378  TIP3      H1              1.7688150248       -2.7921293232       18.0572728508  WZ3       1082            0.0000000000
     13134      4378  TIP3      H2              0.9913650248       -1.5694093232       18.4958928508  WZ3       1082            0.0000000000
     13135      4379  TIP3      OH2            -7.2034649752       -2.2630193232       16.9706528508  WZ3       1083            0.0000000000
     13136      4379  TIP3      H1             -7.1160049752       -1.4365593232       17.4455628508  WZ3       1083            0.0000000000
     13137      4379  TIP3      H2             -8.0669549752       -2.5926393232       17.2195828508  WZ3       1083            0.0000000000
     13138      4380  TIP3      OH2            -6.7888849752        1.5093506768        6.7767128508  WZ3       1084            0.0000000000
     13139      4380  TIP3      H1             -6.8642849752        1.3880706768        5.8302328508  WZ3       1084            0.0000000000
     13140      4380  TIP3      H2             -6.7560149752        2.4586206768        6.8951728508  WZ3       1084            0.0000000000
     13141      4381  TIP3      OH2           -13.1355049752        0.2980506768        8.5576128508  WZ3       1085            0.0000000000
     13142      4381  TIP3      H1            -12.9834649752       -0.0499093232        9.4362628508  WZ3       1085            0.0000000000
     13143      4381  TIP3      H2            -13.9864649752       -0.0582193232        8.3023328508  WZ3       1085            0.0000000000
     13144      4382  TIP3      OH2            -3.6872849752        0.6633706768        3.7789528508  WZ3       1086            0.0000000000
     13145      4382  TIP3      H1             -3.3124449752       -0.0810193232        3.3082128508  WZ3       1086            0.0000000000
     13146      4382  TIP3      H2             -3.6829149752        0.3934306768        4.6972828508  WZ3       1086            0.0000000000
     13147      4383  TIP3      OH2            -4.0184749752        0.5890806768        6.5281728508  WZ3       1087            0.0000000000
     13148      4383  TIP3      H1             -4.9534949752        0.6892706768        6.7068728508  WZ3       1087            0.0000000000
     13149      4383  TIP3      H2             -3.7382849752       -0.1203193232        7.1064928508  WZ3       1087            0.0000000000
     13150      4384  TIP3      OH2            -1.0298849752      -10.3436893232       18.5747328508  WZ3       1088            0.0000000000
     13151      4384  TIP3      H1             -1.4372049752       -9.8631293232       17.8540628508  WZ3       1088            0.0000000000
     13152      4384  TIP3      H2             -0.9893149752      -11.2490893232       18.2668128508  WZ3       1088            0.0000000000
     13153      4385  TIP3      OH2           -13.8809349752       -3.9597493232       16.5714028508  WZ3       1089            0.0000000000
     13154      4385  TIP3      H1            -13.6648049752       -4.3211893232       17.4309828508  WZ3       1089            0.0000000000
     13155      4385  TIP3      H2            -14.7364649752       -4.3343693232       16.3617528508  WZ3       1089            0.0000000000
     13156      4386  TIP3      OH2           -11.2621349752      -15.4896993232       12.5668228508  WZ3       1090            0.0000000000
     13157      4386  TIP3      H1            -12.1237649752      -15.5768793232       12.1591128508  WZ3       1090            0.0000000000
     13158      4386  TIP3      H2            -11.2845649752      -14.6336893232       12.9945828508  WZ3       1090            0.0000000000
     13159      4387  TIP3      OH2            -6.5993549752      -15.7676593232       15.9415228508  WZ3       1091            0.0000000000
     13160      4387  TIP3      H1             -6.1790449752      -16.1829493232       16.6945828508  WZ3       1091            0.0000000000
     13161      4387  TIP3      H2             -7.5323949752      -15.9463293232       16.0587228508  WZ3       1091            0.0000000000
     13162      4388  TIP3      OH2            -3.2728649752      -12.0121393232       16.7949728508  WZ3       1092            0.0000000000
     13163      4388  TIP3      H1             -3.7869149752      -12.1379193232       17.5925728508  WZ3       1092            0.0000000000
     13164      4388  TIP3      H2             -3.4283949752      -11.0998293232       16.5505928508  WZ3       1092            0.0000000000
     13165      4389  TIP3      OH2            -2.5103749752       -7.1511393232        2.5562728508  WZ3       1093            0.0000000000
     13166      4389  TIP3      H1             -2.4682949752       -7.3737493232        1.6262728508  WZ3       1093            0.0000000000
     13167      4389  TIP3      H2             -1.6611649752       -6.7524293232        2.7462628508  WZ3       1093            0.0000000000
     13168      4390  TIP3      OH2            -6.9376249752      -13.2753193232        3.2266028508  WZ3       1094            0.0000000000
     13169      4390  TIP3      H1             -7.1911449752      -13.2561593232        4.1494128508  WZ3       1094            0.0000000000
     13170      4390  TIP3      H2             -7.1944149752      -14.1467793232        2.9252228508  WZ3       1094            0.0000000000
     13171      4391  TIP3      OH2           -11.1711249752      -10.5242493232       13.6618428508  WZ3       1095            0.0000000000
     13172      4391  TIP3      H1            -11.8129149752      -10.5645193232       14.3708528508  WZ3       1095            0.0000000000
     13173      4391  TIP3      H2            -11.1339249752       -9.5977793232       13.4241428508  WZ3       1095            0.0000000000
     13174      4392  TIP3      OH2           -11.1742149752      -10.3032393232        8.5738428508  WZ3       1096            0.0000000000
     13175      4392  TIP3      H1            -12.0669249752      -10.6436293232        8.5152228508  WZ3       1096            0.0000000000
     13176      4392  TIP3      H2            -10.7235549752      -10.6801493232        7.8181628508  WZ3       1096            0.0000000000
     13177      4393  TIP3      OH2            -5.6386649752       -9.8872093232        7.3909228508  WZ3       1097            0.0000000000
     13178      4393  TIP3      H1             -6.0476349752       -9.0723493232        7.0994028508  WZ3       1097            0.0000000000
     13179      4393  TIP3      H2             -4.9180449752      -10.0271993232        6.7766328508  WZ3       1097            0.0000000000
     13180      4394  TIP3      OH2            -6.5365049752       -9.7115693232       18.8789928508  WZ3       1098            0.0000000000
     13181      4394  TIP3      H1             -7.0991249752      -10.4164093232       19.1997728508  WZ3       1098            0.0000000000
     13182      4394  TIP3      H2             -5.7101649752       -9.8323793232       19.3467528508  WZ3       1098            0.0000000000
     13183      4395  TIP3      OH2            -4.6338949752      -10.4411693232       10.2048928508  WZ3       1099            0.0000000000
     13184      4395  TIP3      H1             -4.8294449752       -9.8354893232        9.4899528508  WZ3       1099            0.0000000000
     13185      4395  TIP3      H2             -4.4526349752      -11.2746493232        9.7705228508  WZ3       1099            0.0000000000
     13186      4396  TIP3      OH2           -13.4210749752      -10.2038993232       15.5290428508  WZ3       1100            0.0000000000
     13187      4396  TIP3      H1            -13.4591349752       -9.8037393232       16.3977528508  WZ3       1100            0.0000000000
     13188      4396  TIP3      H2            -13.9119649752      -11.0206593232       15.6193328508  WZ3       1100            0.0000000000
     13189      4397  TIP3      OH2           -10.0553349752      -12.8296693232        2.3276428508  WZ3       1101            0.0000000000
     13190      4397  TIP3      H1            -10.4862649752      -13.2746593232        3.0573828508  WZ3       1101            0.0000000000
     13191      4397  TIP3      H2            -10.7734649752      -12.4580393232        1.8153928508  WZ3       1101            0.0000000000
     13192      4398  TIP3      OH2           -16.8129949752      -13.0877193232        9.3795128508  WZ3       1102            0.0000000000
     13193      4398  TIP3      H1            -16.1822249752      -13.1165093232       10.0989028508  WZ3       1102            0.0000000000
     13194      4398  TIP3      H2            -16.3635649752      -13.5128493232        8.6491028508  WZ3       1102            0.0000000000
     13195      4399  TIP3      OH2           -15.5387849752      -12.3415193232        4.8035528508  WZ3       1103            0.0000000000
     13196      4399  TIP3      H1            -15.0646149752      -11.7505293232        4.2186428508  WZ3       1103            0.0000000000
     13197      4399  TIP3      H2            -16.2561449752      -11.8112293232        5.1505628508  WZ3       1103            0.0000000000
     13198      4400  TIP3      OH2            -5.3699749752       -8.8030393232       14.8761328508  WZ3       1104            0.0000000000
     13199      4400  TIP3      H1             -5.0464949752       -9.4340693232       14.2331828508  WZ3       1104            0.0000000000
     13200      4400  TIP3      H2             -5.8100449752       -9.3378193232       15.5368728508  WZ3       1104            0.0000000000
     13201      4401  TIP3      OH2            -8.5926849752      -12.8754893232        9.6602528508  WZ3       1105            0.0000000000
     13202      4401  TIP3      H1             -9.5035749752      -12.8188093232        9.9488528508  WZ3       1105            0.0000000000
     13203      4401  TIP3      H2             -8.0873949752      -12.9359393232       10.4709728508  WZ3       1105            0.0000000000
     13204      4402  TIP3      OH2           -13.7643449752      -11.2468593232        8.4870128508  WZ3       1106            0.0000000000
     13205      4402  TIP3      H1            -14.6535449752      -11.1473093232        8.1469728508  WZ3       1106            0.0000000000
     13206      4402  TIP3      H2            -13.4678549752      -12.0885593232        8.1408028508  WZ3       1106            0.0000000000
     13207      4403  TIP3      OH2           -10.1111649752      -11.2465993232        6.1434728508  WZ3       1107            0.0000000000
     13208      4403  TIP3      H1             -9.1796149752      -11.1175993232        6.3217828508  WZ3       1107            0.0000000000
     13209      4403  TIP3      H2            -10.3261349752      -10.5771693232        5.4939428508  WZ3       1107            0.0000000000
     13210      4404  TIP3      OH2            -4.1874949752      -13.6408593232       12.9244328508  WZ3       1108            0.0000000000
     13211      4404  TIP3      H1             -4.8643349752      -13.5095493232       13.5884028508  WZ3       1108            0.0000000000
     13212      4404  TIP3      H2             -4.6730049752      -13.7959093232       12.1142028508  WZ3       1108            0.0000000000
     13213      4405  TIP3      OH2           -11.4371449752      -10.0523793232        3.7100828508  WZ3       1109            0.0000000000
     13214      4405  TIP3      H1            -11.9796349752      -10.4319993232        3.0188428508  WZ3       1109            0.0000000000
     13215      4405  TIP3      H2            -10.6036549752       -9.8579093232        3.2814928508  WZ3       1109            0.0000000000
     13216      4406  TIP3      OH2            -0.8999849752        2.0306806768       19.2011928508  WZ3       1110            0.0000000000
     13217      4406  TIP3      H1             -0.7001149752        2.4548706768       18.3667228508  WZ3       1110            0.0000000000
     13218      4406  TIP3      H2             -0.2446149752        2.3745006768       19.8082328508  WZ3       1110            0.0000000000
     13219      4407  TIP3      OH2           -13.3020049752       -5.4951893232       18.8092428508  WZ3       1111            0.0000000000
     13220      4407  TIP3      H1            -12.5697649752       -5.2405993232       19.3706928508  WZ3       1111            0.0000000000
     13221      4407  TIP3      H2            -14.0821349752       -5.2906493232       19.3247828508  WZ3       1111            0.0000000000
     13222      4408  TIP3      OH2            -7.2727149752      -10.0881893232       11.5472128508  WZ3       1112            0.0000000000
     13223      4408  TIP3      H1             -6.7083749752      -10.6345293232       11.0001728508  WZ3       1112            0.0000000000
     13224      4408  TIP3      H2             -7.4203749752      -10.6099993232       12.3359728508  WZ3       1112            0.0000000000
     13225      4409  TIP3      OH2           -12.2707449752      -13.9515793232        7.9656928508  WZ3       1113            0.0000000000
     13226      4409  TIP3      H1            -12.5877949752      -14.8540493232        7.9302328508  WZ3       1113            0.0000000000
     13227      4409  TIP3      H2            -11.4893349752      -13.9498393232        7.4128528508  WZ3       1113            0.0000000000
     13228      4410  TIP3      OH2            -8.6461249752      -11.6995793232       13.9612528508  WZ3       1114            0.0000000000
     13229      4410  TIP3      H1             -9.4815949752      -11.2456293232       14.0714928508  WZ3       1114            0.0000000000
     13230      4410  TIP3      H2             -8.1220649752      -11.4237293232       14.7132428508  WZ3       1114            0.0000000000
     13231      4411  TIP3      OH2            -8.1018649752       -5.4868093232        5.6458928508  WZ3       1115            0.0000000000
     13232      4411  TIP3      H1             -8.8467649752       -5.9942793232        5.3236828508  WZ3       1115            0.0000000000
     13233      4411  TIP3      H2             -8.2361449752       -5.4380093232        6.5923728508  WZ3       1115            0.0000000000
     13234      4412  TIP3      OH2            -0.9519749752       -6.3539893232       14.4326528508  WZ3       1116            0.0000000000
     13235      4412  TIP3      H1             -0.3100949752       -5.8973593232       13.8888728508  WZ3       1116            0.0000000000
     13236      4412  TIP3      H2             -1.7822849752       -6.2407493232       13.9700628508  WZ3       1116            0.0000000000
     13237      4413  TIP3      OH2            -4.2041849752      -12.6728193232        3.8451528508  WZ3       1117            0.0000000000
     13238      4413  TIP3      H1             -5.1427649752      -12.5612593232        3.6940328508  WZ3       1117            0.0000000000
     13239      4413  TIP3      H2             -3.9069749752      -11.8161293232        4.1517228508  WZ3       1117            0.0000000000
     13240      4414  TIP3      OH2            -6.5826549752       -5.3024793232       16.8828028508  WZ3       1118            0.0000000000
     13241      4414  TIP3      H1             -6.9280449752       -5.6842393232       17.6897628508  WZ3       1118            0.0000000000
     13242      4414  TIP3      H2             -6.7826449752       -4.3691193232       16.9540928508  WZ3       1118            0.0000000000
     13243      4415  TIP3      OH2            -3.4858349752      -10.8055493232        5.5058928508  WZ3       1119            0.0000000000
     13244      4415  TIP3      H1             -2.5939349752      -10.9430493232        5.8250128508  WZ3       1119            0.0000000000
     13245      4415  TIP3      H2             -3.4294749752      -10.0149393232        4.9692428508  WZ3       1119            0.0000000000
     13246      4416  TIP3      OH2           -12.9770349752       -6.1918093232       11.4156828508  WZ3       1120            0.0000000000
     13247      4416  TIP3      H1            -12.2323149752       -6.1942393232       10.8143328508  WZ3       1120            0.0000000000
     13248      4416  TIP3      H2            -12.8993749752       -7.0154293232       11.8971928508  WZ3       1120            0.0000000000
     13249      4417  TIP3      OH2            -5.9764549752       -4.0283793232        4.6713528508  WZ3       1121            0.0000000000
     13250      4417  TIP3      H1             -6.2716149752       -3.2015893232        5.0528328508  WZ3       1121            0.0000000000
     13251      4417  TIP3      H2             -6.6794549752       -4.6476893232        4.8674928508  WZ3       1121            0.0000000000
     13252      4418  TIP3      OH2           -15.9690649752       -7.7311193232       16.7305328508  WZ3       1122            0.0000000000
     13253      4418  TIP3      H1            -15.7462049752       -8.1491593232       17.5622828508  WZ3       1122            0.0000000000
     13254      4418  TIP3      H2            -16.5710549752       -8.3436193232       16.3078128508  WZ3       1122            0.0000000000
     13255      4419  TIP3      OH2            -8.9525749752       -8.2141293232       18.9435028508  WZ3       1123            0.0000000000
     13256      4419  TIP3      H1             -9.2484949752       -8.3798293232       18.0484128508  WZ3       1123            0.0000000000
     13257      4419  TIP3      H2             -8.0210549752       -8.4340993232       18.9328928508  WZ3       1123            0.0000000000
     13258      4420  TIP3      OH2            -4.3322949752       -2.8409293232       16.8333028508  WZ3       1124            0.0000000000
     13259      4420  TIP3      H1             -5.2328649752       -2.6576693232       16.5656928508  WZ3       1124            0.0000000000
     13260      4420  TIP3      H2             -4.2981849752       -2.5819993232       17.7541828508  WZ3       1124            0.0000000000
     13261      4421  TIP3      OH2             1.3990350248      -10.5961393232        5.2005628508  WZ3       1125            0.0000000000
     13262      4421  TIP3      H1              0.8446650248      -10.9923393232        4.5283128508  WZ3       1125            0.0000000000
     13263      4421  TIP3      H2              1.4993950248       -9.6856193232        4.9228928508  WZ3       1125            0.0000000000
     13264      4422  TIP3      OH2             1.3622350248       -4.7959693232       18.0377128508  WZ3       1126            0.0000000000
     13265      4422  TIP3      H1              0.5110850248       -4.5575893232       17.6703528508  WZ3       1126            0.0000000000
     13266      4422  TIP3      H2              1.9525750248       -4.8126493232       17.2844228508  WZ3       1126            0.0000000000
     13267      4423  TIP3      OH2            -0.3057949752       -1.8100993232        5.6657728508  WZ3       1127            0.0000000000
     13268      4423  TIP3      H1             -0.6786849752       -2.6357193232        5.9748328508  WZ3       1127            0.0000000000
     13269      4423  TIP3      H2             -0.0284449752       -1.9931593232        4.7681128508  WZ3       1127            0.0000000000
     13270      4424  TIP3      OH2            -3.1454049752       -7.0021493232       12.6869628508  WZ3       1128            0.0000000000
     13271      4424  TIP3      H1             -4.0737149752       -7.2339593232       12.6598928508  WZ3       1128            0.0000000000
     13272      4424  TIP3      H2             -2.6942949752       -7.7791693232       12.3568428508  WZ3       1128            0.0000000000
     13273      4425  TIP3      OH2           -10.6020949752       -2.6739893232        8.8198328508  WZ3       1129            0.0000000000
     13274      4425  TIP3      H1            -10.0748749752       -1.9005493232        8.6197128508  WZ3       1129            0.0000000000
     13275      4425  TIP3      H2            -11.4822449752       -2.4490693232        8.5182328508  WZ3       1129            0.0000000000
     13276      4426  TIP3      OH2           -14.8473249752       -7.8115793232        3.4070728508  WZ3       1130            0.0000000000
     13277      4426  TIP3      H1            -14.2313349752       -7.1848593232        3.7865528508  WZ3       1130            0.0000000000
     13278      4426  TIP3      H2            -15.7090649752       -7.4955993232        3.6787228508  WZ3       1130            0.0000000000
     13279      4427  TIP3      OH2            -9.1748649752       -5.0109993232        8.3962628508  WZ3       1131            0.0000000000
     13280      4427  TIP3      H1             -9.4158649752       -4.0855593232        8.4377928508  WZ3       1131            0.0000000000
     13281      4427  TIP3      H2             -9.9155049752       -5.4698693232        8.7926528508  WZ3       1131            0.0000000000
     13282      4428  TIP3      OH2            -8.6602049752       -0.8616393232       14.7113728508  WZ3       1132            0.0000000000
     13283      4428  TIP3      H1             -8.2977349752       -0.0070793232       14.4778128508  WZ3       1132            0.0000000000
     13284      4428  TIP3      H2             -8.1286849752       -1.1534793232       15.4520028508  WZ3       1132            0.0000000000
     13285      4429  TIP3      OH2           -10.4917849752        0.0107606768        7.9414828508  WZ3       1133            0.0000000000
     13286      4429  TIP3      H1            -11.4417349752        0.1165006768        7.9928128508  WZ3       1133            0.0000000000
     13287      4429  TIP3      H2            -10.1399749752        0.8315006768        8.2862328508  WZ3       1133            0.0000000000
     13288      4430  TIP3      OH2            -5.1161249752       -4.7625693232       14.4119328508  WZ3       1134            0.0000000000
     13289      4430  TIP3      H1             -5.5419949752       -4.9903993232       15.2383328508  WZ3       1134            0.0000000000
     13290      4430  TIP3      H2             -4.5355449752       -5.5013893232       14.2294628508  WZ3       1134            0.0000000000
     13291      4431  TIP3      OH2            -2.9132349752       -3.8335193232        3.4858328508  WZ3       1135            0.0000000000
     13292      4431  TIP3      H1             -2.5599249752       -4.2135393232        4.2901828508  WZ3       1135            0.0000000000
     13293      4431  TIP3      H2             -3.8618849752       -3.9270393232        3.5727628508  WZ3       1135            0.0000000000
     13294      4432  TIP3      OH2            -2.4577049752       -0.2106193232       16.8814128508  WZ3       1136            0.0000000000
     13295      4432  TIP3      H1             -3.0593849752       -0.7663293232       16.3860428508  WZ3       1136            0.0000000000
     13296      4432  TIP3      H2             -2.1763349752        0.4563606768       16.2551528508  WZ3       1136            0.0000000000
     13297      4433  TIP3      OH2             1.5902050248        0.6457306768        3.6868528508  WZ3       1137            0.0000000000
     13298      4433  TIP3      H1              2.3339950248        1.2317806768        3.5470128508  WZ3       1137            0.0000000000
     13299      4433  TIP3      H2              0.8960150248        1.2143106768        4.0200928508  WZ3       1137            0.0000000000
     13300      4434  TIP3      OH2           -14.3351149752      -12.9778493232       16.2886728508  WZ3       1138            0.0000000000
     13301      4434  TIP3      H1            -15.2278849752      -12.6393093232       16.2210728508  WZ3       1138            0.0000000000
     13302      4434  TIP3      H2            -14.4338349752      -13.8332393232       16.7067528508  WZ3       1138            0.0000000000
     13303      4435  TIP3      OH2            -2.0473049752       -5.1613193232        5.7126228508  WZ3       1139            0.0000000000
     13304      4435  TIP3      H1             -2.3245449752       -5.8893893232        6.2687328508  WZ3       1139            0.0000000000
     13305      4435  TIP3      H2             -1.1200049752       -5.0421193232        5.9178828508  WZ3       1139            0.0000000000
     13306      4436  TIP3      OH2           -14.6839149752       -1.1734093232       14.7236128508  WZ3       1140            0.0000000000
     13307      4436  TIP3      H1            -14.4668849752       -2.1051693232       14.6925828508  WZ3       1140            0.0000000000
     13308      4436  TIP3      H2            -14.4375649752       -0.8989093232       15.6068928508  WZ3       1140            0.0000000000
     13309      4437  TIP3      OH2            -8.8224549752       -2.7219093232        1.9328328508  WZ3       1141            0.0000000000
     13310      4437  TIP3      H1             -8.5834749752       -3.4700993232        1.3857228508  WZ3       1141            0.0000000000
     13311      4437  TIP3      H2             -9.0913249752       -3.1097393232        2.7656128508  WZ3       1141            0.0000000000
     13312      4438  TIP3      OH2            -9.8853949752       -3.1515293232        4.3890928508  WZ3       1142            0.0000000000
     13313      4438  TIP3      H1             -9.7385949752       -3.6715493232        5.1791828508  WZ3       1142            0.0000000000
     13314      4438  TIP3      H2             -9.8882249752       -2.2447693232        4.6956828508  WZ3       1142            0.0000000000
     13315      4439  TIP3      OH2           -13.4322849752       -5.8991993232        4.8996328508  WZ3       1143            0.0000000000
     13316      4439  TIP3      H1            -14.1183549752       -5.5469493232        5.4666028508  WZ3       1143            0.0000000000
     13317      4439  TIP3      H2            -12.9094949752       -5.1362393232        4.6530628508  WZ3       1143            0.0000000000
     13318      4440  TIP3      OH2            -5.6007749752      -13.2368193232       15.1785328508  WZ3       1144            0.0000000000
     13319      4440  TIP3      H1             -4.9019849752      -13.1629493232       15.8285028508  WZ3       1144            0.0000000000
     13320      4440  TIP3      H2             -5.9816349752      -14.1013193232       15.3328228508  WZ3       1144            0.0000000000
     13321      4441  TIP3      OH2            -4.8162849752      -13.5846493232        6.2757628508  WZ3       1145            0.0000000000
     13322      4441  TIP3      H1             -4.5964549752      -13.1131093232        5.4723028508  WZ3       1145            0.0000000000
     13323      4441  TIP3      H2             -4.2578849752      -13.1903893232        6.9458228508  WZ3       1145            0.0000000000
     13324      4442  TIP3      OH2            -7.1476749752       -1.4541693232        5.1385128508  WZ3       1146            0.0000000000
     13325      4442  TIP3      H1             -7.9640649752       -0.9571993232        5.1909428508  WZ3       1146            0.0000000000
     13326      4442  TIP3      H2             -6.6180449752       -0.9788193232        4.4983928508  WZ3       1146            0.0000000000
     13327      4443  TIP3      OH2            -7.6162949752      -11.8567693232        7.1106028508  WZ3       1147            0.0000000000
     13328      4443  TIP3      H1             -6.8040349752      -11.3524493232        7.1567728508  WZ3       1147            0.0000000000
     13329      4443  TIP3      H2             -7.8609949752      -12.0017993232        8.0245628508  WZ3       1147            0.0000000000
     13330      4444  TIP3      OH2            -7.0806549752      -10.8704993232       16.2952628508  WZ3       1148            0.0000000000
     13331      4444  TIP3      H1             -6.9616249752      -10.2969593232       17.0523028508  WZ3       1148            0.0000000000
     13332      4444  TIP3      H2             -6.4251949752      -11.5585593232       16.4100428508  WZ3       1148            0.0000000000
     13333      4445  TIP3      OH2            -6.7326249752      -14.7754693232        8.0487128508  WZ3       1149            0.0000000000
     13334      4445  TIP3      H1             -7.0792749752      -14.1584093232        8.6931428508  WZ3       1149            0.0000000000
     13335      4445  TIP3      H2             -6.0739349752      -14.2748993232        7.5672628508  WZ3       1149            0.0000000000
     13336      4446  TIP3      OH2            -9.8093649752       -0.4104493232        5.1202028508  WZ3       1150            0.0000000000
     13337      4446  TIP3      H1             -9.6484949752        0.3893006768        4.6194628508  WZ3       1150            0.0000000000
     13338      4446  TIP3      H2            -10.0065849752       -0.1038493232        6.0052628508  WZ3       1150            0.0000000000
     13339      4447  TIP3      OH2           -11.0749249752      -13.7125293232        4.7359628508  WZ3       1151            0.0000000000
     13340      4447  TIP3      H1            -11.1584449752      -12.8242193232        5.0826028508  WZ3       1151            0.0000000000
     13341      4447  TIP3      H2            -10.1848949752      -13.9778593232        4.9676428508  WZ3       1151            0.0000000000
     13342      4448  TIP3      OH2            -0.8760749752      -12.9634693232       17.1302328508  WZ3       1152            0.0000000000
     13343      4448  TIP3      H1             -1.7924949752      -12.7012993232       17.0426028508  WZ3       1152            0.0000000000
     13344      4448  TIP3      H2             -0.5405749752      -12.9665693232       16.2337628508  WZ3       1152            0.0000000000
     13345      4449  TIP3      OH2            -2.2739749752       -9.2133693232       11.2259628508  WZ3       1153            0.0000000000
     13346      4449  TIP3      H1             -3.0715349752       -9.6283493232       10.8974628508  WZ3       1153            0.0000000000
     13347      4449  TIP3      H2             -1.8288649752       -9.9039993232       11.7170128508  WZ3       1153            0.0000000000
     13348      4450  TIP3      OH2           -12.8163949752       -3.2853093232        3.7964128508  WZ3       1154            0.0000000000
     13349      4450  TIP3      H1            -12.2242449752       -2.5858293232        4.0726528508  WZ3       1154            0.0000000000
     13350      4450  TIP3      H2            -12.3570949752       -3.7183593232        3.0768728508  WZ3       1154            0.0000000000
     13351      4451  TIP3      OH2           -14.5004749752      -10.6210093232        2.9123528508  WZ3       1155            0.0000000000
     13352      4451  TIP3      H1            -14.5452149752       -9.6816993232        3.0910528508  WZ3       1155            0.0000000000
     13353      4451  TIP3      H2            -15.3881549752      -10.8565193232        2.6425628508  WZ3       1155            0.0000000000
     13354      4452  TIP3      OH2            -1.1875149752        0.0428806768       12.8483128508  WZ3       1156            0.0000000000
     13355      4452  TIP3      H1             -1.3430849752        0.7213206768       12.1912428508  WZ3       1156            0.0000000000
     13356      4452  TIP3      H2             -0.2548749752        0.1148106768       13.0513728508  WZ3       1156            0.0000000000
     13357      4453  TIP3      OH2           -13.6922749752      -15.8393493232       11.5854528508  WZ3       1157            0.0000000000
     13358      4453  TIP3      H1            -13.9212949752      -15.7800993232       10.6579528508  WZ3       1157            0.0000000000
     13359      4453  TIP3      H2            -14.1349349752      -16.6307993232       11.8918628508  WZ3       1157            0.0000000000
     13360      4454  TIP3      OH2           -14.7619449752       -1.8986393232        7.7460328508  WZ3       1158            0.0000000000
     13361      4454  TIP3      H1            -15.5940849752       -1.4263693232        7.7731728508  WZ3       1158            0.0000000000
     13362      4454  TIP3      H2            -14.2161149752       -1.3888793232        7.1473428508  WZ3       1158            0.0000000000
     13363      4455  TIP3      OH2           -15.4735749752        0.7137306768       19.0758328508  WZ3       1159            0.0000000000
     13364      4455  TIP3      H1            -14.9333549752        0.4971306768       19.8357528508  WZ3       1159            0.0000000000
     13365      4455  TIP3      H2            -15.9547749752       -0.0916693232       18.8860828508  WZ3       1159            0.0000000000
     13366      4456  TIP3      OH2           -10.8762349752       -0.3668293232       20.6962528508  WZ3       1160            0.0000000000
     13367      4456  TIP3      H1            -10.1085149752       -0.8257493232       21.0371728508  WZ3       1160            0.0000000000
     13368      4456  TIP3      H2            -10.8976149752       -0.5928493232       19.7663728508  WZ3       1160            0.0000000000
     13369      4457  TIP3      OH2            -6.7842749752       -0.8587693232        2.0714328508  WZ3       1161            0.0000000000
     13370      4457  TIP3      H1             -7.4281749752       -1.4899093232        2.3928028508  WZ3       1161            0.0000000000
     13371      4457  TIP3      H2             -6.0224449752       -1.3899693232        1.8397828508  WZ3       1161            0.0000000000
     13372      4458  TIP3      OH2            -4.2993649752       -1.9867193232       19.4254028508  WZ3       1162            0.0000000000
     13373      4458  TIP3      H1             -4.6504149752       -2.8434193232       19.6684428508  WZ3       1162            0.0000000000
     13374      4458  TIP3      H2             -3.5730449752       -1.8440493232       20.0323028508  WZ3       1162            0.0000000000
     13375      4459  TIP3      OH2            -2.1799849752       -1.0417793232        2.3052328508  WZ3       1163            0.0000000000
     13376      4459  TIP3      H1             -1.8969449752       -1.8362593232        2.7579228508  WZ3       1163            0.0000000000
     13377      4459  TIP3      H2             -1.4401949752       -0.8086793232        1.7443428508  WZ3       1163            0.0000000000
     13378      4460  TIP3      OH2           -15.5666249752       -5.4758593232       20.0302628508  WZ3       1164            0.0000000000
     13379      4460  TIP3      H1            -15.4225749752       -6.3777893232       19.7439328508  WZ3       1164            0.0000000000
     13380      4460  TIP3      H2            -16.3388849752       -5.1896493232       19.5424928508  WZ3       1164            0.0000000000
     13381      4461  TIP3      OH2           -11.2252549752       -5.1322893232        2.1627228508  WZ3       1165            0.0000000000
     13382      4461  TIP3      H1            -11.1608449752       -5.9263293232        2.6933628508  WZ3       1165            0.0000000000
     13383      4461  TIP3      H2            -10.5723349752       -5.2510093232        1.4729228508  WZ3       1165            0.0000000000
     13384      4462  TIP3      OH2            -8.9110149752       -5.5060493232       19.4629028508  WZ3       1166            0.0000000000
     13385      4462  TIP3      H1             -9.2396349752       -5.2352393232       18.6056428508  WZ3       1166            0.0000000000
     13386      4462  TIP3      H2             -8.7591949752       -6.4470693232       19.3754028508  WZ3       1166            0.0000000000
     13387      4463  TIP3      OH2            -5.8729149752       -4.0851193232        1.8985228508  WZ3       1167            0.0000000000
     13388      4463  TIP3      H1             -6.1415049752       -3.9049093232        2.7994128508  WZ3       1167            0.0000000000
     13389      4463  TIP3      H2             -6.0793549752       -5.0104993232        1.7671028508  WZ3       1167            0.0000000000
     13390      4464  TIP3      OH2            -3.1764949752       -5.5903193232       16.8461328508  WZ3       1168            0.0000000000
     13391      4464  TIP3      H1             -2.4310149752       -5.0019493232       16.7265328508  WZ3       1168            0.0000000000
     13392      4464  TIP3      H2             -3.9338149752       -5.0083493232       16.9094428508  WZ3       1168            0.0000000000
     13393      4465  TIP3      OH2           -14.7339749752       -8.2755293232       19.4501928508  WZ3       1169            0.0000000000
     13394      4465  TIP3      H1            -14.3258549752       -9.1328693232       19.3292528508  WZ3       1169            0.0000000000
     13395      4465  TIP3      H2            -14.9942149752       -8.2613993232       20.3712228508  WZ3       1169            0.0000000000
     13396      4466  TIP3      OH2           -10.0758749752       -7.1596693232        4.4685228508  WZ3       1170            0.0000000000
     13397      4466  TIP3      H1            -10.5356749752       -7.6438393232        5.1543728508  WZ3       1170            0.0000000000
     13398      4466  TIP3      H2             -9.8210049752       -7.8281293232        3.8325728508  WZ3       1170            0.0000000000
     13399      4467  TIP3      OH2           -10.7869449752       -9.2669593232       16.8244828508  WZ3       1171            0.0000000000
     13400      4467  TIP3      H1            -11.4053349752       -8.5922993232       17.1049528508  WZ3       1171            0.0000000000
     13401      4467  TIP3      H2            -10.4428249752       -8.9455693232       15.9911028508  WZ3       1171            0.0000000000
     13402      4468  TIP3      OH2            -9.0048349752       -8.9164893232        2.7308428508  WZ3       1172            0.0000000000
     13403      4468  TIP3      H1             -9.1853349752       -9.0713693232        1.8036728508  WZ3       1172            0.0000000000
     13404      4468  TIP3      H2             -8.0547849752       -8.8086193232        2.7756328508  WZ3       1172            0.0000000000
     13405      4469  TIP3      OH2            -5.7671249752       -6.7954293232       20.1019628508  WZ3       1173            0.0000000000
     13406      4469  TIP3      H1             -4.8140049752       -6.7115193232       20.0745628508  WZ3       1173            0.0000000000
     13407      4469  TIP3      H2             -5.9276649752       -7.5072493232       20.7214528508  WZ3       1173            0.0000000000
     13408      4470  TIP3      OH2             0.3849950248       -6.5620693232        2.1766528508  WZ3       1174            0.0000000000
     13409      4470  TIP3      H1              0.1114750248       -6.9865193232        1.3634828508  WZ3       1174            0.0000000000
     13410      4470  TIP3      H2              0.4244050248       -5.6306193232        1.9596928508  WZ3       1174            0.0000000000
     13411      4471  TIP3      OH2           -10.4475749752      -11.9118793232       17.9067928508  WZ3       1175            0.0000000000
     13412      4471  TIP3      H1            -10.2974849752      -12.6407493232       17.3047628508  WZ3       1175            0.0000000000
     13413      4471  TIP3      H2            -10.4453349752      -11.1347093232       17.3480128508  WZ3       1175            0.0000000000
     13414      4472  TIP3      OH2           -10.0350049752      -13.5422993232       15.3995328508  WZ3       1176            0.0000000000
     13415      4472  TIP3      H1             -9.4992549752      -13.0906293232       14.7474628508  WZ3       1176            0.0000000000
     13416      4472  TIP3      H2            -10.8870449752      -13.6503193232       14.9769428508  WZ3       1176            0.0000000000
     13417      4473  TIP3      OH2            -8.4531649752       -8.1026793232       15.6390528508  WZ3       1177            0.0000000000
     13418      4473  TIP3      H1             -7.7026849752       -8.2589293232       15.0658328508  WZ3       1177            0.0000000000
     13419      4473  TIP3      H2             -8.7923349752       -7.2510193232       15.3636028508  WZ3       1177            0.0000000000
     13420      4474  TIP3      OH2            -4.0375449752      -10.2874993232       20.6675828508  WZ3       1178            0.0000000000
     13421      4474  TIP3      H1             -3.8454149752      -11.2185593232       20.5560328508  WZ3       1178            0.0000000000
     13422      4474  TIP3      H2             -3.1799149752       -9.8625493232       20.6571228508  WZ3       1178            0.0000000000
     13423      4475  TIP3      OH2            -2.7208249752       -7.4989793232       18.7448528508  WZ3       1179            0.0000000000
     13424      4475  TIP3      H1             -3.0023249752       -6.7895193232       18.1672328508  WZ3       1179            0.0000000000
     13425      4475  TIP3      H2             -1.7783949752       -7.5716793232       18.5939728508  WZ3       1179            0.0000000000
     13426      4476  TIP3      OH2           -11.9689449752      -10.7135293232       19.8183528508  WZ3       1180            0.0000000000
     13427      4476  TIP3      H1            -12.7360449752      -11.2460493232       19.6081128508  WZ3       1180            0.0000000000
     13428      4476  TIP3      H2            -11.2900449752      -11.0234893232       19.2189828508  WZ3       1180            0.0000000000
     13429      4477  TIP3      OH2            -9.2294549752      -16.0857293232       15.8308928508  WZ3       1181            0.0000000000
     13430      4477  TIP3      H1             -9.3274949752      -15.1394093232       15.7255128508  WZ3       1181            0.0000000000
     13431      4477  TIP3      H2             -9.9718349752      -16.4583493232       15.3552428508  WZ3       1181            0.0000000000
     13432      4478  TIP3      OH2            -7.9654049752      -11.7641893232       19.3947328508  WZ3       1182            0.0000000000
     13433      4478  TIP3      H1             -8.2008649752      -11.9835193232       20.2962228508  WZ3       1182            0.0000000000
     13434      4478  TIP3      H2             -8.7487149752      -11.9710693232       18.8849828508  WZ3       1182            0.0000000000
     13435      4479  TIP3      OH2            -5.2497449752      -12.6368393232       18.4700828508  WZ3       1183            0.0000000000
     13436      4479  TIP3      H1             -6.1972049752      -12.6048693232       18.6024128508  WZ3       1183            0.0000000000
     13437      4479  TIP3      H2             -4.9370749752      -13.2621293232       19.1239028508  WZ3       1183            0.0000000000
     13438      4480  TIP3      OH2            -3.6155949752      -14.0027293232       20.4752728508  WZ3       1184            0.0000000000
     13439      4480  TIP3      H1             -3.7124149752      -14.9549993232       20.4694628508  WZ3       1184            0.0000000000
     13440      4480  TIP3      H2             -3.9372849752      -13.7340493232       21.3358228508  WZ3       1184            0.0000000000
     13441      4481  TIP3      OH2           -13.7886649752      -12.7931493232       19.5228228508  WZ3       1185            0.0000000000
     13442      4481  TIP3      H1            -13.5769249752      -13.4995393232       18.9125728508  WZ3       1185            0.0000000000
     13443      4481  TIP3      H2            -13.8999149752      -13.2305493232       20.3669428508  WZ3       1185            0.0000000000
     13444      4482  TIP3      OH2            -9.0076449752      -16.7919893232       18.5021728508  WZ3       1186            0.0000000000
     13445      4482  TIP3      H1             -8.2958049752      -17.4317693232       18.4880828508  WZ3       1186            0.0000000000
     13446      4482  TIP3      H2             -9.1086049752      -16.5251593232       17.5884828508  WZ3       1186            0.0000000000
     13447      4483  TIP3      OH2            -8.6538949752      -15.1091493232       20.5558028508  WZ3       1187            0.0000000000
     13448      4483  TIP3      H1             -8.7856749752      -15.5847693232       19.7356528508  WZ3       1187            0.0000000000
     13449      4483  TIP3      H2             -9.2531549752      -14.3647893232       20.5005128508  WZ3       1187            0.0000000000
     13450      4484  TIP3      OH2            -9.1076649752        1.7738806768        3.7322028508  WZ3       1188            0.0000000000
     13451      4484  TIP3      H1             -8.1745949752        1.9317506768        3.8760428508  WZ3       1188            0.0000000000
     13452      4484  TIP3      H2             -9.3717849752        2.4491806768        3.1073528508  WZ3       1188            0.0000000000
     13453      4485  TIP3      OH2           -15.5391749752       -3.5897393232        3.2150128508  WZ3       1189            0.0000000000
     13454      4485  TIP3      H1            -14.6252549752       -3.5108493232        3.4884028508  WZ3       1189            0.0000000000
     13455      4485  TIP3      H2            -15.5318649752       -4.2767793232        2.5485728508  WZ3       1189            0.0000000000
     13456      4486  TIP3      OH2           -16.8901149752        1.8031106768        8.2924028508  WZ3       1190            0.0000000000
     13457      4486  TIP3      H1            -17.5374049752        1.3412806768        7.7595228508  WZ3       1190            0.0000000000
     13458      4486  TIP3      H2            -16.5356549752        1.1314406768        8.8750228508  WZ3       1190            0.0000000000
     13459      4487  TIP3      OH2           -16.0201949752       -0.1161893232       10.0970228508  WZ3       1191            0.0000000000
     13460      4487  TIP3      H1            -16.3545149752       -0.9964593232       10.2690428508  WZ3       1191            0.0000000000
     13461      4487  TIP3      H2            -15.7979549752        0.2293106768       10.9615828508  WZ3       1191            0.0000000000
     13462      4488  TIP3      OH2             1.5282850248        0.6934506768       13.0775028508  WZ3       1192            0.0000000000
     13463      4488  TIP3      H1              1.5069550248        0.8782906768       14.0164428508  WZ3       1192            0.0000000000
     13464      4488  TIP3      H2              2.2189050248        1.2618506768       12.7366428508  WZ3       1192            0.0000000000
     13465      4489  TIP3      OH2             1.0915750248        0.2605606768       15.9994128508  WZ3       1193            0.0000000000
     13466      4489  TIP3      H1              0.6044450248       -0.4750293232       15.6281528508  WZ3       1193            0.0000000000
     13467      4489  TIP3      H2              1.6408450248       -0.1330493232       16.6773528508  WZ3       1193            0.0000000000
     13468      4490  TIP3      OH2            -0.4576949752       -3.9496293232       20.6374428508  WZ3       1194            0.0000000000
     13469      4490  TIP3      H1             -1.3235849752       -4.0546593232       21.0316728508  WZ3       1194            0.0000000000
     13470      4490  TIP3      H2             -0.0811049752       -3.1912993232       21.0839128508  WZ3       1194            0.0000000000
     13471      4491  TIP3      OH2             0.8432750248       -5.6932593232        6.1516928508  WZ3       1195            0.0000000000
     13472      4491  TIP3      H1              1.6934150248       -5.2721693232        6.2788528508  WZ3       1195            0.0000000000
     13473      4491  TIP3      H2              0.8487850248       -6.4332493232        6.7588328508  WZ3       1195            0.0000000000
     13474      4492  TIP3      OH2             1.2378350248       -7.6395193232        7.9752628508  WZ3       1196            0.0000000000
     13475      4492  TIP3      H1              0.5112950248       -8.1192593232        8.3730228508  WZ3       1196            0.0000000000
     13476      4492  TIP3      H2              1.8191650248       -7.4340493232        8.7074228508  WZ3       1196            0.0000000000
     13477      4493  TIP3      OH2             0.9969550248       -4.8547693232       12.9230228508  WZ3       1197            0.0000000000
     13478      4493  TIP3      H1              1.8303750248       -5.2327693232       12.6423828508  WZ3       1197            0.0000000000
     13479      4493  TIP3      H2              1.1089850248       -3.9116493232       12.8039328508  WZ3       1197            0.0000000000
     13480      4494  TIP3      OH2            -0.5168149752       -1.9770193232       15.2298628508  WZ3       1198            0.0000000000
     13481      4494  TIP3      H1             -1.1642849752       -1.6518693232       15.8553828508  WZ3       1198            0.0000000000
     13482      4494  TIP3      H2             -1.0344149752       -2.4172493232       14.5556928508  WZ3       1198            0.0000000000
     13483      4495  TIP3      OH2             1.5061450248       -7.7386693232        4.3663928508  WZ3       1199            0.0000000000
     13484      4495  TIP3      H1              0.9842550248       -7.3822593232        3.6474828508  WZ3       1199            0.0000000000
     13485      4495  TIP3      H2              1.4730650248       -7.0638893232        5.0444828508  WZ3       1199            0.0000000000
     13486      4496  TIP3      OH2            -0.1449549752      -10.4991093232        2.9171028508  WZ3       1200            0.0000000000
     13487      4496  TIP3      H1             -0.0485149752       -9.8324093232        2.2370728508  WZ3       1200            0.0000000000
     13488      4496  TIP3      H2             -0.2849949752      -11.3144793232        2.4356528508  WZ3       1200            0.0000000000
     13489      4497  TIP3      OH2            -0.9754849752       -9.1188693232        8.5381328508  WZ3       1201            0.0000000000
     13490      4497  TIP3      H1             -1.1256049752      -10.0640093232        8.5179128508  WZ3       1201            0.0000000000
     13491      4497  TIP3      H2             -1.3290349752       -8.8377293232        9.3820428508  WZ3       1201            0.0000000000
     13492      4498  TIP3      OH2           -15.9402449752       -7.0406493232       12.5485128508  WZ3       1202            0.0000000000
     13493      4498  TIP3      H1            -15.7559549752       -7.1224793232       11.6128028508  WZ3       1202            0.0000000000
     13494      4498  TIP3      H2            -15.0909549752       -7.1649493232       12.9721528508  WZ3       1202            0.0000000000
     13495      4499  TIP3      OH2            -0.1191949752       -7.1485393232       18.1769628508  WZ3       1203            0.0000000000
     13496      4499  TIP3      H1              0.4635350248       -7.8833093232       18.3686828508  WZ3       1203            0.0000000000
     13497      4499  TIP3      H2              0.4447350248       -6.3765093232       18.2235428508  WZ3       1203            0.0000000000
     13498      4500  TIP3      OH2             1.3775150248       -9.2459593232       18.8615028508  WZ3       1204            0.0000000000
     13499      4500  TIP3      H1              0.5141850248       -9.6247493232       18.6959728508  WZ3       1204            0.0000000000
     13500      4500  TIP3      H2              1.9818850248       -9.9844793232       18.7870828508  WZ3       1204            0.0000000000
     13501      4501  TIP3      OH2            -0.8975749752      -13.0911293232        2.0346528508  WZ3       1205            0.0000000000
     13502      4501  TIP3      H1             -0.2869949752      -13.4624493232        2.6714728508  WZ3       1205            0.0000000000
     13503      4501  TIP3      H2             -1.7344249752      -13.5124393232        2.2306528508  WZ3       1205            0.0000000000
     13504      4502  TIP3      OH2            -1.2650049752      -11.5362893232        7.0006428508  WZ3       1206            0.0000000000
     13505      4502  TIP3      H1             -0.9852949752      -12.4432493232        7.1248128508  WZ3       1206            0.0000000000
     13506      4502  TIP3      H2             -0.5058349752      -11.1021393232        6.6115628508  WZ3       1206            0.0000000000
     13507      4503  TIP3      OH2            -0.6531749752      -10.9545493232       12.4365328508  WZ3       1207            0.0000000000
     13508      4503  TIP3      H1              0.2796250248      -10.7425593232       12.4021328508  WZ3       1207            0.0000000000
     13509      4503  TIP3      H2             -0.8884249752      -10.8533393232       13.3588328508  WZ3       1207            0.0000000000
     13510      4504  TIP3      OH2            -0.6239849752      -10.2180193232       15.2124728508  WZ3       1208            0.0000000000
     13511      4504  TIP3      H1             -1.4668549752       -9.9499793232       15.5784528508  WZ3       1208            0.0000000000
     13512      4504  TIP3      H2             -0.1815549752       -9.3958293232       15.0015828508  WZ3       1208            0.0000000000
     13513      4505  TIP3      OH2           -16.3427649752      -11.7701493232       18.6893928508  WZ3       1209            0.0000000000
     13514      4505  TIP3      H1            -15.4232749752      -11.8923193232       18.9257028508  WZ3       1209            0.0000000000
     13515      4505  TIP3      H2            -16.7923149752      -12.5201793232       19.0787428508  WZ3       1209            0.0000000000
     13516      4506  TIP3      OH2             1.6591750248      -16.2379993232       20.5659728508  WZ3       1210            0.0000000000
     13517      4506  TIP3      H1              2.0088750248      -16.8916493232       19.9604428508  WZ3       1210            0.0000000000
     13518      4506  TIP3      H2              1.8061250248      -15.4005893232       20.1262328508  WZ3       1210            0.0000000000
     13519      4507  TIP3      OH2            -0.6515249752      -14.2733593232        7.0488428508  WZ3       1211            0.0000000000
     13520      4507  TIP3      H1             -0.4690249752      -14.7222093232        7.8743428508  WZ3       1211            0.0000000000
     13521      4507  TIP3      H2             -1.2512349752      -14.8579193232        6.5853028508  WZ3       1211            0.0000000000
     13522      4508  TIP3      OH2           -15.1215149752      -13.4579893232       11.5806828508  WZ3       1212            0.0000000000
     13523      4508  TIP3      H1            -14.6763549752      -14.2497393232       11.8826528508  WZ3       1212            0.0000000000
     13524      4508  TIP3      H2            -14.6552149752      -12.7414693232       12.0112428508  WZ3       1212            0.0000000000
     13525      4509  TIP3      OH2           -16.8174849752      -10.4586893232       12.6497028508  WZ3       1213            0.0000000000
     13526      4509  TIP3      H1            -16.3255049752      -10.6796393232       11.8589028508  WZ3       1213            0.0000000000
     13527      4509  TIP3      H2            -16.4553949752       -9.6183493232       12.9306528508  WZ3       1213            0.0000000000
     13528      4510  TIP3      OH2             1.1788950248      -14.1285393232       18.9151028508  WZ3       1214            0.0000000000
     13529      4510  TIP3      H1              0.2614650248      -13.8578293232       18.8794528508  WZ3       1214            0.0000000000
     13530      4510  TIP3      H2              1.3018350248      -14.6636993232       18.1310728508  WZ3       1214            0.0000000000
     13531      4511  TIP3      OH2             1.2150950248      -14.2055493232        3.5768728508  WZ3       1215            0.0000000000
     13532      4511  TIP3      H1              1.6273550248      -14.9269793232        3.1016728508  WZ3       1215            0.0000000000
     13533      4511  TIP3      H2              1.8967450248      -13.5360893232        3.6353028508  WZ3       1215            0.0000000000
     13534      4512  TIP3      OH2           -16.5038349752      -14.2007793232        6.7039428508  WZ3       1216            0.0000000000
     13535      4512  TIP3      H1            -17.4289949752      -13.9921193232        6.5744928508  WZ3       1216            0.0000000000
     13536      4512  TIP3      H2            -16.0498449752      -13.7166993232        6.0141728508  WZ3       1216            0.0000000000
     13537      4513  TIP3      OH2            -1.7331149752        0.7833906768        8.6496828508  WZ3       1217            0.0000000000
     13538      4513  TIP3      H1             -1.0808249752        0.4356006768        8.0415928508  WZ3       1217            0.0000000000
     13539      4513  TIP3      H2             -1.2227349752        1.2717106768        9.2956528508  WZ3       1217            0.0000000000
     13540      4514  TIP3      OH2           -16.5402949752      -15.4628793232       15.0481928508  WZ3       1218            0.0000000000
     13541      4514  TIP3      H1            -17.2052449752      -15.7088493232       15.6912828508  WZ3       1218            0.0000000000
     13542      4514  TIP3      H2            -16.9831649752      -14.8408393232       14.4709928508  WZ3       1218            0.0000000000
     13543      4515  TIP3      OH2           -14.3483649752       -2.2874693232       19.1927728508  WZ3       1219            0.0000000000
     13544      4515  TIP3      H1            -15.1691149752       -2.1128193232       18.7322428508  WZ3       1219            0.0000000000
     13545      4515  TIP3      H2            -14.6005849752       -2.3609993232       20.1132128508  WZ3       1219            0.0000000000
     13546      4516  TIP3      OH2           -11.3940749752       -1.3133493232       15.4511728508  WZ3       1220            0.0000000000
     13547      4516  TIP3      H1            -11.8189649752       -0.5034993232       15.1686328508  WZ3       1220            0.0000000000
     13548      4516  TIP3      H2            -10.4897949752       -1.2279393232       15.1491528508  WZ3       1220            0.0000000000
     13549      4517  TIP3      OH2            -7.0829349752        0.0856506768       18.4105428508  WZ3       1221            0.0000000000
     13550      4517  TIP3      H1             -6.8981849752       -0.2477393232       19.2885728508  WZ3       1221            0.0000000000
     13551      4517  TIP3      H2             -6.2364849752        0.3955106768       18.0884628508  WZ3       1221            0.0000000000
     13552      4518  TIP3      OH2            -4.7378949752        1.3715406768       17.6546828508  WZ3       1222            0.0000000000
     13553      4518  TIP3      H1             -4.0610049752        0.7387706768       17.4146028508  WZ3       1222            0.0000000000
     13554      4518  TIP3      H2             -4.4160149752        1.7725906768       18.4620128508  WZ3       1222            0.0000000000
     13555      4519  TIP3      OH2             0.1794850248      -16.0389093232       16.7341828508  WZ3       1223            0.0000000000
     13556      4519  TIP3      H1             -0.6331649752      -15.7138793232       16.3466528508  WZ3       1223            0.0000000000
     13557      4519  TIP3      H2              0.4123350248      -16.7990593232       16.2010928508  WZ3       1223            0.0000000000
     13558      4520  TIP3      OH2           -13.9924049752        1.9430406768       15.4987028508  WZ3       1224            0.0000000000
     13559      4520  TIP3      H1            -14.7127649752        2.3831406768       15.0474728508  WZ3       1224            0.0000000000
     13560      4520  TIP3      H2            -14.3580049752        1.6925106768       16.3471028508  WZ3       1224            0.0000000000
     13561      4521  TIP3      OH2           -11.5251449752        1.5434306768       14.5284228508  WZ3       1225            0.0000000000
     13562      4521  TIP3      H1            -12.3899249752        1.6152806768       14.9324328508  WZ3       1225            0.0000000000
     13563      4521  TIP3      H2            -11.5802449752        2.0901606768       13.7446728508  WZ3       1225            0.0000000000
     13564      4522  TIP3      OH2            -6.8145849752        1.4313206768       13.7040228508  WZ3       1226            0.0000000000
     13565      4522  TIP3      H1             -7.2711849752        1.9602906768       13.0498628508  WZ3       1226            0.0000000000
     13566      4522  TIP3      H2             -6.6517849752        2.0344606768       14.4292528508  WZ3       1226            0.0000000000
     13567      4523  TIP3      OH2            -4.4869549752        0.3092806768       14.6490528508  WZ3       1227            0.0000000000
     13568      4523  TIP3      H1             -5.3915849752        0.4743006768       14.3832628508  WZ3       1227            0.0000000000
     13569      4523  TIP3      H2             -4.0580949752        1.1625006768       14.5833928508  WZ3       1227            0.0000000000
     13570      4524  TIP3      OH2            -1.8827649752        1.8791906768       14.9438328508  WZ3       1228            0.0000000000
     13571      4524  TIP3      H1             -2.0645649752        2.7950806768       14.7333228508  WZ3       1228            0.0000000000
     13572      4524  TIP3      H2             -1.7059849752        1.4689006768       14.0972928508  WZ3       1228            0.0000000000
     13573      4525  TIP3      OH2           -14.5775949752        0.5662906768       12.4088828508  WZ3       1229            0.0000000000
     13574      4525  TIP3      H1            -14.5959949752        0.1408006768       13.2661128508  WZ3       1229            0.0000000000
     13575      4525  TIP3      H2            -13.7728049752        0.2477906768       12.0001028508  WZ3       1229            0.0000000000
     13576      4526  TIP3      OH2           -12.4362849752       -0.7238393232       11.0638728508  WZ3       1230            0.0000000000
     13577      4526  TIP3      H1            -12.6552149752       -1.6400993232       11.2334728508  WZ3       1230            0.0000000000
     13578      4526  TIP3      H2            -11.6120649752       -0.5837993232       11.5300128508  WZ3       1230            0.0000000000
     13579      4527  TIP3      OH2            -9.8990349752       -0.2539093232       11.9126728508  WZ3       1231            0.0000000000
     13580      4527  TIP3      H1             -9.6864649752       -1.1420093232       11.6257628508  WZ3       1231            0.0000000000
     13581      4527  TIP3      H2             -9.8345249752       -0.2881393232       12.8670728508  WZ3       1231            0.0000000000
     13582      4528  TIP3      OH2            -6.3906649752      -14.5898493232       11.0570028508  WZ3       1232            0.0000000000
     13583      4528  TIP3      H1             -7.0649849752      -15.2192893232       11.3125828508  WZ3       1232            0.0000000000
     13584      4528  TIP3      H2             -5.8267449752      -15.0739593232       10.4537928508  WZ3       1232            0.0000000000
     13585      4529  TIP3      OH2            -1.2479449752      -16.4824493232       11.1697128508  WZ3       1233            0.0000000000
     13586      4529  TIP3      H1             -0.6441849752      -15.9349093232       10.6678128508  WZ3       1233            0.0000000000
     13587      4529  TIP3      H2             -2.1177449752      -16.1634093232       10.9291228508  WZ3       1233            0.0000000000
     13588      4530  TIP3      OH2             0.4790950248      -15.3435793232        9.5028028508  WZ3       1234            0.0000000000
     13589      4530  TIP3      H1              1.0908450248      -15.8580093232        8.9761628508  WZ3       1234            0.0000000000
     13590      4530  TIP3      H2              0.8614350248      -14.4663693232        9.5262428508  WZ3       1234            0.0000000000
     13591      4531  TIP3      OH2           -14.0639149752      -15.9558193232        8.8789928508  WZ3       1235            0.0000000000
     13592      4531  TIP3      H1            -14.8409349752      -16.1903293232        8.3715828508  WZ3       1235            0.0000000000
     13593      4531  TIP3      H2            -13.5335549752      -16.7526093232        8.8877928508  WZ3       1235            0.0000000000
     13594      4532  TIP3      OH2           -15.2275749752      -16.1580093232        4.6826028508  WZ3       1236            0.0000000000
     13595      4532  TIP3      H1            -14.7885049752      -15.5469593232        4.0909528508  WZ3       1236            0.0000000000
     13596      4532  TIP3      H2            -15.8613349752      -15.6195993232        5.1566028508  WZ3       1236            0.0000000000
     13597      4533  TIP3      OH2            -9.4846549752      -16.0291093232        8.6923028508  WZ3       1237            0.0000000000
     13598      4533  TIP3      H1             -8.6103149752      -15.6406793232        8.6627328508  WZ3       1237            0.0000000000
     13599      4533  TIP3      H2             -9.6205749752      -16.2443293232        9.6150228508  WZ3       1237            0.0000000000
     13600      4534  TIP3      OH2            -3.9278149752      -15.9991293232       10.3414728508  WZ3       1238            0.0000000000
     13601      4534  TIP3      H1             -3.8516549752      -15.9039693232        9.3920728508  WZ3       1238            0.0000000000
     13602      4534  TIP3      H2             -4.2028949752      -16.9068393232       10.4703828508  WZ3       1238            0.0000000000
     13603      4535  TIP3      OH2            -2.5745549752      -15.9733493232        6.0339728508  WZ3       1239            0.0000000000
     13604      4535  TIP3      H1             -3.2774449752      -15.3584293232        5.8241128508  WZ3       1239            0.0000000000
     13605      4535  TIP3      H2             -3.0194149752      -16.8106793232        6.1650628508  WZ3       1239            0.0000000000
     13606      4536  TIP3      OH2           -15.3266249752       -0.2097893232        5.5801128508  WZ3       1240            0.0000000000
     13607      4536  TIP3      H1            -16.0116349752       -0.2478993232        4.9126228508  WZ3       1240            0.0000000000
     13608      4536  TIP3      H2            -15.3229049752        0.7029706768        5.8683228508  WZ3       1240            0.0000000000
     13609      4537  TIP3      OH2           -13.3666649752      -14.2418593232        3.1250128508  WZ3       1241            0.0000000000
     13610      4537  TIP3      H1            -12.8753249752      -14.8716193232        2.5975628508  WZ3       1241            0.0000000000
     13611      4537  TIP3      H2            -12.7430349752      -13.9459193232        3.7881328508  WZ3       1241            0.0000000000
     13612      4538  TIP3      OH2            -8.3406549752      -13.9487093232        5.5820628508  WZ3       1242            0.0000000000
     13613      4538  TIP3      H1             -8.1625249752      -14.5953893232        6.2649228508  WZ3       1242            0.0000000000
     13614      4538  TIP3      H2             -8.3940349752      -13.1149393232        6.0491728508  WZ3       1242            0.0000000000
     13615      4539  TIP3      OH2            -6.4622749752        0.9997006768        3.9777328508  WZ3       1243            0.0000000000
     13616      4539  TIP3      H1             -5.5962549752        1.3664406768        3.7995528508  WZ3       1243            0.0000000000
     13617      4539  TIP3      H2             -6.7089949752        0.5605006768        3.1638128508  WZ3       1243            0.0000000000
     13618      4540  TIP3      OH2             0.2466850248        0.5627306768        6.6568428508  WZ3       1244            0.0000000000
     13619      4540  TIP3      H1              0.0523950248       -0.1850593232        6.0918028508  WZ3       1244            0.0000000000
     13620      4540  TIP3      H2              0.2076950248        1.3207406768        6.0736328508  WZ3       1244            0.0000000000
     13621      4541  TIP3      OH2           -14.1061149752      -15.4416293232       18.3966128508  WZ3       1245            0.0000000000
     13622      4541  TIP3      H1            -14.4722949752      -16.2073693232       18.8390828508  WZ3       1245            0.0000000000
     13623      4541  TIP3      H2            -13.1932649752      -15.4126093232       18.6831228508  WZ3       1245            0.0000000000
     13624      4542  TIP3      OH2           -12.1330349752      -16.0911893232       19.9323228508  WZ3       1246            0.0000000000
     13625      4542  TIP3      H1            -11.2346749752      -16.3651693232       19.7476628508  WZ3       1246            0.0000000000
     13626      4542  TIP3      H2            -12.5197249752      -16.8335893232       20.3965828508  WZ3       1246            0.0000000000
     13627      4543  TIP3      OH2           -13.5085049752        0.7102906768        2.6053228508  WZ3       1247            0.0000000000
     13628      4543  TIP3      H1            -13.7760449752        0.9965806768        3.4786328508  WZ3       1247            0.0000000000
     13629      4543  TIP3      H2            -12.7372449752        0.1642106768        2.7575728508  WZ3       1247            0.0000000000
     13630      4544  TIP3      OH2            -3.7118049752      -16.7586593232       20.1146028508  WZ3       1248            0.0000000000
     13631      4544  TIP3      H1             -3.6350849752      -17.1845893232       20.9683728508  WZ3       1248            0.0000000000
     13632      4544  TIP3      H2             -2.8181449752      -16.7451893232       19.7719528508  WZ3       1248            0.0000000000
     13633      4545  TIP3      OH2            -0.5356949752       -0.6860293232       18.8070228508  WZ3       1249            0.0000000000
     13634      4545  TIP3      H1             -1.3175049752       -0.8722293232       18.2870828508  WZ3       1249            0.0000000000
     13635      4545  TIP3      H2             -0.6077049752        0.2434006768       19.0242728508  WZ3       1249            0.0000000000
     13636      4546  TIP3      OH2            13.8703450248       -6.7995893232        8.8377428508  WZ3       1250            0.0000000000
     13637      4546  TIP3      H1             13.9594550248       -5.8557693232        8.7054528508  WZ3       1250            0.0000000000
     13638      4546  TIP3      H2             13.2321050248       -7.0749493232        8.1796828508  WZ3       1250            0.0000000000
     13639      4547  TIP3      OH2            12.8034750248       -7.5445193232       12.2565628508  WZ3       1251            0.0000000000
     13640      4547  TIP3      H1             12.7652250248       -8.1908893232       12.9615228508  WZ3       1251            0.0000000000
     13641      4547  TIP3      H2             12.4811250248       -8.0110793232       11.4854328508  WZ3       1251            0.0000000000
     13642      4548  TIP3      OH2             5.1719750248       -7.9303093232       13.8495528508  WZ3       1252            0.0000000000
     13643      4548  TIP3      H1              5.2131850248       -8.5559793232       14.5727928508  WZ3       1252            0.0000000000
     13644      4548  TIP3      H2              5.8747450248       -7.3064493232       14.0315928508  WZ3       1252            0.0000000000
     13645      4549  TIP3      OH2            16.5094950248       -4.6054793232       10.5580728508  WZ3       1253            0.0000000000
     13646      4549  TIP3      H1             16.0687650248       -5.3258793232       11.0086328508  WZ3       1253            0.0000000000
     13647      4549  TIP3      H2             16.4964650248       -3.8847593232       11.1878428508  WZ3       1253            0.0000000000
     13648      4550  TIP3      OH2             6.0952850248       -3.4804193232       12.3844628508  WZ3       1254            0.0000000000
     13649      4550  TIP3      H1              5.7258050248       -4.2823693232       12.0148928508  WZ3       1254            0.0000000000
     13650      4550  TIP3      H2              7.0363950248       -3.6489293232       12.4308028508  WZ3       1254            0.0000000000
     13651      4551  TIP3      OH2             2.7053350248       -9.8201593232        7.7773428508  WZ3       1255            0.0000000000
     13652      4551  TIP3      H1              2.2576750248       -8.9742893232        7.7589928508  WZ3       1255            0.0000000000
     13653      4551  TIP3      H2              2.1444550248      -10.3997393232        7.2618528508  WZ3       1255            0.0000000000
     13654      4552  TIP3      OH2             3.4159450248       -7.6581993232        9.9031428508  WZ3       1256            0.0000000000
     13655      4552  TIP3      H1              3.6292950248       -8.4280393232       10.4304428508  WZ3       1256            0.0000000000
     13656      4552  TIP3      H2              4.1537050248       -7.5685293232        9.2999028508  WZ3       1256            0.0000000000
     13657      4553  TIP3      OH2            13.6210450248        0.4986906768       10.7701128508  WZ3       1257            0.0000000000
     13658      4553  TIP3      H1             14.2406850248       -0.1778393232       10.4970328508  WZ3       1257            0.0000000000
     13659      4553  TIP3      H2             13.4127850248        0.2807706768       11.6786028508  WZ3       1257            0.0000000000
     13660      4554  TIP3      OH2            11.1929150248       -5.1123793232       12.6626628508  WZ3       1258            0.0000000000
     13661      4554  TIP3      H1             11.4967050248       -5.7982393232       12.0680728508  WZ3       1258            0.0000000000
     13662      4554  TIP3      H2             11.9143150248       -4.9935093232       13.2804628508  WZ3       1258            0.0000000000
     13663      4555  TIP3      OH2            19.8558950248      -13.5108493232       13.5232828508  WZ3       1259            0.0000000000
     13664      4555  TIP3      H1             19.9051150248      -12.9007293232       14.2591928508  WZ3       1259            0.0000000000
     13665      4555  TIP3      H2             20.2814050248      -13.0497593232       12.8003928508  WZ3       1259            0.0000000000
     13666      4556  TIP3      OH2            14.3336150248      -10.7181393232       12.9901428508  WZ3       1260            0.0000000000
     13667      4556  TIP3      H1             14.4762050248      -11.6644393232       13.0103028508  WZ3       1260            0.0000000000
     13668      4556  TIP3      H2             14.2275150248      -10.5111593232       12.0616328508  WZ3       1260            0.0000000000
     13669      4557  TIP3      OH2             7.4884450248      -12.6164993232       10.2626228508  WZ3       1261            0.0000000000
     13670      4557  TIP3      H1              7.5315550248      -11.7566493232        9.8442528508  WZ3       1261            0.0000000000
     13671      4557  TIP3      H2              7.0308550248      -13.1690293232        9.6289428508  WZ3       1261            0.0000000000
     13672      4558  TIP3      OH2            15.2107150248      -12.4859393232        8.6634528508  WZ3       1262            0.0000000000
     13673      4558  TIP3      H1             15.8571450248      -12.8146193232        9.2882128508  WZ3       1262            0.0000000000
     13674      4558  TIP3      H2             15.7206550248      -11.9680393232        8.0405928508  WZ3       1262            0.0000000000
     13675      4559  TIP3      OH2             4.1085950248      -10.2199193232       11.0247628508  WZ3       1263            0.0000000000
     13676      4559  TIP3      H1              4.7622550248      -10.7697493232       11.4567728508  WZ3       1263            0.0000000000
     13677      4559  TIP3      H2              4.1325250248      -10.4940193232       10.1079628508  WZ3       1263            0.0000000000
     13678      4560  TIP3      OH2             9.2650450248       -8.6697893232       10.2399128508  WZ3       1264            0.0000000000
     13679      4560  TIP3      H1              9.8811450248       -9.1962493232       10.7493128508  WZ3       1264            0.0000000000
     13680      4560  TIP3      H2              8.6789250248       -9.3099193232        9.8362728508  WZ3       1264            0.0000000000
     13681      4561  TIP3      OH2            20.2473550248      -12.0329293232       15.7592628508  WZ3       1265            0.0000000000
     13682      4561  TIP3      H1             19.5588150248      -11.3748593232       15.6639228508  WZ3       1265            0.0000000000
     13683      4561  TIP3      H2             20.2628150248      -12.2301393232       16.6958028508  WZ3       1265            0.0000000000
     13684      4562  TIP3      OH2             6.2986350248      -13.6986593232       14.3367028508  WZ3       1266            0.0000000000
     13685      4562  TIP3      H1              6.0798050248      -13.1685993232       13.5703028508  WZ3       1266            0.0000000000
     13686      4562  TIP3      H2              5.6307250248      -13.4721093232       14.9838428508  WZ3       1266            0.0000000000
     13687      4563  TIP3      OH2            13.6676150248       -4.1985493232        7.8806128508  WZ3       1267            0.0000000000
     13688      4563  TIP3      H1             13.3721250248       -4.5213193232        7.0293028508  WZ3       1267            0.0000000000
     13689      4563  TIP3      H2             13.3433950248       -3.2988793232        7.9218728508  WZ3       1267            0.0000000000
     13690      4564  TIP3      OH2             8.8677750248       -6.0230893232       14.6240728508  WZ3       1268            0.0000000000
     13691      4564  TIP3      H1              8.1276850248       -5.4249393232       14.7275928508  WZ3       1268            0.0000000000
     13692      4564  TIP3      H2              9.5817250248       -5.4691293232       14.3084328508  WZ3       1268            0.0000000000
     13693      4565  TIP3      OH2            16.9745550248      -13.1950093232       10.6440428508  WZ3       1269            0.0000000000
     13694      4565  TIP3      H1             16.7593550248      -13.9606693232       11.1766428508  WZ3       1269            0.0000000000
     13695      4565  TIP3      H2             17.6302950248      -12.7225493232       11.1568928508  WZ3       1269            0.0000000000
     13696      4566  TIP3      OH2             5.8923650248      -11.8064793232       12.2889228508  WZ3       1270            0.0000000000
     13697      4566  TIP3      H1              6.5059950248      -11.1737193232       12.6621628508  WZ3       1270            0.0000000000
     13698      4566  TIP3      H2              6.4044350248      -12.2789793232       11.6326128508  WZ3       1270            0.0000000000
     13699      4567  TIP3      OH2             7.2752050248       -4.0587893232       15.4112228508  WZ3       1271            0.0000000000
     13700      4567  TIP3      H1              7.2699650248       -3.1794393232       15.0331528508  WZ3       1271            0.0000000000
     13701      4567  TIP3      H2              6.4216150248       -4.1423793232       15.8362128508  WZ3       1271            0.0000000000
     13702      4568  TIP3      OH2             3.3962950248       -4.3879993232        6.1931528508  WZ3       1272            0.0000000000
     13703      4568  TIP3      H1              3.1243850248       -4.1588993232        5.3044428508  WZ3       1272            0.0000000000
     13704      4568  TIP3      H2              3.4418650248       -3.5501193232        6.6536828508  WZ3       1272            0.0000000000
     13705      4569  TIP3      OH2            17.0212650248       -2.7664093232       12.9060028508  WZ3       1273            0.0000000000
     13706      4569  TIP3      H1             16.0796350248       -2.7080193232       13.0676928508  WZ3       1273            0.0000000000
     13707      4569  TIP3      H2             17.2978750248       -1.8603593232       12.7689728508  WZ3       1273            0.0000000000
     13708      4570  TIP3      OH2            17.3219650248      -14.4798793232       14.3233928508  WZ3       1274            0.0000000000
     13709      4570  TIP3      H1             16.5858850248      -13.8691693232       14.2855228508  WZ3       1274            0.0000000000
     13710      4570  TIP3      H2             18.0053650248      -14.0649793232       13.7970328508  WZ3       1274            0.0000000000
     13711      4571  TIP3      OH2            10.3251050248      -16.3931493232       11.7891928508  WZ3       1275            0.0000000000
     13712      4571  TIP3      H1             10.2075250248      -17.3415493232       11.7350228508  WZ3       1275            0.0000000000
     13713      4571  TIP3      H2              9.4701150248      -16.0605393232       12.0623028508  WZ3       1275            0.0000000000
     13714      4572  TIP3      OH2            15.2733850248       -0.9850593232        9.5311628508  WZ3       1276            0.0000000000
     13715      4572  TIP3      H1             15.6986150248       -1.6922693232        9.0461228508  WZ3       1276            0.0000000000
     13716      4572  TIP3      H2             15.5903850248       -0.1837893232        9.1143828508  WZ3       1276            0.0000000000
     13717      4573  TIP3      OH2            16.4330350248       -3.0842093232        8.0398228508  WZ3       1277            0.0000000000
     13718      4573  TIP3      H1             16.1755150248       -3.7741993232        7.4284128508  WZ3       1277            0.0000000000
     13719      4573  TIP3      H2             16.5041150248       -3.5270893232        8.8854128508  WZ3       1277            0.0000000000
     13720      4574  TIP3      OH2            18.1190550248       -4.5175393232       16.5171728508  WZ3       1278            0.0000000000
     13721      4574  TIP3      H1             18.2586850248       -5.1092893232       15.7778728508  WZ3       1278            0.0000000000
     13722      4574  TIP3      H2             18.2863350248       -3.6449493232       16.1610528508  WZ3       1278            0.0000000000
     13723      4575  TIP3      OH2            12.5915950248       -7.5555893232        6.2897728508  WZ3       1279            0.0000000000
     13724      4575  TIP3      H1             11.8801450248       -7.0206193232        5.9378228508  WZ3       1279            0.0000000000
     13725      4575  TIP3      H2             13.2825550248       -7.5003793232        5.6296628508  WZ3       1279            0.0000000000
     13726      4576  TIP3      OH2            12.6455150248       -9.0981593232        3.3282728508  WZ3       1280            0.0000000000
     13727      4576  TIP3      H1             13.3465050248       -9.0754693232        3.9796728508  WZ3       1280            0.0000000000
     13728      4576  TIP3      H2             12.9478050248       -9.7261893232        2.6722028508  WZ3       1280            0.0000000000
     13729      4577  TIP3      OH2            19.9609850248       -8.1777393232       14.5832128508  WZ3       1281            0.0000000000
     13730      4577  TIP3      H1             19.3083950248       -7.4831793232       14.6723028508  WZ3       1281            0.0000000000
     13731      4577  TIP3      H2             20.4260150248       -7.9676493232       13.7733728508  WZ3       1281            0.0000000000
     13732      4578  TIP3      OH2            15.9973650248       -7.3462593232        7.2413628508  WZ3       1282            0.0000000000
     13733      4578  TIP3      H1             15.2654650248       -7.1178893232        7.8144228508  WZ3       1282            0.0000000000
     13734      4578  TIP3      H2             16.4445850248       -8.0599893232        7.6961128508  WZ3       1282            0.0000000000
     13735      4579  TIP3      OH2            15.8947150248       -9.1719993232       16.3090628508  WZ3       1283            0.0000000000
     13736      4579  TIP3      H1             15.9746250248       -8.4085593232       16.8809128508  WZ3       1283            0.0000000000
     13737      4579  TIP3      H2             15.2934850248       -8.8927593232       15.6185728508  WZ3       1283            0.0000000000
     13738      4580  TIP3      OH2             7.6427350248       -6.7156393232        9.1238628508  WZ3       1284            0.0000000000
     13739      4580  TIP3      H1              7.3122550248       -7.0862993232        8.3055628508  WZ3       1284            0.0000000000
     13740      4580  TIP3      H2              8.2311450248       -7.3862393232        9.4706928508  WZ3       1284            0.0000000000
     13741      4581  TIP3      OH2             9.0094850248       -3.2875793232       11.8050828508  WZ3       1285            0.0000000000
     13742      4581  TIP3      H1              8.9146150248       -3.8662693232       11.0485428508  WZ3       1285            0.0000000000
     13743      4581  TIP3      H2              9.7388450248       -3.6590093232       12.3013628508  WZ3       1285            0.0000000000
     13744      4582  TIP3      OH2             8.0092850248       -7.9470793232       12.7573628508  WZ3       1286            0.0000000000
     13745      4582  TIP3      H1              8.5745350248       -7.8256593232       11.9944828508  WZ3       1286            0.0000000000
     13746      4582  TIP3      H2              8.3281750248       -7.3095793232       13.3962128508  WZ3       1286            0.0000000000
     13747      4583  TIP3      OH2            14.3185050248       -2.4438893232       13.4914128508  WZ3       1287            0.0000000000
     13748      4583  TIP3      H1             14.0781650248       -1.7815793232       14.1393328508  WZ3       1287            0.0000000000
     13749      4583  TIP3      H2             14.1203250248       -3.2783693232       13.9163728508  WZ3       1287            0.0000000000
     13750      4584  TIP3      OH2             8.8893550248       -3.5478093232       17.4745528508  WZ3       1288            0.0000000000
     13751      4584  TIP3      H1              8.5781050248       -2.7654893232       17.9298728508  WZ3       1288            0.0000000000
     13752      4584  TIP3      H2              8.2393750248       -3.7008993232       16.7887528508  WZ3       1288            0.0000000000
     13753      4585  TIP3      OH2            14.8683150248       -8.1839693232        4.9264828508  WZ3       1289            0.0000000000
     13754      4585  TIP3      H1             15.4478650248       -8.0339393232        5.6733728508  WZ3       1289            0.0000000000
     13755      4585  TIP3      H2             15.2823150248       -7.7132293232        4.2031228508  WZ3       1289            0.0000000000
     13756      4586  TIP3      OH2             5.8093450248       -7.3496993232       16.7031228508  WZ3       1290            0.0000000000
     13757      4586  TIP3      H1              5.8796650248       -6.6990193232       17.4016228508  WZ3       1290            0.0000000000
     13758      4586  TIP3      H2              4.9185650248       -7.2469493232       16.3682128508  WZ3       1290            0.0000000000
     13759      4587  TIP3      OH2            12.5948050248       -1.4471193232        8.3617928508  WZ3       1291            0.0000000000
     13760      4587  TIP3      H1             13.0685650248       -1.1514893232        9.1392128508  WZ3       1291            0.0000000000
     13761      4587  TIP3      H2             12.0317350248       -0.7089593232        8.1287528508  WZ3       1291            0.0000000000
     13762      4588  TIP3      OH2             7.1289450248       -1.4763093232       18.2379328508  WZ3       1292            0.0000000000
     13763      4588  TIP3      H1              7.1364750248       -1.6123393232       17.2904828508  WZ3       1292            0.0000000000
     13764      4588  TIP3      H2              6.2129850248       -1.5934993232       18.4899328508  WZ3       1292            0.0000000000
     13765      4589  TIP3      OH2            18.5671550248      -16.4339293232        4.7394528508  WZ3       1293            0.0000000000
     13766      4589  TIP3      H1             17.6672250248      -16.2950293232        5.0345128508  WZ3       1293            0.0000000000
     13767      4589  TIP3      H2             18.8189950248      -15.6024693232        4.3376228508  WZ3       1293            0.0000000000
     13768      4590  TIP3      OH2             6.6330050248       -7.6462093232        6.7131428508  WZ3       1294            0.0000000000
     13769      4590  TIP3      H1              6.3411350248       -6.8780393232        6.2222728508  WZ3       1294            0.0000000000
     13770      4590  TIP3      H2              5.9585250248       -8.3055893232        6.5502828508  WZ3       1294            0.0000000000
     13771      4591  TIP3      OH2            19.7562950248       -2.0676893232        3.1158428508  WZ3       1295            0.0000000000
     13772      4591  TIP3      H1             19.8296450248       -1.1286693232        3.2863728508  WZ3       1295            0.0000000000
     13773      4591  TIP3      H2             20.6618050248       -2.3728293232        3.0595728508  WZ3       1295            0.0000000000
     13774      4592  TIP3      OH2             2.7260150248       -5.2832893232       15.5281228508  WZ3       1296            0.0000000000
     13775      4592  TIP3      H1              2.2248550248       -5.3113493232       14.7130928508  WZ3       1296            0.0000000000
     13776      4592  TIP3      H2              2.7313850248       -6.1889693232       15.8378528508  WZ3       1296            0.0000000000
     13777      4593  TIP3      OH2             2.4762850248       -2.5029093232       12.4121428508  WZ3       1297            0.0000000000
     13778      4593  TIP3      H1              3.4223450248       -2.6472093232       12.3930928508  WZ3       1297            0.0000000000
     13779      4593  TIP3      H2              2.3639150248       -1.7186293232       12.9492628508  WZ3       1297            0.0000000000
     13780      4594  TIP3      OH2            20.6741350248       -1.8369393232       18.0945128508  WZ3       1298            0.0000000000
     13781      4594  TIP3      H1             20.6248150248       -2.7921293232       18.0572728508  WZ3       1298            0.0000000000
     13782      4594  TIP3      H2             19.8473650248       -1.5694093232       18.4958928508  WZ3       1298            0.0000000000
     13783      4595  TIP3      OH2            11.6525350248       -2.2630193232       16.9706528508  WZ3       1299            0.0000000000
     13784      4595  TIP3      H1             11.7399950248       -1.4365593232       17.4455628508  WZ3       1299            0.0000000000
     13785      4595  TIP3      H2             10.7890450248       -2.5926393232       17.2195828508  WZ3       1299            0.0000000000
     13786      4596  TIP3      OH2            12.0671150248        1.5093506768        6.7767128508  WZ3       1300            0.0000000000
     13787      4596  TIP3      H1             11.9917150248        1.3880706768        5.8302328508  WZ3       1300            0.0000000000
     13788      4596  TIP3      H2             12.0999850248        2.4586206768        6.8951728508  WZ3       1300            0.0000000000
     13789      4597  TIP3      OH2             5.7204950248        0.2980506768        8.5576128508  WZ3       1301            0.0000000000
     13790      4597  TIP3      H1              5.8725350248       -0.0499093232        9.4362628508  WZ3       1301            0.0000000000
     13791      4597  TIP3      H2              4.8695350248       -0.0582193232        8.3023328508  WZ3       1301            0.0000000000
     13792      4598  TIP3      OH2            15.1687150248        0.6633706768        3.7789528508  WZ3       1302            0.0000000000
     13793      4598  TIP3      H1             15.5435550248       -0.0810193232        3.3082128508  WZ3       1302            0.0000000000
     13794      4598  TIP3      H2             15.1730850248        0.3934306768        4.6972828508  WZ3       1302            0.0000000000
     13795      4599  TIP3      OH2            14.8375250248        0.5890806768        6.5281728508  WZ3       1303            0.0000000000
     13796      4599  TIP3      H1             13.9025050248        0.6892706768        6.7068728508  WZ3       1303            0.0000000000
     13797      4599  TIP3      H2             15.1177150248       -0.1203193232        7.1064928508  WZ3       1303            0.0000000000
     13798      4600  TIP3      OH2            17.8261150248      -10.3436893232       18.5747328508  WZ3       1304            0.0000000000
     13799      4600  TIP3      H1             17.4187950248       -9.8631293232       17.8540628508  WZ3       1304            0.0000000000
     13800      4600  TIP3      H2             17.8666850248      -11.2490893232       18.2668128508  WZ3       1304            0.0000000000
     13801      4601  TIP3      OH2             4.9750650248       -3.9597493232       16.5714028508  WZ3       1305            0.0000000000
     13802      4601  TIP3      H1              5.1911950248       -4.3211893232       17.4309828508  WZ3       1305            0.0000000000
     13803      4601  TIP3      H2              4.1195350248       -4.3343693232       16.3617528508  WZ3       1305            0.0000000000
     13804      4602  TIP3      OH2             7.5938650248      -15.4896993232       12.5668228508  WZ3       1306            0.0000000000
     13805      4602  TIP3      H1              6.7322350248      -15.5768793232       12.1591128508  WZ3       1306            0.0000000000
     13806      4602  TIP3      H2              7.5714350248      -14.6336893232       12.9945828508  WZ3       1306            0.0000000000
     13807      4603  TIP3      OH2            12.2566450248      -15.7676593232       15.9415228508  WZ3       1307            0.0000000000
     13808      4603  TIP3      H1             12.6769550248      -16.1829493232       16.6945828508  WZ3       1307            0.0000000000
     13809      4603  TIP3      H2             11.3236050248      -15.9463293232       16.0587228508  WZ3       1307            0.0000000000
     13810      4604  TIP3      OH2            15.5831350248      -12.0121393232       16.7949728508  WZ3       1308            0.0000000000
     13811      4604  TIP3      H1             15.0690850248      -12.1379193232       17.5925728508  WZ3       1308            0.0000000000
     13812      4604  TIP3      H2             15.4276050248      -11.0998293232       16.5505928508  WZ3       1308            0.0000000000
     13813      4605  TIP3      OH2            16.3456250248       -7.1511393232        2.5562728508  WZ3       1309            0.0000000000
     13814      4605  TIP3      H1             16.3877050248       -7.3737493232        1.6262728508  WZ3       1309            0.0000000000
     13815      4605  TIP3      H2             17.1948350248       -6.7524293232        2.7462628508  WZ3       1309            0.0000000000
     13816      4606  TIP3      OH2            11.9183750248      -13.2753193232        3.2266028508  WZ3       1310            0.0000000000
     13817      4606  TIP3      H1             11.6648550248      -13.2561593232        4.1494128508  WZ3       1310            0.0000000000
     13818      4606  TIP3      H2             11.6615850248      -14.1467793232        2.9252228508  WZ3       1310            0.0000000000
     13819      4607  TIP3      OH2             7.6848750248      -10.5242493232       13.6618428508  WZ3       1311            0.0000000000
     13820      4607  TIP3      H1              7.0430850248      -10.5645193232       14.3708528508  WZ3       1311            0.0000000000
     13821      4607  TIP3      H2              7.7220750248       -9.5977793232       13.4241428508  WZ3       1311            0.0000000000
     13822      4608  TIP3      OH2             7.6817850248      -10.3032393232        8.5738428508  WZ3       1312            0.0000000000
     13823      4608  TIP3      H1              6.7890750248      -10.6436293232        8.5152228508  WZ3       1312            0.0000000000
     13824      4608  TIP3      H2              8.1324450248      -10.6801493232        7.8181628508  WZ3       1312            0.0000000000
     13825      4609  TIP3      OH2            13.2173350248       -9.8872093232        7.3909228508  WZ3       1313            0.0000000000
     13826      4609  TIP3      H1             12.8083650248       -9.0723493232        7.0994028508  WZ3       1313            0.0000000000
     13827      4609  TIP3      H2             13.9379550248      -10.0271993232        6.7766328508  WZ3       1313            0.0000000000
     13828      4610  TIP3      OH2            12.3194950248       -9.7115693232       18.8789928508  WZ3       1314            0.0000000000
     13829      4610  TIP3      H1             11.7568750248      -10.4164093232       19.1997728508  WZ3       1314            0.0000000000
     13830      4610  TIP3      H2             13.1458350248       -9.8323793232       19.3467528508  WZ3       1314            0.0000000000
     13831      4611  TIP3      OH2            14.2221050248      -10.4411693232       10.2048928508  WZ3       1315            0.0000000000
     13832      4611  TIP3      H1             14.0265550248       -9.8354893232        9.4899528508  WZ3       1315            0.0000000000
     13833      4611  TIP3      H2             14.4033650248      -11.2746493232        9.7705228508  WZ3       1315            0.0000000000
     13834      4612  TIP3      OH2             5.4349250248      -10.2038993232       15.5290428508  WZ3       1316            0.0000000000
     13835      4612  TIP3      H1              5.3968650248       -9.8037393232       16.3977528508  WZ3       1316            0.0000000000
     13836      4612  TIP3      H2              4.9440350248      -11.0206593232       15.6193328508  WZ3       1316            0.0000000000
     13837      4613  TIP3      OH2             8.8006650248      -12.8296693232        2.3276428508  WZ3       1317            0.0000000000
     13838      4613  TIP3      H1              8.3697350248      -13.2746593232        3.0573828508  WZ3       1317            0.0000000000
     13839      4613  TIP3      H2              8.0825350248      -12.4580393232        1.8153928508  WZ3       1317            0.0000000000
     13840      4614  TIP3      OH2             2.0430050248      -13.0877193232        9.3795128508  WZ3       1318            0.0000000000
     13841      4614  TIP3      H1              2.6737750248      -13.1165093232       10.0989028508  WZ3       1318            0.0000000000
     13842      4614  TIP3      H2              2.4924350248      -13.5128493232        8.6491028508  WZ3       1318            0.0000000000
     13843      4615  TIP3      OH2             3.3172150248      -12.3415193232        4.8035528508  WZ3       1319            0.0000000000
     13844      4615  TIP3      H1              3.7913850248      -11.7505293232        4.2186428508  WZ3       1319            0.0000000000
     13845      4615  TIP3      H2              2.5998550248      -11.8112293232        5.1505628508  WZ3       1319            0.0000000000
     13846      4616  TIP3      OH2            13.4860250248       -8.8030393232       14.8761328508  WZ3       1320            0.0000000000
     13847      4616  TIP3      H1             13.8095050248       -9.4340693232       14.2331828508  WZ3       1320            0.0000000000
     13848      4616  TIP3      H2             13.0459550248       -9.3378193232       15.5368728508  WZ3       1320            0.0000000000
     13849      4617  TIP3      OH2            10.2633150248      -12.8754893232        9.6602528508  WZ3       1321            0.0000000000
     13850      4617  TIP3      H1              9.3524250248      -12.8188093232        9.9488528508  WZ3       1321            0.0000000000
     13851      4617  TIP3      H2             10.7686050248      -12.9359393232       10.4709728508  WZ3       1321            0.0000000000
     13852      4618  TIP3      OH2             5.0916550248      -11.2468593232        8.4870128508  WZ3       1322            0.0000000000
     13853      4618  TIP3      H1              4.2024550248      -11.1473093232        8.1469728508  WZ3       1322            0.0000000000
     13854      4618  TIP3      H2              5.3881450248      -12.0885593232        8.1408028508  WZ3       1322            0.0000000000
     13855      4619  TIP3      OH2             8.7448350248      -11.2465993232        6.1434728508  WZ3       1323            0.0000000000
     13856      4619  TIP3      H1              9.6763850248      -11.1175993232        6.3217828508  WZ3       1323            0.0000000000
     13857      4619  TIP3      H2              8.5298650248      -10.5771693232        5.4939428508  WZ3       1323            0.0000000000
     13858      4620  TIP3      OH2            14.6685050248      -13.6408593232       12.9244328508  WZ3       1324            0.0000000000
     13859      4620  TIP3      H1             13.9916650248      -13.5095493232       13.5884028508  WZ3       1324            0.0000000000
     13860      4620  TIP3      H2             14.1829950248      -13.7959093232       12.1142028508  WZ3       1324            0.0000000000
     13861      4621  TIP3      OH2             7.4188550248      -10.0523793232        3.7100828508  WZ3       1325            0.0000000000
     13862      4621  TIP3      H1              6.8763650248      -10.4319993232        3.0188428508  WZ3       1325            0.0000000000
     13863      4621  TIP3      H2              8.2523450248       -9.8579093232        3.2814928508  WZ3       1325            0.0000000000
     13864      4622  TIP3      OH2            17.9560150248        2.0306806768       19.2011928508  WZ3       1326            0.0000000000
     13865      4622  TIP3      H1             18.1558850248        2.4548706768       18.3667228508  WZ3       1326            0.0000000000
     13866      4622  TIP3      H2             18.6113850248        2.3745006768       19.8082328508  WZ3       1326            0.0000000000
     13867      4623  TIP3      OH2             5.5539950248       -5.4951893232       18.8092428508  WZ3       1327            0.0000000000
     13868      4623  TIP3      H1              6.2862350248       -5.2405993232       19.3706928508  WZ3       1327            0.0000000000
     13869      4623  TIP3      H2              4.7738650248       -5.2906493232       19.3247828508  WZ3       1327            0.0000000000
     13870      4624  TIP3      OH2            11.5832850248      -10.0881893232       11.5472128508  WZ3       1328            0.0000000000
     13871      4624  TIP3      H1             12.1476250248      -10.6345293232       11.0001728508  WZ3       1328            0.0000000000
     13872      4624  TIP3      H2             11.4356250248      -10.6099993232       12.3359728508  WZ3       1328            0.0000000000
     13873      4625  TIP3      OH2             6.5852550248      -13.9515793232        7.9656928508  WZ3       1329            0.0000000000
     13874      4625  TIP3      H1              6.2682050248      -14.8540493232        7.9302328508  WZ3       1329            0.0000000000
     13875      4625  TIP3      H2              7.3666650248      -13.9498393232        7.4128528508  WZ3       1329            0.0000000000
     13876      4626  TIP3      OH2            10.2098750248      -11.6995793232       13.9612528508  WZ3       1330            0.0000000000
     13877      4626  TIP3      H1              9.3744050248      -11.2456293232       14.0714928508  WZ3       1330            0.0000000000
     13878      4626  TIP3      H2             10.7339350248      -11.4237293232       14.7132428508  WZ3       1330            0.0000000000
     13879      4627  TIP3      OH2            10.7541350248       -5.4868093232        5.6458928508  WZ3       1331            0.0000000000
     13880      4627  TIP3      H1             10.0092350248       -5.9942793232        5.3236828508  WZ3       1331            0.0000000000
     13881      4627  TIP3      H2             10.6198550248       -5.4380093232        6.5923728508  WZ3       1331            0.0000000000
     13882      4628  TIP3      OH2            17.9040250248       -6.3539893232       14.4326528508  WZ3       1332            0.0000000000
     13883      4628  TIP3      H1             18.5459050248       -5.8973593232       13.8888728508  WZ3       1332            0.0000000000
     13884      4628  TIP3      H2             17.0737150248       -6.2407493232       13.9700628508  WZ3       1332            0.0000000000
     13885      4629  TIP3      OH2            14.6518150248      -12.6728193232        3.8451528508  WZ3       1333            0.0000000000
     13886      4629  TIP3      H1             13.7132350248      -12.5612593232        3.6940328508  WZ3       1333            0.0000000000
     13887      4629  TIP3      H2             14.9490250248      -11.8161293232        4.1517228508  WZ3       1333            0.0000000000
     13888      4630  TIP3      OH2            12.2733450248       -5.3024793232       16.8828028508  WZ3       1334            0.0000000000
     13889      4630  TIP3      H1             11.9279550248       -5.6842393232       17.6897628508  WZ3       1334            0.0000000000
     13890      4630  TIP3      H2             12.0733550248       -4.3691193232       16.9540928508  WZ3       1334            0.0000000000
     13891      4631  TIP3      OH2            15.3701650248      -10.8055493232        5.5058928508  WZ3       1335            0.0000000000
     13892      4631  TIP3      H1             16.2620650248      -10.9430493232        5.8250128508  WZ3       1335            0.0000000000
     13893      4631  TIP3      H2             15.4265250248      -10.0149393232        4.9692428508  WZ3       1335            0.0000000000
     13894      4632  TIP3      OH2             5.8789650248       -6.1918093232       11.4156828508  WZ3       1336            0.0000000000
     13895      4632  TIP3      H1              6.6236850248       -6.1942393232       10.8143328508  WZ3       1336            0.0000000000
     13896      4632  TIP3      H2              5.9566250248       -7.0154293232       11.8971928508  WZ3       1336            0.0000000000
     13897      4633  TIP3      OH2            12.8795450248       -4.0283793232        4.6713528508  WZ3       1337            0.0000000000
     13898      4633  TIP3      H1             12.5843850248       -3.2015893232        5.0528328508  WZ3       1337            0.0000000000
     13899      4633  TIP3      H2             12.1765450248       -4.6476893232        4.8674928508  WZ3       1337            0.0000000000
     13900      4634  TIP3      OH2             2.8869350248       -7.7311193232       16.7305328508  WZ3       1338            0.0000000000
     13901      4634  TIP3      H1              3.1097950248       -8.1491593232       17.5622828508  WZ3       1338            0.0000000000
     13902      4634  TIP3      H2              2.2849450248       -8.3436193232       16.3078128508  WZ3       1338            0.0000000000
     13903      4635  TIP3      OH2             9.9034250248       -8.2141293232       18.9435028508  WZ3       1339            0.0000000000
     13904      4635  TIP3      H1              9.6075050248       -8.3798293232       18.0484128508  WZ3       1339            0.0000000000
     13905      4635  TIP3      H2             10.8349450248       -8.4340993232       18.9328928508  WZ3       1339            0.0000000000
     13906      4636  TIP3      OH2            14.5237050248       -2.8409293232       16.8333028508  WZ3       1340            0.0000000000
     13907      4636  TIP3      H1             13.6231350248       -2.6576693232       16.5656928508  WZ3       1340            0.0000000000
     13908      4636  TIP3      H2             14.5578150248       -2.5819993232       17.7541828508  WZ3       1340            0.0000000000
     13909      4637  TIP3      OH2            20.2550350248      -10.5961393232        5.2005628508  WZ3       1341            0.0000000000
     13910      4637  TIP3      H1             19.7006650248      -10.9923393232        4.5283128508  WZ3       1341            0.0000000000
     13911      4637  TIP3      H2             20.3553950248       -9.6856193232        4.9228928508  WZ3       1341            0.0000000000
     13912      4638  TIP3      OH2            20.2182350248       -4.7959693232       18.0377128508  WZ3       1342            0.0000000000
     13913      4638  TIP3      H1             19.3670850248       -4.5575893232       17.6703528508  WZ3       1342            0.0000000000
     13914      4638  TIP3      H2             20.8085750248       -4.8126493232       17.2844228508  WZ3       1342            0.0000000000
     13915      4639  TIP3      OH2            18.5502050248       -1.8100993232        5.6657728508  WZ3       1343            0.0000000000
     13916      4639  TIP3      H1             18.1773150248       -2.6357193232        5.9748328508  WZ3       1343            0.0000000000
     13917      4639  TIP3      H2             18.8275550248       -1.9931593232        4.7681128508  WZ3       1343            0.0000000000
     13918      4640  TIP3      OH2            15.7105950248       -7.0021493232       12.6869628508  WZ3       1344            0.0000000000
     13919      4640  TIP3      H1             14.7822850248       -7.2339593232       12.6598928508  WZ3       1344            0.0000000000
     13920      4640  TIP3      H2             16.1617050248       -7.7791693232       12.3568428508  WZ3       1344            0.0000000000
     13921      4641  TIP3      OH2             8.2539050248       -2.6739893232        8.8198328508  WZ3       1345            0.0000000000
     13922      4641  TIP3      H1              8.7811250248       -1.9005493232        8.6197128508  WZ3       1345            0.0000000000
     13923      4641  TIP3      H2              7.3737550248       -2.4490693232        8.5182328508  WZ3       1345            0.0000000000
     13924      4642  TIP3      OH2             4.0086750248       -7.8115793232        3.4070728508  WZ3       1346            0.0000000000
     13925      4642  TIP3      H1              4.6246650248       -7.1848593232        3.7865528508  WZ3       1346            0.0000000000
     13926      4642  TIP3      H2              3.1469350248       -7.4955993232        3.6787228508  WZ3       1346            0.0000000000
     13927      4643  TIP3      OH2             9.6811350248       -5.0109993232        8.3962628508  WZ3       1347            0.0000000000
     13928      4643  TIP3      H1              9.4401350248       -4.0855593232        8.4377928508  WZ3       1347            0.0000000000
     13929      4643  TIP3      H2              8.9404950248       -5.4698693232        8.7926528508  WZ3       1347            0.0000000000
     13930      4644  TIP3      OH2            10.1957950248       -0.8616393232       14.7113728508  WZ3       1348            0.0000000000
     13931      4644  TIP3      H1             10.5582650248       -0.0070793232       14.4778128508  WZ3       1348            0.0000000000
     13932      4644  TIP3      H2             10.7273150248       -1.1534793232       15.4520028508  WZ3       1348            0.0000000000
     13933      4645  TIP3      OH2             8.3642150248        0.0107606768        7.9414828508  WZ3       1349            0.0000000000
     13934      4645  TIP3      H1              7.4142650248        0.1165006768        7.9928128508  WZ3       1349            0.0000000000
     13935      4645  TIP3      H2              8.7160250248        0.8315006768        8.2862328508  WZ3       1349            0.0000000000
     13936      4646  TIP3      OH2            13.7398750248       -4.7625693232       14.4119328508  WZ3       1350            0.0000000000
     13937      4646  TIP3      H1             13.3140050248       -4.9903993232       15.2383328508  WZ3       1350            0.0000000000
     13938      4646  TIP3      H2             14.3204550248       -5.5013893232       14.2294628508  WZ3       1350            0.0000000000
     13939      4647  TIP3      OH2            15.9427650248       -3.8335193232        3.4858328508  WZ3       1351            0.0000000000
     13940      4647  TIP3      H1             16.2960750248       -4.2135393232        4.2901828508  WZ3       1351            0.0000000000
     13941      4647  TIP3      H2             14.9941150248       -3.9270393232        3.5727628508  WZ3       1351            0.0000000000
     13942      4648  TIP3      OH2            16.3982950248       -0.2106193232       16.8814128508  WZ3       1352            0.0000000000
     13943      4648  TIP3      H1             15.7966150248       -0.7663293232       16.3860428508  WZ3       1352            0.0000000000
     13944      4648  TIP3      H2             16.6796650248        0.4563606768       16.2551528508  WZ3       1352            0.0000000000
     13945      4649  TIP3      OH2            20.4462050248        0.6457306768        3.6868528508  WZ3       1353            0.0000000000
     13946      4649  TIP3      H1             21.1899950248        1.2317806768        3.5470128508  WZ3       1353            0.0000000000
     13947      4649  TIP3      H2             19.7520150248        1.2143106768        4.0200928508  WZ3       1353            0.0000000000
     13948      4650  TIP3      OH2             4.5208850248      -12.9778493232       16.2886728508  WZ3       1354            0.0000000000
     13949      4650  TIP3      H1              3.6281150248      -12.6393093232       16.2210728508  WZ3       1354            0.0000000000
     13950      4650  TIP3      H2              4.4221650248      -13.8332393232       16.7067528508  WZ3       1354            0.0000000000
     13951      4651  TIP3      OH2            16.8086950248       -5.1613193232        5.7126228508  WZ3       1355            0.0000000000
     13952      4651  TIP3      H1             16.5314550248       -5.8893893232        6.2687328508  WZ3       1355            0.0000000000
     13953      4651  TIP3      H2             17.7359950248       -5.0421193232        5.9178828508  WZ3       1355            0.0000000000
     13954      4652  TIP3      OH2             4.1720850248       -1.1734093232       14.7236128508  WZ3       1356            0.0000000000
     13955      4652  TIP3      H1              4.3891150248       -2.1051693232       14.6925828508  WZ3       1356            0.0000000000
     13956      4652  TIP3      H2              4.4184350248       -0.8989093232       15.6068928508  WZ3       1356            0.0000000000
     13957      4653  TIP3      OH2            10.0335450248       -2.7219093232        1.9328328508  WZ3       1357            0.0000000000
     13958      4653  TIP3      H1             10.2725250248       -3.4700993232        1.3857228508  WZ3       1357            0.0000000000
     13959      4653  TIP3      H2              9.7646750248       -3.1097393232        2.7656128508  WZ3       1357            0.0000000000
     13960      4654  TIP3      OH2             8.9706050248       -3.1515293232        4.3890928508  WZ3       1358            0.0000000000
     13961      4654  TIP3      H1              9.1174050248       -3.6715493232        5.1791828508  WZ3       1358            0.0000000000
     13962      4654  TIP3      H2              8.9677750248       -2.2447693232        4.6956828508  WZ3       1358            0.0000000000
     13963      4655  TIP3      OH2             5.4237150248       -5.8991993232        4.8996328508  WZ3       1359            0.0000000000
     13964      4655  TIP3      H1              4.7376450248       -5.5469493232        5.4666028508  WZ3       1359            0.0000000000
     13965      4655  TIP3      H2              5.9465050248       -5.1362393232        4.6530628508  WZ3       1359            0.0000000000
     13966      4656  TIP3      OH2            13.2552250248      -13.2368193232       15.1785328508  WZ3       1360            0.0000000000
     13967      4656  TIP3      H1             13.9540150248      -13.1629493232       15.8285028508  WZ3       1360            0.0000000000
     13968      4656  TIP3      H2             12.8743650248      -14.1013193232       15.3328228508  WZ3       1360            0.0000000000
     13969      4657  TIP3      OH2            14.0397150248      -13.5846493232        6.2757628508  WZ3       1361            0.0000000000
     13970      4657  TIP3      H1             14.2595450248      -13.1131093232        5.4723028508  WZ3       1361            0.0000000000
     13971      4657  TIP3      H2             14.5981150248      -13.1903893232        6.9458228508  WZ3       1361            0.0000000000
     13972      4658  TIP3      OH2            11.7083250248       -1.4541693232        5.1385128508  WZ3       1362            0.0000000000
     13973      4658  TIP3      H1             10.8919350248       -0.9571993232        5.1909428508  WZ3       1362            0.0000000000
     13974      4658  TIP3      H2             12.2379550248       -0.9788193232        4.4983928508  WZ3       1362            0.0000000000
     13975      4659  TIP3      OH2            11.2397050248      -11.8567693232        7.1106028508  WZ3       1363            0.0000000000
     13976      4659  TIP3      H1             12.0519650248      -11.3524493232        7.1567728508  WZ3       1363            0.0000000000
     13977      4659  TIP3      H2             10.9950050248      -12.0017993232        8.0245628508  WZ3       1363            0.0000000000
     13978      4660  TIP3      OH2            11.7753450248      -10.8704993232       16.2952628508  WZ3       1364            0.0000000000
     13979      4660  TIP3      H1             11.8943750248      -10.2969593232       17.0523028508  WZ3       1364            0.0000000000
     13980      4660  TIP3      H2             12.4308050248      -11.5585593232       16.4100428508  WZ3       1364            0.0000000000
     13981      4661  TIP3      OH2            12.1233750248      -14.7754693232        8.0487128508  WZ3       1365            0.0000000000
     13982      4661  TIP3      H1             11.7767250248      -14.1584093232        8.6931428508  WZ3       1365            0.0000000000
     13983      4661  TIP3      H2             12.7820650248      -14.2748993232        7.5672628508  WZ3       1365            0.0000000000
     13984      4662  TIP3      OH2             9.0466350248       -0.4104493232        5.1202028508  WZ3       1366            0.0000000000
     13985      4662  TIP3      H1              9.2075050248        0.3893006768        4.6194628508  WZ3       1366            0.0000000000
     13986      4662  TIP3      H2              8.8494150248       -0.1038493232        6.0052628508  WZ3       1366            0.0000000000
     13987      4663  TIP3      OH2             7.7810750248      -13.7125293232        4.7359628508  WZ3       1367            0.0000000000
     13988      4663  TIP3      H1              7.6975550248      -12.8242193232        5.0826028508  WZ3       1367            0.0000000000
     13989      4663  TIP3      H2              8.6711050248      -13.9778593232        4.9676428508  WZ3       1367            0.0000000000
     13990      4664  TIP3      OH2            17.9799250248      -12.9634693232       17.1302328508  WZ3       1368            0.0000000000
     13991      4664  TIP3      H1             17.0635050248      -12.7012993232       17.0426028508  WZ3       1368            0.0000000000
     13992      4664  TIP3      H2             18.3154250248      -12.9665693232       16.2337628508  WZ3       1368            0.0000000000
     13993      4665  TIP3      OH2            16.5820250248       -9.2133693232       11.2259628508  WZ3       1369            0.0000000000
     13994      4665  TIP3      H1             15.7844650248       -9.6283493232       10.8974628508  WZ3       1369            0.0000000000
     13995      4665  TIP3      H2             17.0271350248       -9.9039993232       11.7170128508  WZ3       1369            0.0000000000
     13996      4666  TIP3      OH2             6.0396050248       -3.2853093232        3.7964128508  WZ3       1370            0.0000000000
     13997      4666  TIP3      H1              6.6317550248       -2.5858293232        4.0726528508  WZ3       1370            0.0000000000
     13998      4666  TIP3      H2              6.4989050248       -3.7183593232        3.0768728508  WZ3       1370            0.0000000000
     13999      4667  TIP3      OH2             4.3555250248      -10.6210093232        2.9123528508  WZ3       1371            0.0000000000
     14000      4667  TIP3      H1              4.3107850248       -9.6816993232        3.0910528508  WZ3       1371            0.0000000000
     14001      4667  TIP3      H2              3.4678450248      -10.8565193232        2.6425628508  WZ3       1371            0.0000000000
     14002      4668  TIP3      OH2            17.6684850248        0.0428806768       12.8483128508  WZ3       1372            0.0000000000
     14003      4668  TIP3      H1             17.5129150248        0.7213206768       12.1912428508  WZ3       1372            0.0000000000
     14004      4668  TIP3      H2             18.6011250248        0.1148106768       13.0513728508  WZ3       1372            0.0000000000
     14005      4669  TIP3      OH2             5.1637250248      -15.8393493232       11.5854528508  WZ3       1373            0.0000000000
     14006      4669  TIP3      H1              4.9347050248      -15.7800993232       10.6579528508  WZ3       1373            0.0000000000
     14007      4669  TIP3      H2              4.7210650248      -16.6307993232       11.8918628508  WZ3       1373            0.0000000000
     14008      4670  TIP3      OH2             4.0940550248       -1.8986393232        7.7460328508  WZ3       1374            0.0000000000
     14009      4670  TIP3      H1              3.2619150248       -1.4263693232        7.7731728508  WZ3       1374            0.0000000000
     14010      4670  TIP3      H2              4.6398850248       -1.3888793232        7.1473428508  WZ3       1374            0.0000000000
     14011      4671  TIP3      OH2             3.3824250248        0.7137306768       19.0758328508  WZ3       1375            0.0000000000
     14012      4671  TIP3      H1              3.9226450248        0.4971306768       19.8357528508  WZ3       1375            0.0000000000
     14013      4671  TIP3      H2              2.9012250248       -0.0916693232       18.8860828508  WZ3       1375            0.0000000000
     14014      4672  TIP3      OH2             7.9797650248       -0.3668293232       20.6962528508  WZ3       1376            0.0000000000
     14015      4672  TIP3      H1              8.7474850248       -0.8257493232       21.0371728508  WZ3       1376            0.0000000000
     14016      4672  TIP3      H2              7.9583850248       -0.5928493232       19.7663728508  WZ3       1376            0.0000000000
     14017      4673  TIP3      OH2            12.0717250248       -0.8587693232        2.0714328508  WZ3       1377            0.0000000000
     14018      4673  TIP3      H1             11.4278250248       -1.4899093232        2.3928028508  WZ3       1377            0.0000000000
     14019      4673  TIP3      H2             12.8335550248       -1.3899693232        1.8397828508  WZ3       1377            0.0000000000
     14020      4674  TIP3      OH2            14.5566350248       -1.9867193232       19.4254028508  WZ3       1378            0.0000000000
     14021      4674  TIP3      H1             14.2055850248       -2.8434193232       19.6684428508  WZ3       1378            0.0000000000
     14022      4674  TIP3      H2             15.2829550248       -1.8440493232       20.0323028508  WZ3       1378            0.0000000000
     14023      4675  TIP3      OH2            16.6760150248       -1.0417793232        2.3052328508  WZ3       1379            0.0000000000
     14024      4675  TIP3      H1             16.9590550248       -1.8362593232        2.7579228508  WZ3       1379            0.0000000000
     14025      4675  TIP3      H2             17.4158050248       -0.8086793232        1.7443428508  WZ3       1379            0.0000000000
     14026      4676  TIP3      OH2             3.2893750248       -5.4758593232       20.0302628508  WZ3       1380            0.0000000000
     14027      4676  TIP3      H1              3.4334250248       -6.3777893232       19.7439328508  WZ3       1380            0.0000000000
     14028      4676  TIP3      H2              2.5171150248       -5.1896493232       19.5424928508  WZ3       1380            0.0000000000
     14029      4677  TIP3      OH2             7.6307450248       -5.1322893232        2.1627228508  WZ3       1381            0.0000000000
     14030      4677  TIP3      H1              7.6951550248       -5.9263293232        2.6933628508  WZ3       1381            0.0000000000
     14031      4677  TIP3      H2              8.2836650248       -5.2510093232        1.4729228508  WZ3       1381            0.0000000000
     14032      4678  TIP3      OH2             9.9449850248       -5.5060493232       19.4629028508  WZ3       1382            0.0000000000
     14033      4678  TIP3      H1              9.6163650248       -5.2352393232       18.6056428508  WZ3       1382            0.0000000000
     14034      4678  TIP3      H2             10.0968050248       -6.4470693232       19.3754028508  WZ3       1382            0.0000000000
     14035      4679  TIP3      OH2            12.9830850248       -4.0851193232        1.8985228508  WZ3       1383            0.0000000000
     14036      4679  TIP3      H1             12.7144950248       -3.9049093232        2.7994128508  WZ3       1383            0.0000000000
     14037      4679  TIP3      H2             12.7766450248       -5.0104993232        1.7671028508  WZ3       1383            0.0000000000
     14038      4680  TIP3      OH2            15.6795050248       -5.5903193232       16.8461328508  WZ3       1384            0.0000000000
     14039      4680  TIP3      H1             16.4249850248       -5.0019493232       16.7265328508  WZ3       1384            0.0000000000
     14040      4680  TIP3      H2             14.9221850248       -5.0083493232       16.9094428508  WZ3       1384            0.0000000000
     14041      4681  TIP3      OH2             4.1220250248       -8.2755293232       19.4501928508  WZ3       1385            0.0000000000
     14042      4681  TIP3      H1              4.5301450248       -9.1328693232       19.3292528508  WZ3       1385            0.0000000000
     14043      4681  TIP3      H2              3.8617850248       -8.2613993232       20.3712228508  WZ3       1385            0.0000000000
     14044      4682  TIP3      OH2             8.7801250248       -7.1596693232        4.4685228508  WZ3       1386            0.0000000000
     14045      4682  TIP3      H1              8.3203250248       -7.6438393232        5.1543728508  WZ3       1386            0.0000000000
     14046      4682  TIP3      H2              9.0349950248       -7.8281293232        3.8325728508  WZ3       1386            0.0000000000
     14047      4683  TIP3      OH2             8.0690550248       -9.2669593232       16.8244828508  WZ3       1387            0.0000000000
     14048      4683  TIP3      H1              7.4506650248       -8.5922993232       17.1049528508  WZ3       1387            0.0000000000
     14049      4683  TIP3      H2              8.4131750248       -8.9455693232       15.9911028508  WZ3       1387            0.0000000000
     14050      4684  TIP3      OH2             9.8511650248       -8.9164893232        2.7308428508  WZ3       1388            0.0000000000
     14051      4684  TIP3      H1              9.6706650248       -9.0713693232        1.8036728508  WZ3       1388            0.0000000000
     14052      4684  TIP3      H2             10.8012150248       -8.8086193232        2.7756328508  WZ3       1388            0.0000000000
     14053      4685  TIP3      OH2            13.0888750248       -6.7954293232       20.1019628508  WZ3       1389            0.0000000000
     14054      4685  TIP3      H1             14.0419950248       -6.7115193232       20.0745628508  WZ3       1389            0.0000000000
     14055      4685  TIP3      H2             12.9283350248       -7.5072493232       20.7214528508  WZ3       1389            0.0000000000
     14056      4686  TIP3      OH2            19.2409950248       -6.5620693232        2.1766528508  WZ3       1390            0.0000000000
     14057      4686  TIP3      H1             18.9674750248       -6.9865193232        1.3634828508  WZ3       1390            0.0000000000
     14058      4686  TIP3      H2             19.2804050248       -5.6306193232        1.9596928508  WZ3       1390            0.0000000000
     14059      4687  TIP3      OH2             8.4084250248      -11.9118793232       17.9067928508  WZ3       1391            0.0000000000
     14060      4687  TIP3      H1              8.5585150248      -12.6407493232       17.3047628508  WZ3       1391            0.0000000000
     14061      4687  TIP3      H2              8.4106650248      -11.1347093232       17.3480128508  WZ3       1391            0.0000000000
     14062      4688  TIP3      OH2             8.8209950248      -13.5422993232       15.3995328508  WZ3       1392            0.0000000000
     14063      4688  TIP3      H1              9.3567450248      -13.0906293232       14.7474628508  WZ3       1392            0.0000000000
     14064      4688  TIP3      H2              7.9689550248      -13.6503193232       14.9769428508  WZ3       1392            0.0000000000
     14065      4689  TIP3      OH2            10.4028350248       -8.1026793232       15.6390528508  WZ3       1393            0.0000000000
     14066      4689  TIP3      H1             11.1533150248       -8.2589293232       15.0658328508  WZ3       1393            0.0000000000
     14067      4689  TIP3      H2             10.0636650248       -7.2510193232       15.3636028508  WZ3       1393            0.0000000000
     14068      4690  TIP3      OH2            14.8184550248      -10.2874993232       20.6675828508  WZ3       1394            0.0000000000
     14069      4690  TIP3      H1             15.0105850248      -11.2185593232       20.5560328508  WZ3       1394            0.0000000000
     14070      4690  TIP3      H2             15.6760850248       -9.8625493232       20.6571228508  WZ3       1394            0.0000000000
     14071      4691  TIP3      OH2            16.1351750248       -7.4989793232       18.7448528508  WZ3       1395            0.0000000000
     14072      4691  TIP3      H1             15.8536750248       -6.7895193232       18.1672328508  WZ3       1395            0.0000000000
     14073      4691  TIP3      H2             17.0776050248       -7.5716793232       18.5939728508  WZ3       1395            0.0000000000
     14074      4692  TIP3      OH2             6.8870550248      -10.7135293232       19.8183528508  WZ3       1396            0.0000000000
     14075      4692  TIP3      H1              6.1199550248      -11.2460493232       19.6081128508  WZ3       1396            0.0000000000
     14076      4692  TIP3      H2              7.5659550248      -11.0234893232       19.2189828508  WZ3       1396            0.0000000000
     14077      4693  TIP3      OH2             9.6265450248      -16.0857293232       15.8308928508  WZ3       1397            0.0000000000
     14078      4693  TIP3      H1              9.5285050248      -15.1394093232       15.7255128508  WZ3       1397            0.0000000000
     14079      4693  TIP3      H2              8.8841650248      -16.4583493232       15.3552428508  WZ3       1397            0.0000000000
     14080      4694  TIP3      OH2            10.8905950248      -11.7641893232       19.3947328508  WZ3       1398            0.0000000000
     14081      4694  TIP3      H1             10.6551350248      -11.9835193232       20.2962228508  WZ3       1398            0.0000000000
     14082      4694  TIP3      H2             10.1072850248      -11.9710693232       18.8849828508  WZ3       1398            0.0000000000
     14083      4695  TIP3      OH2            13.6062550248      -12.6368393232       18.4700828508  WZ3       1399            0.0000000000
     14084      4695  TIP3      H1             12.6587950248      -12.6048693232       18.6024128508  WZ3       1399            0.0000000000
     14085      4695  TIP3      H2             13.9189250248      -13.2621293232       19.1239028508  WZ3       1399            0.0000000000
     14086      4696  TIP3      OH2            15.2404050248      -14.0027293232       20.4752728508  WZ3       1400            0.0000000000
     14087      4696  TIP3      H1             15.1435850248      -14.9549993232       20.4694628508  WZ3       1400            0.0000000000
     14088      4696  TIP3      H2             14.9187150248      -13.7340493232       21.3358228508  WZ3       1400            0.0000000000
     14089      4697  TIP3      OH2             5.0673350248      -12.7931493232       19.5228228508  WZ3       1401            0.0000000000
     14090      4697  TIP3      H1              5.2790750248      -13.4995393232       18.9125728508  WZ3       1401            0.0000000000
     14091      4697  TIP3      H2              4.9560850248      -13.2305493232       20.3669428508  WZ3       1401            0.0000000000
     14092      4698  TIP3      OH2             9.8483550248      -16.7919893232       18.5021728508  WZ3       1402            0.0000000000
     14093      4698  TIP3      H1             10.5601950248      -17.4317693232       18.4880828508  WZ3       1402            0.0000000000
     14094      4698  TIP3      H2              9.7473950248      -16.5251593232       17.5884828508  WZ3       1402            0.0000000000
     14095      4699  TIP3      OH2            10.2021050248      -15.1091493232       20.5558028508  WZ3       1403            0.0000000000
     14096      4699  TIP3      H1             10.0703250248      -15.5847693232       19.7356528508  WZ3       1403            0.0000000000
     14097      4699  TIP3      H2              9.6028450248      -14.3647893232       20.5005128508  WZ3       1403            0.0000000000
     14098      4700  TIP3      OH2             9.7483350248        1.7738806768        3.7322028508  WZ3       1404            0.0000000000
     14099      4700  TIP3      H1             10.6814050248        1.9317506768        3.8760428508  WZ3       1404            0.0000000000
     14100      4700  TIP3      H2              9.4842150248        2.4491806768        3.1073528508  WZ3       1404            0.0000000000
     14101      4701  TIP3      OH2             3.3168250248       -3.5897393232        3.2150128508  WZ3       1405            0.0000000000
     14102      4701  TIP3      H1              4.2307450248       -3.5108493232        3.4884028508  WZ3       1405            0.0000000000
     14103      4701  TIP3      H2              3.3241350248       -4.2767793232        2.5485728508  WZ3       1405            0.0000000000
     14104      4702  TIP3      OH2             1.9658850248        1.8031106768        8.2924028508  WZ3       1406            0.0000000000
     14105      4702  TIP3      H1              1.3185950248        1.3412806768        7.7595228508  WZ3       1406            0.0000000000
     14106      4702  TIP3      H2              2.3203450248        1.1314406768        8.8750228508  WZ3       1406            0.0000000000
     14107      4703  TIP3      OH2             2.8358050248       -0.1161893232       10.0970228508  WZ3       1407            0.0000000000
     14108      4703  TIP3      H1              2.5014850248       -0.9964593232       10.2690428508  WZ3       1407            0.0000000000
     14109      4703  TIP3      H2              3.0580450248        0.2293106768       10.9615828508  WZ3       1407            0.0000000000
     14110      4704  TIP3      OH2            20.3842850248        0.6934506768       13.0775028508  WZ3       1408            0.0000000000
     14111      4704  TIP3      H1             20.3629550248        0.8782906768       14.0164428508  WZ3       1408            0.0000000000
     14112      4704  TIP3      H2             21.0749050248        1.2618506768       12.7366428508  WZ3       1408            0.0000000000
     14113      4705  TIP3      OH2            19.9475750248        0.2605606768       15.9994128508  WZ3       1409            0.0000000000
     14114      4705  TIP3      H1             19.4604450248       -0.4750293232       15.6281528508  WZ3       1409            0.0000000000
     14115      4705  TIP3      H2             20.4968450248       -0.1330493232       16.6773528508  WZ3       1409            0.0000000000
     14116      4706  TIP3      OH2            18.3983050248       -3.9496293232       20.6374428508  WZ3       1410            0.0000000000
     14117      4706  TIP3      H1             17.5324150248       -4.0546593232       21.0316728508  WZ3       1410            0.0000000000
     14118      4706  TIP3      H2             18.7748950248       -3.1912993232       21.0839128508  WZ3       1410            0.0000000000
     14119      4707  TIP3      OH2            19.6992750248       -5.6932593232        6.1516928508  WZ3       1411            0.0000000000
     14120      4707  TIP3      H1             20.5494150248       -5.2721693232        6.2788528508  WZ3       1411            0.0000000000
     14121      4707  TIP3      H2             19.7047850248       -6.4332493232        6.7588328508  WZ3       1411            0.0000000000
     14122      4708  TIP3      OH2            20.0938350248       -7.6395193232        7.9752628508  WZ3       1412            0.0000000000
     14123      4708  TIP3      H1             19.3672950248       -8.1192593232        8.3730228508  WZ3       1412            0.0000000000
     14124      4708  TIP3      H2             20.6751650248       -7.4340493232        8.7074228508  WZ3       1412            0.0000000000
     14125      4709  TIP3      OH2            19.8529550248       -4.8547693232       12.9230228508  WZ3       1413            0.0000000000
     14126      4709  TIP3      H1             20.6863750248       -5.2327693232       12.6423828508  WZ3       1413            0.0000000000
     14127      4709  TIP3      H2             19.9649850248       -3.9116493232       12.8039328508  WZ3       1413            0.0000000000
     14128      4710  TIP3      OH2            18.3391850248       -1.9770193232       15.2298628508  WZ3       1414            0.0000000000
     14129      4710  TIP3      H1             17.6917150248       -1.6518693232       15.8553828508  WZ3       1414            0.0000000000
     14130      4710  TIP3      H2             17.8215850248       -2.4172493232       14.5556928508  WZ3       1414            0.0000000000
     14131      4711  TIP3      OH2            20.3621450248       -7.7386693232        4.3663928508  WZ3       1415            0.0000000000
     14132      4711  TIP3      H1             19.8402550248       -7.3822593232        3.6474828508  WZ3       1415            0.0000000000
     14133      4711  TIP3      H2             20.3290650248       -7.0638893232        5.0444828508  WZ3       1415            0.0000000000
     14134      4712  TIP3      OH2            18.7110450248      -10.4991093232        2.9171028508  WZ3       1416            0.0000000000
     14135      4712  TIP3      H1             18.8074850248       -9.8324093232        2.2370728508  WZ3       1416            0.0000000000
     14136      4712  TIP3      H2             18.5710050248      -11.3144793232        2.4356528508  WZ3       1416            0.0000000000
     14137      4713  TIP3      OH2            17.8805150248       -9.1188693232        8.5381328508  WZ3       1417            0.0000000000
     14138      4713  TIP3      H1             17.7303950248      -10.0640093232        8.5179128508  WZ3       1417            0.0000000000
     14139      4713  TIP3      H2             17.5269650248       -8.8377293232        9.3820428508  WZ3       1417            0.0000000000
     14140      4714  TIP3      OH2             2.9157550248       -7.0406493232       12.5485128508  WZ3       1418            0.0000000000
     14141      4714  TIP3      H1              3.1000450248       -7.1224793232       11.6128028508  WZ3       1418            0.0000000000
     14142      4714  TIP3      H2              3.7650450248       -7.1649493232       12.9721528508  WZ3       1418            0.0000000000
     14143      4715  TIP3      OH2            18.7368050248       -7.1485393232       18.1769628508  WZ3       1419            0.0000000000
     14144      4715  TIP3      H1             19.3195350248       -7.8833093232       18.3686828508  WZ3       1419            0.0000000000
     14145      4715  TIP3      H2             19.3007350248       -6.3765093232       18.2235428508  WZ3       1419            0.0000000000
     14146      4716  TIP3      OH2            20.2335150248       -9.2459593232       18.8615028508  WZ3       1420            0.0000000000
     14147      4716  TIP3      H1             19.3701850248       -9.6247493232       18.6959728508  WZ3       1420            0.0000000000
     14148      4716  TIP3      H2             20.8378850248       -9.9844793232       18.7870828508  WZ3       1420            0.0000000000
     14149      4717  TIP3      OH2            17.9584250248      -13.0911293232        2.0346528508  WZ3       1421            0.0000000000
     14150      4717  TIP3      H1             18.5690050248      -13.4624493232        2.6714728508  WZ3       1421            0.0000000000
     14151      4717  TIP3      H2             17.1215750248      -13.5124393232        2.2306528508  WZ3       1421            0.0000000000
     14152      4718  TIP3      OH2            17.5909950248      -11.5362893232        7.0006428508  WZ3       1422            0.0000000000
     14153      4718  TIP3      H1             17.8707050248      -12.4432493232        7.1248128508  WZ3       1422            0.0000000000
     14154      4718  TIP3      H2             18.3501650248      -11.1021393232        6.6115628508  WZ3       1422            0.0000000000
     14155      4719  TIP3      OH2            18.2028250248      -10.9545493232       12.4365328508  WZ3       1423            0.0000000000
     14156      4719  TIP3      H1             19.1356250248      -10.7425593232       12.4021328508  WZ3       1423            0.0000000000
     14157      4719  TIP3      H2             17.9675750248      -10.8533393232       13.3588328508  WZ3       1423            0.0000000000
     14158      4720  TIP3      OH2            18.2320150248      -10.2180193232       15.2124728508  WZ3       1424            0.0000000000
     14159      4720  TIP3      H1             17.3891450248       -9.9499793232       15.5784528508  WZ3       1424            0.0000000000
     14160      4720  TIP3      H2             18.6744450248       -9.3958293232       15.0015828508  WZ3       1424            0.0000000000
     14161      4721  TIP3      OH2             2.5132350248      -11.7701493232       18.6893928508  WZ3       1425            0.0000000000
     14162      4721  TIP3      H1              3.4327250248      -11.8923193232       18.9257028508  WZ3       1425            0.0000000000
     14163      4721  TIP3      H2              2.0636850248      -12.5201793232       19.0787428508  WZ3       1425            0.0000000000
     14164      4722  TIP3      OH2            20.5151750248      -16.2379993232       20.5659728508  WZ3       1426            0.0000000000
     14165      4722  TIP3      H1             20.8648750248      -16.8916493232       19.9604428508  WZ3       1426            0.0000000000
     14166      4722  TIP3      H2             20.6621250248      -15.4005893232       20.1262328508  WZ3       1426            0.0000000000
     14167      4723  TIP3      OH2            18.2044750248      -14.2733593232        7.0488428508  WZ3       1427            0.0000000000
     14168      4723  TIP3      H1             18.3869750248      -14.7222093232        7.8743428508  WZ3       1427            0.0000000000
     14169      4723  TIP3      H2             17.6047650248      -14.8579193232        6.5853028508  WZ3       1427            0.0000000000
     14170      4724  TIP3      OH2             3.7344850248      -13.4579893232       11.5806828508  WZ3       1428            0.0000000000
     14171      4724  TIP3      H1              4.1796450248      -14.2497393232       11.8826528508  WZ3       1428            0.0000000000
     14172      4724  TIP3      H2              4.2007850248      -12.7414693232       12.0112428508  WZ3       1428            0.0000000000
     14173      4725  TIP3      OH2             2.0385150248      -10.4586893232       12.6497028508  WZ3       1429            0.0000000000
     14174      4725  TIP3      H1              2.5304950248      -10.6796393232       11.8589028508  WZ3       1429            0.0000000000
     14175      4725  TIP3      H2              2.4006050248       -9.6183493232       12.9306528508  WZ3       1429            0.0000000000
     14176      4726  TIP3      OH2            20.0348950248      -14.1285393232       18.9151028508  WZ3       1430            0.0000000000
     14177      4726  TIP3      H1             19.1174650248      -13.8578293232       18.8794528508  WZ3       1430            0.0000000000
     14178      4726  TIP3      H2             20.1578350248      -14.6636993232       18.1310728508  WZ3       1430            0.0000000000
     14179      4727  TIP3      OH2            20.0710950248      -14.2055493232        3.5768728508  WZ3       1431            0.0000000000
     14180      4727  TIP3      H1             20.4833550248      -14.9269793232        3.1016728508  WZ3       1431            0.0000000000
     14181      4727  TIP3      H2             20.7527450248      -13.5360893232        3.6353028508  WZ3       1431            0.0000000000
     14182      4728  TIP3      OH2             2.3521650248      -14.2007793232        6.7039428508  WZ3       1432            0.0000000000
     14183      4728  TIP3      H1              1.4270050248      -13.9921193232        6.5744928508  WZ3       1432            0.0000000000
     14184      4728  TIP3      H2              2.8061550248      -13.7166993232        6.0141728508  WZ3       1432            0.0000000000
     14185      4729  TIP3      OH2            17.1228850248        0.7833906768        8.6496828508  WZ3       1433            0.0000000000
     14186      4729  TIP3      H1             17.7751750248        0.4356006768        8.0415928508  WZ3       1433            0.0000000000
     14187      4729  TIP3      H2             17.6332650248        1.2717106768        9.2956528508  WZ3       1433            0.0000000000
     14188      4730  TIP3      OH2             2.3157050248      -15.4628793232       15.0481928508  WZ3       1434            0.0000000000
     14189      4730  TIP3      H1              1.6507550248      -15.7088493232       15.6912828508  WZ3       1434            0.0000000000
     14190      4730  TIP3      H2              1.8728350248      -14.8408393232       14.4709928508  WZ3       1434            0.0000000000
     14191      4731  TIP3      OH2             4.5076350248       -2.2874693232       19.1927728508  WZ3       1435            0.0000000000
     14192      4731  TIP3      H1              3.6868850248       -2.1128193232       18.7322428508  WZ3       1435            0.0000000000
     14193      4731  TIP3      H2              4.2554150248       -2.3609993232       20.1132128508  WZ3       1435            0.0000000000
     14194      4732  TIP3      OH2             7.4619250248       -1.3133493232       15.4511728508  WZ3       1436            0.0000000000
     14195      4732  TIP3      H1              7.0370350248       -0.5034993232       15.1686328508  WZ3       1436            0.0000000000
     14196      4732  TIP3      H2              8.3662050248       -1.2279393232       15.1491528508  WZ3       1436            0.0000000000
     14197      4733  TIP3      OH2            11.7730650248        0.0856506768       18.4105428508  WZ3       1437            0.0000000000
     14198      4733  TIP3      H1             11.9578150248       -0.2477393232       19.2885728508  WZ3       1437            0.0000000000
     14199      4733  TIP3      H2             12.6195150248        0.3955106768       18.0884628508  WZ3       1437            0.0000000000
     14200      4734  TIP3      OH2            14.1181050248        1.3715406768       17.6546828508  WZ3       1438            0.0000000000
     14201      4734  TIP3      H1             14.7949950248        0.7387706768       17.4146028508  WZ3       1438            0.0000000000
     14202      4734  TIP3      H2             14.4399850248        1.7725906768       18.4620128508  WZ3       1438            0.0000000000
     14203      4735  TIP3      OH2            19.0354850248      -16.0389093232       16.7341828508  WZ3       1439            0.0000000000
     14204      4735  TIP3      H1             18.2228350248      -15.7138793232       16.3466528508  WZ3       1439            0.0000000000
     14205      4735  TIP3      H2             19.2683350248      -16.7990593232       16.2010928508  WZ3       1439            0.0000000000
     14206      4736  TIP3      OH2             4.8635950248        1.9430406768       15.4987028508  WZ3       1440            0.0000000000
     14207      4736  TIP3      H1              4.1432350248        2.3831406768       15.0474728508  WZ3       1440            0.0000000000
     14208      4736  TIP3      H2              4.4979950248        1.6925106768       16.3471028508  WZ3       1440            0.0000000000
     14209      4737  TIP3      OH2             7.3308550248        1.5434306768       14.5284228508  WZ3       1441            0.0000000000
     14210      4737  TIP3      H1              6.4660750248        1.6152806768       14.9324328508  WZ3       1441            0.0000000000
     14211      4737  TIP3      H2              7.2757550248        2.0901606768       13.7446728508  WZ3       1441            0.0000000000
     14212      4738  TIP3      OH2            12.0414150248        1.4313206768       13.7040228508  WZ3       1442            0.0000000000
     14213      4738  TIP3      H1             11.5848150248        1.9602906768       13.0498628508  WZ3       1442            0.0000000000
     14214      4738  TIP3      H2             12.2042150248        2.0344606768       14.4292528508  WZ3       1442            0.0000000000
     14215      4739  TIP3      OH2            14.3690450248        0.3092806768       14.6490528508  WZ3       1443            0.0000000000
     14216      4739  TIP3      H1             13.4644150248        0.4743006768       14.3832628508  WZ3       1443            0.0000000000
     14217      4739  TIP3      H2             14.7979050248        1.1625006768       14.5833928508  WZ3       1443            0.0000000000
     14218      4740  TIP3      OH2            16.9732350248        1.8791906768       14.9438328508  WZ3       1444            0.0000000000
     14219      4740  TIP3      H1             16.7914350248        2.7950806768       14.7333228508  WZ3       1444            0.0000000000
     14220      4740  TIP3      H2             17.1500150248        1.4689006768       14.0972928508  WZ3       1444            0.0000000000
     14221      4741  TIP3      OH2             4.2784050248        0.5662906768       12.4088828508  WZ3       1445            0.0000000000
     14222      4741  TIP3      H1              4.2600050248        0.1408006768       13.2661128508  WZ3       1445            0.0000000000
     14223      4741  TIP3      H2              5.0831950248        0.2477906768       12.0001028508  WZ3       1445            0.0000000000
     14224      4742  TIP3      OH2             6.4197150248       -0.7238393232       11.0638728508  WZ3       1446            0.0000000000
     14225      4742  TIP3      H1              6.2007850248       -1.6400993232       11.2334728508  WZ3       1446            0.0000000000
     14226      4742  TIP3      H2              7.2439350248       -0.5837993232       11.5300128508  WZ3       1446            0.0000000000
     14227      4743  TIP3      OH2             8.9569650248       -0.2539093232       11.9126728508  WZ3       1447            0.0000000000
     14228      4743  TIP3      H1              9.1695350248       -1.1420093232       11.6257628508  WZ3       1447            0.0000000000
     14229      4743  TIP3      H2              9.0214750248       -0.2881393232       12.8670728508  WZ3       1447            0.0000000000
     14230      4744  TIP3      OH2            12.4653350248      -14.5898493232       11.0570028508  WZ3       1448            0.0000000000
     14231      4744  TIP3      H1             11.7910150248      -15.2192893232       11.3125828508  WZ3       1448            0.0000000000
     14232      4744  TIP3      H2             13.0292550248      -15.0739593232       10.4537928508  WZ3       1448            0.0000000000
     14233      4745  TIP3      OH2            17.6080550248      -16.4824493232       11.1697128508  WZ3       1449            0.0000000000
     14234      4745  TIP3      H1             18.2118150248      -15.9349093232       10.6678128508  WZ3       1449            0.0000000000
     14235      4745  TIP3      H2             16.7382550248      -16.1634093232       10.9291228508  WZ3       1449            0.0000000000
     14236      4746  TIP3      OH2            19.3350950248      -15.3435793232        9.5028028508  WZ3       1450            0.0000000000
     14237      4746  TIP3      H1             19.9468450248      -15.8580093232        8.9761628508  WZ3       1450            0.0000000000
     14238      4746  TIP3      H2             19.7174350248      -14.4663693232        9.5262428508  WZ3       1450            0.0000000000
     14239      4747  TIP3      OH2             4.7920850248      -15.9558193232        8.8789928508  WZ3       1451            0.0000000000
     14240      4747  TIP3      H1              4.0150650248      -16.1903293232        8.3715828508  WZ3       1451            0.0000000000
     14241      4747  TIP3      H2              5.3224450248      -16.7526093232        8.8877928508  WZ3       1451            0.0000000000
     14242      4748  TIP3      OH2             3.6284250248      -16.1580093232        4.6826028508  WZ3       1452            0.0000000000
     14243      4748  TIP3      H1              4.0674950248      -15.5469593232        4.0909528508  WZ3       1452            0.0000000000
     14244      4748  TIP3      H2              2.9946650248      -15.6195993232        5.1566028508  WZ3       1452            0.0000000000
     14245      4749  TIP3      OH2             9.3713450248      -16.0291093232        8.6923028508  WZ3       1453            0.0000000000
     14246      4749  TIP3      H1             10.2456850248      -15.6406793232        8.6627328508  WZ3       1453            0.0000000000
     14247      4749  TIP3      H2              9.2354250248      -16.2443293232        9.6150228508  WZ3       1453            0.0000000000
     14248      4750  TIP3      OH2            14.9281850248      -15.9991293232       10.3414728508  WZ3       1454            0.0000000000
     14249      4750  TIP3      H1             15.0043450248      -15.9039693232        9.3920728508  WZ3       1454            0.0000000000
     14250      4750  TIP3      H2             14.6531050248      -16.9068393232       10.4703828508  WZ3       1454            0.0000000000
     14251      4751  TIP3      OH2            16.2814450248      -15.9733493232        6.0339728508  WZ3       1455            0.0000000000
     14252      4751  TIP3      H1             15.5785550248      -15.3584293232        5.8241128508  WZ3       1455            0.0000000000
     14253      4751  TIP3      H2             15.8365850248      -16.8106793232        6.1650628508  WZ3       1455            0.0000000000
     14254      4752  TIP3      OH2             3.5293750248       -0.2097893232        5.5801128508  WZ3       1456            0.0000000000
     14255      4752  TIP3      H1              2.8443650248       -0.2478993232        4.9126228508  WZ3       1456            0.0000000000
     14256      4752  TIP3      H2              3.5330950248        0.7029706768        5.8683228508  WZ3       1456            0.0000000000
     14257      4753  TIP3      OH2             5.4893350248      -14.2418593232        3.1250128508  WZ3       1457            0.0000000000
     14258      4753  TIP3      H1              5.9806750248      -14.8716193232        2.5975628508  WZ3       1457            0.0000000000
     14259      4753  TIP3      H2              6.1129650248      -13.9459193232        3.7881328508  WZ3       1457            0.0000000000
     14260      4754  TIP3      OH2            10.5153450248      -13.9487093232        5.5820628508  WZ3       1458            0.0000000000
     14261      4754  TIP3      H1             10.6934750248      -14.5953893232        6.2649228508  WZ3       1458            0.0000000000
     14262      4754  TIP3      H2             10.4619650248      -13.1149393232        6.0491728508  WZ3       1458            0.0000000000
     14263      4755  TIP3      OH2            12.3937250248        0.9997006768        3.9777328508  WZ3       1459            0.0000000000
     14264      4755  TIP3      H1             13.2597450248        1.3664406768        3.7995528508  WZ3       1459            0.0000000000
     14265      4755  TIP3      H2             12.1470050248        0.5605006768        3.1638128508  WZ3       1459            0.0000000000
     14266      4756  TIP3      OH2            19.1026850248        0.5627306768        6.6568428508  WZ3       1460            0.0000000000
     14267      4756  TIP3      H1             18.9083950248       -0.1850593232        6.0918028508  WZ3       1460            0.0000000000
     14268      4756  TIP3      H2             19.0636950248        1.3207406768        6.0736328508  WZ3       1460            0.0000000000
     14269      4757  TIP3      OH2             4.7498850248      -15.4416293232       18.3966128508  WZ3       1461            0.0000000000
     14270      4757  TIP3      H1              4.3837050248      -16.2073693232       18.8390828508  WZ3       1461            0.0000000000
     14271      4757  TIP3      H2              5.6627350248      -15.4126093232       18.6831228508  WZ3       1461            0.0000000000
     14272      4758  TIP3      OH2             6.7229650248      -16.0911893232       19.9323228508  WZ3       1462            0.0000000000
     14273      4758  TIP3      H1              7.6213250248      -16.3651693232       19.7476628508  WZ3       1462            0.0000000000
     14274      4758  TIP3      H2              6.3362750248      -16.8335893232       20.3965828508  WZ3       1462            0.0000000000
     14275      4759  TIP3      OH2             5.3474950248        0.7102906768        2.6053228508  WZ3       1463            0.0000000000
     14276      4759  TIP3      H1              5.0799550248        0.9965806768        3.4786328508  WZ3       1463            0.0000000000
     14277      4759  TIP3      H2              6.1187550248        0.1642106768        2.7575728508  WZ3       1463            0.0000000000
     14278      4760  TIP3      OH2            15.1441950248      -16.7586593232       20.1146028508  WZ3       1464            0.0000000000
     14279      4760  TIP3      H1             15.2209150248      -17.1845893232       20.9683728508  WZ3       1464            0.0000000000
     14280      4760  TIP3      H2             16.0378550248      -16.7451893232       19.7719528508  WZ3       1464            0.0000000000
     14281      4761  TIP3      OH2            18.3203050248       -0.6860293232       18.8070228508  WZ3       1465            0.0000000000
     14282      4761  TIP3      H1             17.5384950248       -0.8722293232       18.2870828508  WZ3       1465            0.0000000000
     14283      4761  TIP3      H2             18.2482950248        0.2434006768       19.0242728508  WZ3       1465            0.0000000000
     14284      4762  TIP3      OH2            31.6594750248       -7.5445193232       12.2565628508  WZ3       1467            0.0000000000
     14285      4762  TIP3      H1             31.6212250248       -8.1908893232       12.9615228508  WZ3       1467            0.0000000000
     14286      4762  TIP3      H2             31.3371250248       -8.0110793232       11.4854328508  WZ3       1467            0.0000000000
     14287      4763  TIP3      OH2            24.0279750248       -7.9303093232       13.8495528508  WZ3       1468            0.0000000000
     14288      4763  TIP3      H1             24.0691850248       -8.5559793232       14.5727928508  WZ3       1468            0.0000000000
     14289      4763  TIP3      H2             24.7307450248       -7.3064493232       14.0315928508  WZ3       1468            0.0000000000
     14290      4764  TIP3      OH2            24.9512850248       -3.4804193232       12.3844628508  WZ3       1470            0.0000000000
     14291      4764  TIP3      H1             24.5818050248       -4.2823693232       12.0148928508  WZ3       1470            0.0000000000
     14292      4764  TIP3      H2             25.8923950248       -3.6489293232       12.4308028508  WZ3       1470            0.0000000000
     14293      4765  TIP3      OH2            21.5613350248       -9.8201593232        7.7773428508  WZ3       1471            0.0000000000
     14294      4765  TIP3      H1             21.1136750248       -8.9742893232        7.7589928508  WZ3       1471            0.0000000000
     14295      4765  TIP3      H2             21.0004550248      -10.3997393232        7.2618528508  WZ3       1471            0.0000000000
     14296      4766  TIP3      OH2            22.2719450248       -7.6581993232        9.9031428508  WZ3       1472            0.0000000000
     14297      4766  TIP3      H1             22.4852950248       -8.4280393232       10.4304428508  WZ3       1472            0.0000000000
     14298      4766  TIP3      H2             23.0097050248       -7.5685293232        9.2999028508  WZ3       1472            0.0000000000
     14299      4767  TIP3      OH2            32.4770450248        0.4986906768       10.7701128508  WZ3       1473            0.0000000000
     14300      4767  TIP3      H1             33.0966850248       -0.1778393232       10.4970328508  WZ3       1473            0.0000000000
     14301      4767  TIP3      H2             32.2687850248        0.2807706768       11.6786028508  WZ3       1473            0.0000000000
     14302      4768  TIP3      OH2            30.0489150248       -5.1123793232       12.6626628508  WZ3       1474            0.0000000000
     14303      4768  TIP3      H1             30.3527050248       -5.7982393232       12.0680728508  WZ3       1474            0.0000000000
     14304      4768  TIP3      H2             30.7703150248       -4.9935093232       13.2804628508  WZ3       1474            0.0000000000
     14305      4769  TIP3      OH2            26.3444450248      -12.6164993232       10.2626228508  WZ3       1476            0.0000000000
     14306      4769  TIP3      H1             26.3875550248      -11.7566493232        9.8442528508  WZ3       1476            0.0000000000
     14307      4769  TIP3      H2             25.8868550248      -13.1690293232        9.6289428508  WZ3       1476            0.0000000000
     14308      4770  TIP3      OH2            22.9645950248      -10.2199193232       11.0247628508  WZ3       1478            0.0000000000
     14309      4770  TIP3      H1             23.6182550248      -10.7697493232       11.4567728508  WZ3       1478            0.0000000000
     14310      4770  TIP3      H2             22.9885250248      -10.4940193232       10.1079628508  WZ3       1478            0.0000000000
     14311      4771  TIP3      OH2            28.1210450248       -8.6697893232       10.2399128508  WZ3       1479            0.0000000000
     14312      4771  TIP3      H1             28.7371450248       -9.1962493232       10.7493128508  WZ3       1479            0.0000000000
     14313      4771  TIP3      H2             27.5349250248       -9.3099193232        9.8362728508  WZ3       1479            0.0000000000
     14314      4772  TIP3      OH2            25.1546350248      -13.6986593232       14.3367028508  WZ3       1480            0.0000000000
     14315      4772  TIP3      H1             24.9358050248      -13.1685993232       13.5703028508  WZ3       1480            0.0000000000
     14316      4772  TIP3      H2             24.4867250248      -13.4721093232       14.9838428508  WZ3       1480            0.0000000000
     14317      4773  TIP3      OH2            32.5236150248       -4.1985493232        7.8806128508  WZ3       1481            0.0000000000
     14318      4773  TIP3      H1             32.2281250248       -4.5213193232        7.0293028508  WZ3       1481            0.0000000000
     14319      4773  TIP3      H2             32.1993950248       -3.2988793232        7.9218728508  WZ3       1481            0.0000000000
     14320      4774  TIP3      OH2            27.7237750248       -6.0230893232       14.6240728508  WZ3       1482            0.0000000000
     14321      4774  TIP3      H1             26.9836850248       -5.4249393232       14.7275928508  WZ3       1482            0.0000000000
     14322      4774  TIP3      H2             28.4377250248       -5.4691293232       14.3084328508  WZ3       1482            0.0000000000
     14323      4775  TIP3      OH2            24.7483650248      -11.8064793232       12.2889228508  WZ3       1483            0.0000000000
     14324      4775  TIP3      H1             25.3619950248      -11.1737193232       12.6621628508  WZ3       1483            0.0000000000
     14325      4775  TIP3      H2             25.2604350248      -12.2789793232       11.6326128508  WZ3       1483            0.0000000000
     14326      4776  TIP3      OH2            26.1312050248       -4.0587893232       15.4112228508  WZ3       1484            0.0000000000
     14327      4776  TIP3      H1             26.1259650248       -3.1794393232       15.0331528508  WZ3       1484            0.0000000000
     14328      4776  TIP3      H2             25.2776150248       -4.1423793232       15.8362128508  WZ3       1484            0.0000000000
     14329      4777  TIP3      OH2            22.2522950248       -4.3879993232        6.1931528508  WZ3       1485            0.0000000000
     14330      4777  TIP3      H1             21.9803850248       -4.1588993232        5.3044428508  WZ3       1485            0.0000000000
     14331      4777  TIP3      H2             22.2978650248       -3.5501193232        6.6536828508  WZ3       1485            0.0000000000
     14332      4778  TIP3      OH2            31.4475950248       -7.5555893232        6.2897728508  WZ3       1489            0.0000000000
     14333      4778  TIP3      H1             30.7361450248       -7.0206193232        5.9378228508  WZ3       1489            0.0000000000
     14334      4778  TIP3      H2             32.1385550248       -7.5003793232        5.6296628508  WZ3       1489            0.0000000000
     14335      4779  TIP3      OH2            26.4987350248       -6.7156393232        9.1238628508  WZ3       1493            0.0000000000
     14336      4779  TIP3      H1             26.1682550248       -7.0862993232        8.3055628508  WZ3       1493            0.0000000000
     14337      4779  TIP3      H2             27.0871450248       -7.3862393232        9.4706928508  WZ3       1493            0.0000000000
     14338      4780  TIP3      OH2            27.8654850248       -3.2875793232       11.8050828508  WZ3       1494            0.0000000000
     14339      4780  TIP3      H1             27.7706150248       -3.8662693232       11.0485428508  WZ3       1494            0.0000000000
     14340      4780  TIP3      H2             28.5948450248       -3.6590093232       12.3013628508  WZ3       1494            0.0000000000
     14341      4781  TIP3      OH2            26.8652850248       -7.9470793232       12.7573628508  WZ3       1495            0.0000000000
     14342      4781  TIP3      H1             27.4305350248       -7.8256593232       11.9944828508  WZ3       1495            0.0000000000
     14343      4781  TIP3      H2             27.1841750248       -7.3095793232       13.3962128508  WZ3       1495            0.0000000000
     14344      4782  TIP3      OH2            33.1745050248       -2.4438893232       13.4914128508  WZ3       1496            0.0000000000
     14345      4782  TIP3      H1             32.9341650248       -1.7815793232       14.1393328508  WZ3       1496            0.0000000000
     14346      4782  TIP3      H2             32.9763250248       -3.2783693232       13.9163728508  WZ3       1496            0.0000000000
     14347      4783  TIP3      OH2            27.7453550248       -3.5478093232       17.4745528508  WZ3       1497            0.0000000000
     14348      4783  TIP3      H1             27.4341050248       -2.7654893232       17.9298728508  WZ3       1497            0.0000000000
     14349      4783  TIP3      H2             27.0953750248       -3.7008993232       16.7887528508  WZ3       1497            0.0000000000
     14350      4784  TIP3      OH2            24.6653450248       -7.3496993232       16.7031228508  WZ3       1499            0.0000000000
     14351      4784  TIP3      H1             24.7356650248       -6.6990193232       17.4016228508  WZ3       1499            0.0000000000
     14352      4784  TIP3      H2             23.7745650248       -7.2469493232       16.3682128508  WZ3       1499            0.0000000000
     14353      4785  TIP3      OH2            31.4508050248       -1.4471193232        8.3617928508  WZ3       1500            0.0000000000
     14354      4785  TIP3      H1             31.9245650248       -1.1514893232        9.1392128508  WZ3       1500            0.0000000000
     14355      4785  TIP3      H2             30.8877350248       -0.7089593232        8.1287528508  WZ3       1500            0.0000000000
     14356      4786  TIP3      OH2            25.9849450248       -1.4763093232       18.2379328508  WZ3       1501            0.0000000000
     14357      4786  TIP3      H1             25.9924750248       -1.6123393232       17.2904828508  WZ3       1501            0.0000000000
     14358      4786  TIP3      H2             25.0689850248       -1.5934993232       18.4899328508  WZ3       1501            0.0000000000
     14359      4787  TIP3      OH2            25.4890050248       -7.6462093232        6.7131428508  WZ3       1502            0.0000000000
     14360      4787  TIP3      H1             25.1971350248       -6.8780393232        6.2222728508  WZ3       1502            0.0000000000
     14361      4787  TIP3      H2             24.8145250248       -8.3055893232        6.5502828508  WZ3       1502            0.0000000000
     14362      4788  TIP3      OH2            21.5820150248       -5.2832893232       15.5281228508  WZ3       1503            0.0000000000
     14363      4788  TIP3      H1             21.0808550248       -5.3113493232       14.7130928508  WZ3       1503            0.0000000000
     14364      4788  TIP3      H2             21.5873850248       -6.1889693232       15.8378528508  WZ3       1503            0.0000000000
     14365      4789  TIP3      OH2            21.3322850248       -2.5029093232       12.4121428508  WZ3       1504            0.0000000000
     14366      4789  TIP3      H1             22.2783450248       -2.6472093232       12.3930928508  WZ3       1504            0.0000000000
     14367      4789  TIP3      H2             21.2199150248       -1.7186293232       12.9492628508  WZ3       1504            0.0000000000
     14368      4790  TIP3      OH2            30.5085350248       -2.2630193232       16.9706528508  WZ3       1505            0.0000000000
     14369      4790  TIP3      H1             30.5959950248       -1.4365593232       17.4455628508  WZ3       1505            0.0000000000
     14370      4790  TIP3      H2             29.6450450248       -2.5926393232       17.2195828508  WZ3       1505            0.0000000000
     14371      4791  TIP3      OH2            30.9231150248        1.5093506768        6.7767128508  WZ3       1506            0.0000000000
     14372      4791  TIP3      H1             30.8477150248        1.3880706768        5.8302328508  WZ3       1506            0.0000000000
     14373      4791  TIP3      H2             30.9559850248        2.4586206768        6.8951728508  WZ3       1506            0.0000000000
     14374      4792  TIP3      OH2            24.5764950248        0.2980506768        8.5576128508  WZ3       1507            0.0000000000
     14375      4792  TIP3      H1             24.7285350248       -0.0499093232        9.4362628508  WZ3       1507            0.0000000000
     14376      4792  TIP3      H2             23.7255350248       -0.0582193232        8.3023328508  WZ3       1507            0.0000000000
     14377      4793  TIP3      OH2            34.0247150248        0.6633706768        3.7789528508  WZ3       1508            0.0000000000
     14378      4793  TIP3      H1             34.3995550248       -0.0810193232        3.3082128508  WZ3       1508            0.0000000000
     14379      4793  TIP3      H2             34.0290850248        0.3934306768        4.6972828508  WZ3       1508            0.0000000000
     14380      4794  TIP3      OH2            33.6935250248        0.5890806768        6.5281728508  WZ3       1509            0.0000000000
     14381      4794  TIP3      H1             32.7585050248        0.6892706768        6.7068728508  WZ3       1509            0.0000000000
     14382      4794  TIP3      H2             33.9737150248       -0.1203193232        7.1064928508  WZ3       1509            0.0000000000
     14383      4795  TIP3      OH2            23.8310650248       -3.9597493232       16.5714028508  WZ3       1510            0.0000000000
     14384      4795  TIP3      H1             24.0471950248       -4.3211893232       17.4309828508  WZ3       1510            0.0000000000
     14385      4795  TIP3      H2             22.9755350248       -4.3343693232       16.3617528508  WZ3       1510            0.0000000000
     14386      4796  TIP3      OH2            26.4498650248      -15.4896993232       12.5668228508  WZ3       1511            0.0000000000
     14387      4796  TIP3      H1             25.5882350248      -15.5768793232       12.1591128508  WZ3       1511            0.0000000000
     14388      4796  TIP3      H2             26.4274350248      -14.6336893232       12.9945828508  WZ3       1511            0.0000000000
     14389      4797  TIP3      OH2            26.5408750248      -10.5242493232       13.6618428508  WZ3       1516            0.0000000000
     14390      4797  TIP3      H1             25.8990850248      -10.5645193232       14.3708528508  WZ3       1516            0.0000000000
     14391      4797  TIP3      H2             26.5780750248       -9.5977793232       13.4241428508  WZ3       1516            0.0000000000
     14392      4798  TIP3      OH2            26.5377850248      -10.3032393232        8.5738428508  WZ3       1517            0.0000000000
     14393      4798  TIP3      H1             25.6450750248      -10.6436293232        8.5152228508  WZ3       1517            0.0000000000
     14394      4798  TIP3      H2             26.9884450248      -10.6801493232        7.8181628508  WZ3       1517            0.0000000000
     14395      4799  TIP3      OH2            24.2909250248      -10.2038993232       15.5290428508  WZ3       1521            0.0000000000
     14396      4799  TIP3      H1             24.2528650248       -9.8037393232       16.3977528508  WZ3       1521            0.0000000000
     14397      4799  TIP3      H2             23.8000350248      -11.0206593232       15.6193328508  WZ3       1521            0.0000000000
     14398      4800  TIP3      OH2            27.6566650248      -12.8296693232        2.3276428508  WZ3       1522            0.0000000000
     14399      4800  TIP3      H1             27.2257350248      -13.2746593232        3.0573828508  WZ3       1522            0.0000000000
     14400      4800  TIP3      H2             26.9385350248      -12.4580393232        1.8153928508  WZ3       1522            0.0000000000
     14401      4801  TIP3      OH2            20.8990050248      -13.0877193232        9.3795128508  WZ3       1523            0.0000000000
     14402      4801  TIP3      H1             21.5297750248      -13.1165093232       10.0989028508  WZ3       1523            0.0000000000
     14403      4801  TIP3      H2             21.3484350248      -13.5128493232        8.6491028508  WZ3       1523            0.0000000000
     14404      4802  TIP3      OH2            22.1732150248      -12.3415193232        4.8035528508  WZ3       1524            0.0000000000
     14405      4802  TIP3      H1             22.6473850248      -11.7505293232        4.2186428508  WZ3       1524            0.0000000000
     14406      4802  TIP3      H2             21.4558550248      -11.8112293232        5.1505628508  WZ3       1524            0.0000000000
     14407      4803  TIP3      OH2            29.1193150248      -12.8754893232        9.6602528508  WZ3       1526            0.0000000000
     14408      4803  TIP3      H1             28.2084250248      -12.8188093232        9.9488528508  WZ3       1526            0.0000000000
     14409      4803  TIP3      H2             29.6246050248      -12.9359393232       10.4709728508  WZ3       1526            0.0000000000
     14410      4804  TIP3      OH2            23.9476550248      -11.2468593232        8.4870128508  WZ3       1527            0.0000000000
     14411      4804  TIP3      H1             23.0584550248      -11.1473093232        8.1469728508  WZ3       1527            0.0000000000
     14412      4804  TIP3      H2             24.2441450248      -12.0885593232        8.1408028508  WZ3       1527            0.0000000000
     14413      4805  TIP3      OH2            27.6008350248      -11.2465993232        6.1434728508  WZ3       1528            0.0000000000
     14414      4805  TIP3      H1             28.5323850248      -11.1175993232        6.3217828508  WZ3       1528            0.0000000000
     14415      4805  TIP3      H2             27.3858650248      -10.5771693232        5.4939428508  WZ3       1528            0.0000000000
     14416      4806  TIP3      OH2            26.2748550248      -10.0523793232        3.7100828508  WZ3       1530            0.0000000000
     14417      4806  TIP3      H1             25.7323650248      -10.4319993232        3.0188428508  WZ3       1530            0.0000000000
     14418      4806  TIP3      H2             27.1083450248       -9.8579093232        3.2814928508  WZ3       1530            0.0000000000
     14419      4807  TIP3      OH2            24.4099950248       -5.4951893232       18.8092428508  WZ3       1531            0.0000000000
     14420      4807  TIP3      H1             25.1422350248       -5.2405993232       19.3706928508  WZ3       1531            0.0000000000
     14421      4807  TIP3      H2             23.6298650248       -5.2906493232       19.3247828508  WZ3       1531            0.0000000000
     14422      4808  TIP3      OH2            30.4392850248      -10.0881893232       11.5472128508  WZ3       1532            0.0000000000
     14423      4808  TIP3      H1             31.0036250248      -10.6345293232       11.0001728508  WZ3       1532            0.0000000000
     14424      4808  TIP3      H2             30.2916250248      -10.6099993232       12.3359728508  WZ3       1532            0.0000000000
     14425      4809  TIP3      OH2            25.4412550248      -13.9515793232        7.9656928508  WZ3       1533            0.0000000000
     14426      4809  TIP3      H1             25.1242050248      -14.8540493232        7.9302328508  WZ3       1533            0.0000000000
     14427      4809  TIP3      H2             26.2226650248      -13.9498393232        7.4128528508  WZ3       1533            0.0000000000
     14428      4810  TIP3      OH2            29.0658750248      -11.6995793232       13.9612528508  WZ3       1534            0.0000000000
     14429      4810  TIP3      H1             28.2304050248      -11.2456293232       14.0714928508  WZ3       1534            0.0000000000
     14430      4810  TIP3      H2             29.5899350248      -11.4237293232       14.7132428508  WZ3       1534            0.0000000000
     14431      4811  TIP3      OH2            29.6101350248       -5.4868093232        5.6458928508  WZ3       1535            0.0000000000
     14432      4811  TIP3      H1             28.8652350248       -5.9942793232        5.3236828508  WZ3       1535            0.0000000000
     14433      4811  TIP3      H2             29.4758550248       -5.4380093232        6.5923728508  WZ3       1535            0.0000000000
     14434      4812  TIP3      OH2            31.1293450248       -5.3024793232       16.8828028508  WZ3       1537            0.0000000000
     14435      4812  TIP3      H1             30.7839550248       -5.6842393232       17.6897628508  WZ3       1537            0.0000000000
     14436      4812  TIP3      H2             30.9293550248       -4.3691193232       16.9540928508  WZ3       1537            0.0000000000
     14437      4813  TIP3      OH2            24.7349650248       -6.1918093232       11.4156828508  WZ3       1539            0.0000000000
     14438      4813  TIP3      H1             25.4796850248       -6.1942393232       10.8143328508  WZ3       1539            0.0000000000
     14439      4813  TIP3      H2             24.8126250248       -7.0154293232       11.8971928508  WZ3       1539            0.0000000000
     14440      4814  TIP3      OH2            31.7355450248       -4.0283793232        4.6713528508  WZ3       1540            0.0000000000
     14441      4814  TIP3      H1             31.4403850248       -3.2015893232        5.0528328508  WZ3       1540            0.0000000000
     14442      4814  TIP3      H2             31.0325450248       -4.6476893232        4.8674928508  WZ3       1540            0.0000000000
     14443      4815  TIP3      OH2            21.7429350248       -7.7311193232       16.7305328508  WZ3       1541            0.0000000000
     14444      4815  TIP3      H1             21.9657950248       -8.1491593232       17.5622828508  WZ3       1541            0.0000000000
     14445      4815  TIP3      H2             21.1409450248       -8.3436193232       16.3078128508  WZ3       1541            0.0000000000
     14446      4816  TIP3      OH2            28.7594250248       -8.2141293232       18.9435028508  WZ3       1542            0.0000000000
     14447      4816  TIP3      H1             28.4635050248       -8.3798293232       18.0484128508  WZ3       1542            0.0000000000
     14448      4816  TIP3      H2             29.6909450248       -8.4340993232       18.9328928508  WZ3       1542            0.0000000000
     14449      4817  TIP3      OH2            33.3797050248       -2.8409293232       16.8333028508  WZ3       1543            0.0000000000
     14450      4817  TIP3      H1             32.4791350248       -2.6576693232       16.5656928508  WZ3       1543            0.0000000000
     14451      4817  TIP3      H2             33.4138150248       -2.5819993232       17.7541828508  WZ3       1543            0.0000000000
     14452      4818  TIP3      OH2            27.1099050248       -2.6739893232        8.8198328508  WZ3       1545            0.0000000000
     14453      4818  TIP3      H1             27.6371250248       -1.9005493232        8.6197128508  WZ3       1545            0.0000000000
     14454      4818  TIP3      H2             26.2297550248       -2.4490693232        8.5182328508  WZ3       1545            0.0000000000
     14455      4819  TIP3      OH2            22.8646750248       -7.8115793232        3.4070728508  WZ3       1546            0.0000000000
     14456      4819  TIP3      H1             23.4806650248       -7.1848593232        3.7865528508  WZ3       1546            0.0000000000
     14457      4819  TIP3      H2             22.0029350248       -7.4955993232        3.6787228508  WZ3       1546            0.0000000000
     14458      4820  TIP3      OH2            28.5371350248       -5.0109993232        8.3962628508  WZ3       1547            0.0000000000
     14459      4820  TIP3      H1             28.2961350248       -4.0855593232        8.4377928508  WZ3       1547            0.0000000000
     14460      4820  TIP3      H2             27.7964950248       -5.4698693232        8.7926528508  WZ3       1547            0.0000000000
     14461      4821  TIP3      OH2            29.0517950248       -0.8616393232       14.7113728508  WZ3       1548            0.0000000000
     14462      4821  TIP3      H1             29.4142650248       -0.0070793232       14.4778128508  WZ3       1548            0.0000000000
     14463      4821  TIP3      H2             29.5833150248       -1.1534793232       15.4520028508  WZ3       1548            0.0000000000
     14464      4822  TIP3      OH2            27.2202150248        0.0107606768        7.9414828508  WZ3       1549            0.0000000000
     14465      4822  TIP3      H1             26.2702650248        0.1165006768        7.9928128508  WZ3       1549            0.0000000000
     14466      4822  TIP3      H2             27.5720250248        0.8315006768        8.2862328508  WZ3       1549            0.0000000000
     14467      4823  TIP3      OH2            23.3768850248      -12.9778493232       16.2886728508  WZ3       1553            0.0000000000
     14468      4823  TIP3      H1             22.4841150248      -12.6393093232       16.2210728508  WZ3       1553            0.0000000000
     14469      4823  TIP3      H2             23.2781650248      -13.8332393232       16.7067528508  WZ3       1553            0.0000000000
     14470      4824  TIP3      OH2            23.0280850248       -1.1734093232       14.7236128508  WZ3       1555            0.0000000000
     14471      4824  TIP3      H1             23.2451150248       -2.1051693232       14.6925828508  WZ3       1555            0.0000000000
     14472      4824  TIP3      H2             23.2744350248       -0.8989093232       15.6068928508  WZ3       1555            0.0000000000
     14473      4825  TIP3      OH2            28.8895450248       -2.7219093232        1.9328328508  WZ3       1556            0.0000000000
     14474      4825  TIP3      H1             29.1285250248       -3.4700993232        1.3857228508  WZ3       1556            0.0000000000
     14475      4825  TIP3      H2             28.6206750248       -3.1097393232        2.7656128508  WZ3       1556            0.0000000000
     14476      4826  TIP3      OH2            27.8266050248       -3.1515293232        4.3890928508  WZ3       1557            0.0000000000
     14477      4826  TIP3      H1             27.9734050248       -3.6715493232        5.1791828508  WZ3       1557            0.0000000000
     14478      4826  TIP3      H2             27.8237750248       -2.2447693232        4.6956828508  WZ3       1557            0.0000000000
     14479      4827  TIP3      OH2            24.2797150248       -5.8991993232        4.8996328508  WZ3       1558            0.0000000000
     14480      4827  TIP3      H1             23.5936450248       -5.5469493232        5.4666028508  WZ3       1558            0.0000000000
     14481      4827  TIP3      H2             24.8025050248       -5.1362393232        4.6530628508  WZ3       1558            0.0000000000
     14482      4828  TIP3      OH2            30.5643250248       -1.4541693232        5.1385128508  WZ3       1561            0.0000000000
     14483      4828  TIP3      H1             29.7479350248       -0.9571993232        5.1909428508  WZ3       1561            0.0000000000
     14484      4828  TIP3      H2             31.0939550248       -0.9788193232        4.4983928508  WZ3       1561            0.0000000000
     14485      4829  TIP3      OH2            27.9026350248       -0.4104493232        5.1202028508  WZ3       1565            0.0000000000
     14486      4829  TIP3      H1             28.0635050248        0.3893006768        4.6194628508  WZ3       1565            0.0000000000
     14487      4829  TIP3      H2             27.7054150248       -0.1038493232        6.0052628508  WZ3       1565            0.0000000000
     14488      4830  TIP3      OH2            26.6370750248      -13.7125293232        4.7359628508  WZ3       1566            0.0000000000
     14489      4830  TIP3      H1             26.5535550248      -12.8242193232        5.0826028508  WZ3       1566            0.0000000000
     14490      4830  TIP3      H2             27.5271050248      -13.9778593232        4.9676428508  WZ3       1566            0.0000000000
     14491      4831  TIP3      OH2            24.8956050248       -3.2853093232        3.7964128508  WZ3       1568            0.0000000000
     14492      4831  TIP3      H1             25.4877550248       -2.5858293232        4.0726528508  WZ3       1568            0.0000000000
     14493      4831  TIP3      H2             25.3549050248       -3.7183593232        3.0768728508  WZ3       1568            0.0000000000
     14494      4832  TIP3      OH2            23.2115250248      -10.6210093232        2.9123528508  WZ3       1569            0.0000000000
     14495      4832  TIP3      H1             23.1667850248       -9.6816993232        3.0910528508  WZ3       1569            0.0000000000
     14496      4832  TIP3      H2             22.3238450248      -10.8565193232        2.6425628508  WZ3       1569            0.0000000000
     14497      4833  TIP3      OH2            24.0197250248      -15.8393493232       11.5854528508  WZ3       1570            0.0000000000
     14498      4833  TIP3      H1             23.7907050248      -15.7800993232       10.6579528508  WZ3       1570            0.0000000000
     14499      4833  TIP3      H2             23.5770650248      -16.6307993232       11.8918628508  WZ3       1570            0.0000000000
     14500      4834  TIP3      OH2            22.9500550248       -1.8986393232        7.7460328508  WZ3       1571            0.0000000000
     14501      4834  TIP3      H1             22.1179150248       -1.4263693232        7.7731728508  WZ3       1571            0.0000000000
     14502      4834  TIP3      H2             23.4958850248       -1.3888793232        7.1473428508  WZ3       1571            0.0000000000
     14503      4835  TIP3      OH2            22.2384250248        0.7137306768       19.0758328508  WZ3       1572            0.0000000000
     14504      4835  TIP3      H1             22.7786450248        0.4971306768       19.8357528508  WZ3       1572            0.0000000000
     14505      4835  TIP3      H2             21.7572250248       -0.0916693232       18.8860828508  WZ3       1572            0.0000000000
     14506      4836  TIP3      OH2            26.8357650248       -0.3668293232       20.6962528508  WZ3       1573            0.0000000000
     14507      4836  TIP3      H1             27.6034850248       -0.8257493232       21.0371728508  WZ3       1573            0.0000000000
     14508      4836  TIP3      H2             26.8143850248       -0.5928493232       19.7663728508  WZ3       1573            0.0000000000
     14509      4837  TIP3      OH2            30.9277250248       -0.8587693232        2.0714328508  WZ3       1574            0.0000000000
     14510      4837  TIP3      H1             30.2838250248       -1.4899093232        2.3928028508  WZ3       1574            0.0000000000
     14511      4837  TIP3      H2             31.6895550248       -1.3899693232        1.8397828508  WZ3       1574            0.0000000000
     14512      4838  TIP3      OH2            33.4126350248       -1.9867193232       19.4254028508  WZ3       1575            0.0000000000
     14513      4838  TIP3      H1             33.0615850248       -2.8434193232       19.6684428508  WZ3       1575            0.0000000000
     14514      4838  TIP3      H2             34.1389550248       -1.8440493232       20.0323028508  WZ3       1575            0.0000000000
     14515      4839  TIP3      OH2            22.1453750248       -5.4758593232       20.0302628508  WZ3       1577            0.0000000000
     14516      4839  TIP3      H1             22.2894250248       -6.3777893232       19.7439328508  WZ3       1577            0.0000000000
     14517      4839  TIP3      H2             21.3731150248       -5.1896493232       19.5424928508  WZ3       1577            0.0000000000
     14518      4840  TIP3      OH2            26.4867450248       -5.1322893232        2.1627228508  WZ3       1578            0.0000000000
     14519      4840  TIP3      H1             26.5511550248       -5.9263293232        2.6933628508  WZ3       1578            0.0000000000
     14520      4840  TIP3      H2             27.1396650248       -5.2510093232        1.4729228508  WZ3       1578            0.0000000000
     14521      4841  TIP3      OH2            28.8009850248       -5.5060493232       19.4629028508  WZ3       1579            0.0000000000
     14522      4841  TIP3      H1             28.4723650248       -5.2352393232       18.6056428508  WZ3       1579            0.0000000000
     14523      4841  TIP3      H2             28.9528050248       -6.4470693232       19.3754028508  WZ3       1579            0.0000000000
     14524      4842  TIP3      OH2            31.8390850248       -4.0851193232        1.8985228508  WZ3       1580            0.0000000000
     14525      4842  TIP3      H1             31.5704950248       -3.9049093232        2.7994128508  WZ3       1580            0.0000000000
     14526      4842  TIP3      H2             31.6326450248       -5.0104993232        1.7671028508  WZ3       1580            0.0000000000
     14527      4843  TIP3      OH2            22.9780250248       -8.2755293232       19.4501928508  WZ3       1582            0.0000000000
     14528      4843  TIP3      H1             23.3861450248       -9.1328693232       19.3292528508  WZ3       1582            0.0000000000
     14529      4843  TIP3      H2             22.7177850248       -8.2613993232       20.3712228508  WZ3       1582            0.0000000000
     14530      4844  TIP3      OH2            27.6361250248       -7.1596693232        4.4685228508  WZ3       1583            0.0000000000
     14531      4844  TIP3      H1             27.1763250248       -7.6438393232        5.1543728508  WZ3       1583            0.0000000000
     14532      4844  TIP3      H2             27.8909950248       -7.8281293232        3.8325728508  WZ3       1583            0.0000000000
     14533      4845  TIP3      OH2            26.9250550248       -9.2669593232       16.8244828508  WZ3       1584            0.0000000000
     14534      4845  TIP3      H1             26.3066650248       -8.5922993232       17.1049528508  WZ3       1584            0.0000000000
     14535      4845  TIP3      H2             27.2691750248       -8.9455693232       15.9911028508  WZ3       1584            0.0000000000
     14536      4846  TIP3      OH2            28.7071650248       -8.9164893232        2.7308428508  WZ3       1585            0.0000000000
     14537      4846  TIP3      H1             28.5266650248       -9.0713693232        1.8036728508  WZ3       1585            0.0000000000
     14538      4846  TIP3      H2             29.6572150248       -8.8086193232        2.7756328508  WZ3       1585            0.0000000000
     14539      4847  TIP3      OH2            27.2644250248      -11.9118793232       17.9067928508  WZ3       1587            0.0000000000
     14540      4847  TIP3      H1             27.4145150248      -12.6407493232       17.3047628508  WZ3       1587            0.0000000000
     14541      4847  TIP3      H2             27.2666650248      -11.1347093232       17.3480128508  WZ3       1587            0.0000000000
     14542      4848  TIP3      OH2            27.6769950248      -13.5422993232       15.3995328508  WZ3       1588            0.0000000000
     14543      4848  TIP3      H1             28.2127450248      -13.0906293232       14.7474628508  WZ3       1588            0.0000000000
     14544      4848  TIP3      H2             26.8249550248      -13.6503193232       14.9769428508  WZ3       1588            0.0000000000
     14545      4849  TIP3      OH2            29.2588350248       -8.1026793232       15.6390528508  WZ3       1589            0.0000000000
     14546      4849  TIP3      H1             30.0093150248       -8.2589293232       15.0658328508  WZ3       1589            0.0000000000
     14547      4849  TIP3      H2             28.9196650248       -7.2510193232       15.3636028508  WZ3       1589            0.0000000000
     14548      4850  TIP3      OH2            25.7430550248      -10.7135293232       19.8183528508  WZ3       1592            0.0000000000
     14549      4850  TIP3      H1             24.9759550248      -11.2460493232       19.6081128508  WZ3       1592            0.0000000000
     14550      4850  TIP3      H2             26.4219550248      -11.0234893232       19.2189828508  WZ3       1592            0.0000000000
     14551      4851  TIP3      OH2            28.4825450248      -16.0857293232       15.8308928508  WZ3       1593            0.0000000000
     14552      4851  TIP3      H1             28.3845050248      -15.1394093232       15.7255128508  WZ3       1593            0.0000000000
     14553      4851  TIP3      H2             27.7401650248      -16.4583493232       15.3552428508  WZ3       1593            0.0000000000
     14554      4852  TIP3      OH2            29.7465950248      -11.7641893232       19.3947328508  WZ3       1594            0.0000000000
     14555      4852  TIP3      H1             29.5111350248      -11.9835193232       20.2962228508  WZ3       1594            0.0000000000
     14556      4852  TIP3      H2             28.9632850248      -11.9710693232       18.8849828508  WZ3       1594            0.0000000000
     14557      4853  TIP3      OH2            23.9233350248      -12.7931493232       19.5228228508  WZ3       1597            0.0000000000
     14558      4853  TIP3      H1             24.1350750248      -13.4995393232       18.9125728508  WZ3       1597            0.0000000000
     14559      4853  TIP3      H2             23.8120850248      -13.2305493232       20.3669428508  WZ3       1597            0.0000000000
     14560      4854  TIP3      OH2            29.0581050248      -15.1091493232       20.5558028508  WZ3       1599            0.0000000000
     14561      4854  TIP3      H1             28.9263250248      -15.5847693232       19.7356528508  WZ3       1599            0.0000000000
     14562      4854  TIP3      H2             28.4588450248      -14.3647893232       20.5005128508  WZ3       1599            0.0000000000
     14563      4855  TIP3      OH2            28.6043350248        1.7738806768        3.7322028508  WZ3       1600            0.0000000000
     14564      4855  TIP3      H1             29.5374050248        1.9317506768        3.8760428508  WZ3       1600            0.0000000000
     14565      4855  TIP3      H2             28.3402150248        2.4491806768        3.1073528508  WZ3       1600            0.0000000000
     14566      4856  TIP3      OH2            22.1728250248       -3.5897393232        3.2150128508  WZ3       1601            0.0000000000
     14567      4856  TIP3      H1             23.0867450248       -3.5108493232        3.4884028508  WZ3       1601            0.0000000000
     14568      4856  TIP3      H2             22.1801350248       -4.2767793232        2.5485728508  WZ3       1601            0.0000000000
     14569      4857  TIP3      OH2            20.8218850248        1.8031106768        8.2924028508  WZ3       1602            0.0000000000
     14570      4857  TIP3      H1             20.1745950248        1.3412806768        7.7595228508  WZ3       1602            0.0000000000
     14571      4857  TIP3      H2             21.1763450248        1.1314406768        8.8750228508  WZ3       1602            0.0000000000
     14572      4858  TIP3      OH2            21.6918050248       -0.1161893232       10.0970228508  WZ3       1603            0.0000000000
     14573      4858  TIP3      H1             21.3574850248       -0.9964593232       10.2690428508  WZ3       1603            0.0000000000
     14574      4858  TIP3      H2             21.9140450248        0.2293106768       10.9615828508  WZ3       1603            0.0000000000
     14575      4859  TIP3      OH2            21.7717550248       -7.0406493232       12.5485128508  WZ3       1604            0.0000000000
     14576      4859  TIP3      H1             21.9560450248       -7.1224793232       11.6128028508  WZ3       1604            0.0000000000
     14577      4859  TIP3      H2             22.6210450248       -7.1649493232       12.9721528508  WZ3       1604            0.0000000000
     14578      4860  TIP3      OH2            21.3692350248      -11.7701493232       18.6893928508  WZ3       1605            0.0000000000
     14579      4860  TIP3      H1             22.2887250248      -11.8923193232       18.9257028508  WZ3       1605            0.0000000000
     14580      4860  TIP3      H2             20.9196850248      -12.5201793232       19.0787428508  WZ3       1605            0.0000000000
     14581      4861  TIP3      OH2            22.5904850248      -13.4579893232       11.5806828508  WZ3       1606            0.0000000000
     14582      4861  TIP3      H1             23.0356450248      -14.2497393232       11.8826528508  WZ3       1606            0.0000000000
     14583      4861  TIP3      H2             23.0567850248      -12.7414693232       12.0112428508  WZ3       1606            0.0000000000
     14584      4862  TIP3      OH2            20.8945150248      -10.4586893232       12.6497028508  WZ3       1607            0.0000000000
     14585      4862  TIP3      H1             21.3864950248      -10.6796393232       11.8589028508  WZ3       1607            0.0000000000
     14586      4862  TIP3      H2             21.2566050248       -9.6183493232       12.9306528508  WZ3       1607            0.0000000000
     14587      4863  TIP3      OH2            21.2081650248      -14.2007793232        6.7039428508  WZ3       1608            0.0000000000
     14588      4863  TIP3      H1             20.2830050248      -13.9921193232        6.5744928508  WZ3       1608            0.0000000000
     14589      4863  TIP3      H2             21.6621550248      -13.7166993232        6.0141728508  WZ3       1608            0.0000000000
     14590      4864  TIP3      OH2            21.1717050248      -15.4628793232       15.0481928508  WZ3       1609            0.0000000000
     14591      4864  TIP3      H1             20.5067550248      -15.7088493232       15.6912828508  WZ3       1609            0.0000000000
     14592      4864  TIP3      H2             20.7288350248      -14.8408393232       14.4709928508  WZ3       1609            0.0000000000
     14593      4865  TIP3      OH2            23.3636350248       -2.2874693232       19.1927728508  WZ3       1610            0.0000000000
     14594      4865  TIP3      H1             22.5428850248       -2.1128193232       18.7322428508  WZ3       1610            0.0000000000
     14595      4865  TIP3      H2             23.1114150248       -2.3609993232       20.1132128508  WZ3       1610            0.0000000000
     14596      4866  TIP3      OH2            26.3179250248       -1.3133493232       15.4511728508  WZ3       1611            0.0000000000
     14597      4866  TIP3      H1             25.8930350248       -0.5034993232       15.1686328508  WZ3       1611            0.0000000000
     14598      4866  TIP3      H2             27.2222050248       -1.2279393232       15.1491528508  WZ3       1611            0.0000000000
     14599      4867  TIP3      OH2            30.6290650248        0.0856506768       18.4105428508  WZ3       1612            0.0000000000
     14600      4867  TIP3      H1             30.8138150248       -0.2477393232       19.2885728508  WZ3       1612            0.0000000000
     14601      4867  TIP3      H2             31.4755150248        0.3955106768       18.0884628508  WZ3       1612            0.0000000000
     14602      4868  TIP3      OH2            32.9741050248        1.3715406768       17.6546828508  WZ3       1613            0.0000000000
     14603      4868  TIP3      H1             33.6509950248        0.7387706768       17.4146028508  WZ3       1613            0.0000000000
     14604      4868  TIP3      H2             33.2959850248        1.7725906768       18.4620128508  WZ3       1613            0.0000000000
     14605      4869  TIP3      OH2            23.7195950248        1.9430406768       15.4987028508  WZ3       1614            0.0000000000
     14606      4869  TIP3      H1             22.9992350248        2.3831406768       15.0474728508  WZ3       1614            0.0000000000
     14607      4869  TIP3      H2             23.3539950248        1.6925106768       16.3471028508  WZ3       1614            0.0000000000
     14608      4870  TIP3      OH2            26.1868550248        1.5434306768       14.5284228508  WZ3       1615            0.0000000000
     14609      4870  TIP3      H1             25.3220750248        1.6152806768       14.9324328508  WZ3       1615            0.0000000000
     14610      4870  TIP3      H2             26.1317550248        2.0901606768       13.7446728508  WZ3       1615            0.0000000000
     14611      4871  TIP3      OH2            30.8974150248        1.4313206768       13.7040228508  WZ3       1616            0.0000000000
     14612      4871  TIP3      H1             30.4408150248        1.9602906768       13.0498628508  WZ3       1616            0.0000000000
     14613      4871  TIP3      H2             31.0602150248        2.0344606768       14.4292528508  WZ3       1616            0.0000000000
     14614      4872  TIP3      OH2            33.2250450248        0.3092806768       14.6490528508  WZ3       1617            0.0000000000
     14615      4872  TIP3      H1             32.3204150248        0.4743006768       14.3832628508  WZ3       1617            0.0000000000
     14616      4872  TIP3      H2             33.6539050248        1.1625006768       14.5833928508  WZ3       1617            0.0000000000
     14617      4873  TIP3      OH2            23.1344050248        0.5662906768       12.4088828508  WZ3       1618            0.0000000000
     14618      4873  TIP3      H1             23.1160050248        0.1408006768       13.2661128508  WZ3       1618            0.0000000000
     14619      4873  TIP3      H2             23.9391950248        0.2477906768       12.0001028508  WZ3       1618            0.0000000000
     14620      4874  TIP3      OH2            25.2757150248       -0.7238393232       11.0638728508  WZ3       1619            0.0000000000
     14621      4874  TIP3      H1             25.0567850248       -1.6400993232       11.2334728508  WZ3       1619            0.0000000000
     14622      4874  TIP3      H2             26.0999350248       -0.5837993232       11.5300128508  WZ3       1619            0.0000000000
     14623      4875  TIP3      OH2            27.8129650248       -0.2539093232       11.9126728508  WZ3       1620            0.0000000000
     14624      4875  TIP3      H1             28.0255350248       -1.1420093232       11.6257628508  WZ3       1620            0.0000000000
     14625      4875  TIP3      H2             27.8774750248       -0.2881393232       12.8670728508  WZ3       1620            0.0000000000
     14626      4876  TIP3      OH2            23.6480850248      -15.9558193232        8.8789928508  WZ3       1622            0.0000000000
     14627      4876  TIP3      H1             22.8710650248      -16.1903293232        8.3715828508  WZ3       1622            0.0000000000
     14628      4876  TIP3      H2             24.1784450248      -16.7526093232        8.8877928508  WZ3       1622            0.0000000000
     14629      4877  TIP3      OH2            22.4844250248      -16.1580093232        4.6826028508  WZ3       1623            0.0000000000
     14630      4877  TIP3      H1             22.9234950248      -15.5469593232        4.0909528508  WZ3       1623            0.0000000000
     14631      4877  TIP3      H2             21.8506650248      -15.6195993232        5.1566028508  WZ3       1623            0.0000000000
     14632      4878  TIP3      OH2            28.2273450248      -16.0291093232        8.6923028508  WZ3       1624            0.0000000000
     14633      4878  TIP3      H1             29.1016850248      -15.6406793232        8.6627328508  WZ3       1624            0.0000000000
     14634      4878  TIP3      H2             28.0914250248      -16.2443293232        9.6150228508  WZ3       1624            0.0000000000
     14635      4879  TIP3      OH2            22.3853750248       -0.2097893232        5.5801128508  WZ3       1627            0.0000000000
     14636      4879  TIP3      H1             21.7003650248       -0.2478993232        4.9126228508  WZ3       1627            0.0000000000
     14637      4879  TIP3      H2             22.3890950248        0.7029706768        5.8683228508  WZ3       1627            0.0000000000
     14638      4880  TIP3      OH2            24.3453350248      -14.2418593232        3.1250128508  WZ3       1628            0.0000000000
     14639      4880  TIP3      H1             24.8366750248      -14.8716193232        2.5975628508  WZ3       1628            0.0000000000
     14640      4880  TIP3      H2             24.9689650248      -13.9459193232        3.7881328508  WZ3       1628            0.0000000000
     14641      4881  TIP3      OH2            29.3713450248      -13.9487093232        5.5820628508  WZ3       1629            0.0000000000
     14642      4881  TIP3      H1             29.5494750248      -14.5953893232        6.2649228508  WZ3       1629            0.0000000000
     14643      4881  TIP3      H2             29.3179650248      -13.1149393232        6.0491728508  WZ3       1629            0.0000000000
     14644      4882  TIP3      OH2            31.2497250248        0.9997006768        3.9777328508  WZ3       1630            0.0000000000
     14645      4882  TIP3      H1             32.1157450248        1.3664406768        3.7995528508  WZ3       1630            0.0000000000
     14646      4882  TIP3      H2             31.0030050248        0.5605006768        3.1638128508  WZ3       1630            0.0000000000
     14647      4883  TIP3      OH2            23.6058850248      -15.4416293232       18.3966128508  WZ3       1631            0.0000000000
     14648      4883  TIP3      H1             23.2397050248      -16.2073693232       18.8390828508  WZ3       1631            0.0000000000
     14649      4883  TIP3      H2             24.5187350248      -15.4126093232       18.6831228508  WZ3       1631            0.0000000000
     14650      4884  TIP3      OH2            25.5789650248      -16.0911893232       19.9323228508  WZ3       1632            0.0000000000
     14651      4884  TIP3      H1             26.4773250248      -16.3651693232       19.7476628508  WZ3       1632            0.0000000000
     14652      4884  TIP3      H2             25.1922750248      -16.8335893232       20.3965828508  WZ3       1632            0.0000000000
     14653      4885  TIP3      OH2            24.2034950248        0.7102906768        2.6053228508  WZ3       1633            0.0000000000
     14654      4885  TIP3      H1             23.9359550248        0.9965806768        3.4786328508  WZ3       1633            0.0000000000
     14655      4885  TIP3      H2             24.9747550248        0.1642106768        2.7575728508  WZ3       1633            0.0000000000
     14656      4886  TIP3      OH2           -23.8416549752       12.0564106768        8.8377428508  WZ3       1635            0.0000000000
     14657      4886  TIP3      H1            -23.7525449752       13.0002306768        8.7054528508  WZ3       1635            0.0000000000
     14658      4886  TIP3      H2            -24.4798949752       11.7810506768        8.1796828508  WZ3       1635            0.0000000000
     14659      4887  TIP3      OH2           -24.9085249752       11.3114806768       12.2565628508  WZ3       1636            0.0000000000
     14660      4887  TIP3      H1            -24.9467749752       10.6651106768       12.9615228508  WZ3       1636            0.0000000000
     14661      4887  TIP3      H2            -25.2308749752       10.8449206768       11.4854328508  WZ3       1636            0.0000000000
     14662      4888  TIP3      OH2           -21.2025049752       14.2505206768       10.5580728508  WZ3       1638            0.0000000000
     14663      4888  TIP3      H1            -21.6432349752       13.5301206768       11.0086328508  WZ3       1638            0.0000000000
     14664      4888  TIP3      H2            -21.2155349752       14.9712406768       11.1878428508  WZ3       1638            0.0000000000
     14665      4889  TIP3      OH2           -24.0909549752       19.3546906768       10.7701128508  WZ3       1642            0.0000000000
     14666      4889  TIP3      H1            -23.4713149752       18.6781606768       10.4970328508  WZ3       1642            0.0000000000
     14667      4889  TIP3      H2            -24.2992149752       19.1367706768       11.6786028508  WZ3       1642            0.0000000000
     14668      4890  TIP3      OH2           -26.5190849752       13.7436206768       12.6626628508  WZ3       1643            0.0000000000
     14669      4890  TIP3      H1            -26.2152949752       13.0577606768       12.0680728508  WZ3       1643            0.0000000000
     14670      4890  TIP3      H2            -25.7976849752       13.8624906768       13.2804628508  WZ3       1643            0.0000000000
     14671      4891  TIP3      OH2           -17.8561049752        5.3451506768       13.5232828508  WZ3       1644            0.0000000000
     14672      4891  TIP3      H1            -17.8068849752        5.9552706768       14.2591928508  WZ3       1644            0.0000000000
     14673      4891  TIP3      H2            -17.4305949752        5.8062406768       12.8003928508  WZ3       1644            0.0000000000
     14674      4892  TIP3      OH2           -23.3783849752        8.1378606768       12.9901428508  WZ3       1645            0.0000000000
     14675      4892  TIP3      H1            -23.2357949752        7.1915606768       13.0103028508  WZ3       1645            0.0000000000
     14676      4892  TIP3      H2            -23.4844849752        8.3448406768       12.0616328508  WZ3       1645            0.0000000000
     14677      4893  TIP3      OH2           -30.2235549752        6.2395006768       10.2626228508  WZ3       1646            0.0000000000
     14678      4893  TIP3      H1            -30.1804449752        7.0993506768        9.8442528508  WZ3       1646            0.0000000000
     14679      4893  TIP3      H2            -30.6811449752        5.6869706768        9.6289428508  WZ3       1646            0.0000000000
     14680      4894  TIP3      OH2           -22.5012849752        6.3700606768        8.6634528508  WZ3       1647            0.0000000000
     14681      4894  TIP3      H1            -21.8548549752        6.0413806768        9.2882128508  WZ3       1647            0.0000000000
     14682      4894  TIP3      H2            -21.9913449752        6.8879606768        8.0405928508  WZ3       1647            0.0000000000
     14683      4895  TIP3      OH2           -28.4469549752       10.1862106768       10.2399128508  WZ3       1649            0.0000000000
     14684      4895  TIP3      H1            -27.8308549752        9.6597506768       10.7493128508  WZ3       1649            0.0000000000
     14685      4895  TIP3      H2            -29.0330749752        9.5460806768        9.8362728508  WZ3       1649            0.0000000000
     14686      4896  TIP3      OH2           -17.4646449752        6.8230706768       15.7592628508  WZ3       1650            0.0000000000
     14687      4896  TIP3      H1            -18.1531849752        7.4811406768       15.6639228508  WZ3       1650            0.0000000000
     14688      4896  TIP3      H2            -17.4491849752        6.6258606768       16.6958028508  WZ3       1650            0.0000000000
     14689      4897  TIP3      OH2           -31.4133649752        5.1573406768       14.3367028508  WZ3       1651            0.0000000000
     14690      4897  TIP3      H1            -31.6321949752        5.6874006768       13.5703028508  WZ3       1651            0.0000000000
     14691      4897  TIP3      H2            -32.0812749752        5.3838906768       14.9838428508  WZ3       1651            0.0000000000
     14692      4898  TIP3      OH2           -24.0443849752       14.6574506768        7.8806128508  WZ3       1652            0.0000000000
     14693      4898  TIP3      H1            -24.3398749752       14.3346806768        7.0293028508  WZ3       1652            0.0000000000
     14694      4898  TIP3      H2            -24.3686049752       15.5571206768        7.9218728508  WZ3       1652            0.0000000000
     14695      4899  TIP3      OH2           -28.8442249752       12.8329106768       14.6240728508  WZ3       1653            0.0000000000
     14696      4899  TIP3      H1            -29.5843149752       13.4310606768       14.7275928508  WZ3       1653            0.0000000000
     14697      4899  TIP3      H2            -28.1302749752       13.3868706768       14.3084328508  WZ3       1653            0.0000000000
     14698      4900  TIP3      OH2           -20.7374449752        5.6609906768       10.6440428508  WZ3       1654            0.0000000000
     14699      4900  TIP3      H1            -20.9526449752        4.8953306768       11.1766428508  WZ3       1654            0.0000000000
     14700      4900  TIP3      H2            -20.0817049752        6.1334506768       11.1568928508  WZ3       1654            0.0000000000
     14701      4901  TIP3      OH2           -31.8196349752        7.0495206768       12.2889228508  WZ3       1655            0.0000000000
     14702      4901  TIP3      H1            -31.2060049752        7.6822806768       12.6621628508  WZ3       1655            0.0000000000
     14703      4901  TIP3      H2            -31.3075649752        6.5770206768       11.6326128508  WZ3       1655            0.0000000000
     14704      4902  TIP3      OH2           -20.6907349752       16.0895906768       12.9060028508  WZ3       1658            0.0000000000
     14705      4902  TIP3      H1            -21.6323649752       16.1479806768       13.0676928508  WZ3       1658            0.0000000000
     14706      4902  TIP3      H2            -20.4141249752       16.9956406768       12.7689728508  WZ3       1658            0.0000000000
     14707      4903  TIP3      OH2           -20.3900349752        4.3761206768       14.3233928508  WZ3       1659            0.0000000000
     14708      4903  TIP3      H1            -21.1261149752        4.9868306768       14.2855228508  WZ3       1659            0.0000000000
     14709      4903  TIP3      H2            -19.7066349752        4.7910206768       13.7970328508  WZ3       1659            0.0000000000
     14710      4904  TIP3      OH2           -27.3868949752        2.4628506768       11.7891928508  WZ3       1660            0.0000000000
     14711      4904  TIP3      H1            -27.5044749752        1.5144506768       11.7350228508  WZ3       1660            0.0000000000
     14712      4904  TIP3      H2            -28.2418849752        2.7954606768       12.0623028508  WZ3       1660            0.0000000000
     14713      4905  TIP3      OH2           -22.4386149752       17.8709406768        9.5311628508  WZ3       1661            0.0000000000
     14714      4905  TIP3      H1            -22.0133849752       17.1637306768        9.0461228508  WZ3       1661            0.0000000000
     14715      4905  TIP3      H2            -22.1216149752       18.6722106768        9.1143828508  WZ3       1661            0.0000000000
     14716      4906  TIP3      OH2           -21.2789649752       15.7717906768        8.0398228508  WZ3       1662            0.0000000000
     14717      4906  TIP3      H1            -21.5364849752       15.0818006768        7.4284128508  WZ3       1662            0.0000000000
     14718      4906  TIP3      H2            -21.2078849752       15.3289106768        8.8854128508  WZ3       1662            0.0000000000
     14719      4907  TIP3      OH2           -19.5929449752       14.3384606768       16.5171728508  WZ3       1663            0.0000000000
     14720      4907  TIP3      H1            -19.4533149752       13.7467106768       15.7778728508  WZ3       1663            0.0000000000
     14721      4907  TIP3      H2            -19.4256649752       15.2110506768       16.1610528508  WZ3       1663            0.0000000000
     14722      4908  TIP3      OH2           -25.1204049752       11.3004106768        6.2897728508  WZ3       1664            0.0000000000
     14723      4908  TIP3      H1            -25.8318549752       11.8353806768        5.9378228508  WZ3       1664            0.0000000000
     14724      4908  TIP3      H2            -24.4294449752       11.3556206768        5.6296628508  WZ3       1664            0.0000000000
     14725      4909  TIP3      OH2           -25.0664849752        9.7578406768        3.3282728508  WZ3       1665            0.0000000000
     14726      4909  TIP3      H1            -24.3654949752        9.7805306768        3.9796728508  WZ3       1665            0.0000000000
     14727      4909  TIP3      H2            -24.7641949752        9.1298106768        2.6722028508  WZ3       1665            0.0000000000
     14728      4910  TIP3      OH2           -17.7510149752       10.6782606768       14.5832128508  WZ3       1666            0.0000000000
     14729      4910  TIP3      H1            -18.4036049752       11.3728206768       14.6723028508  WZ3       1666            0.0000000000
     14730      4910  TIP3      H2            -17.2859849752       10.8883506768       13.7733728508  WZ3       1666            0.0000000000
     14731      4911  TIP3      OH2           -21.7146349752       11.5097406768        7.2413628508  WZ3       1667            0.0000000000
     14732      4911  TIP3      H1            -22.4465349752       11.7381106768        7.8144228508  WZ3       1667            0.0000000000
     14733      4911  TIP3      H2            -21.2674149752       10.7960106768        7.6961128508  WZ3       1667            0.0000000000
     14734      4912  TIP3      OH2           -21.8172849752        9.6840006768       16.3090628508  WZ3       1668            0.0000000000
     14735      4912  TIP3      H1            -21.7373749752       10.4474406768       16.8809128508  WZ3       1668            0.0000000000
     14736      4912  TIP3      H2            -22.4185149752        9.9632406768       15.6185728508  WZ3       1668            0.0000000000
     14737      4913  TIP3      OH2           -30.0692649752       12.1403606768        9.1238628508  WZ3       1669            0.0000000000
     14738      4913  TIP3      H1            -30.3997449752       11.7697006768        8.3055628508  WZ3       1669            0.0000000000
     14739      4913  TIP3      H2            -29.4808549752       11.4697606768        9.4706928508  WZ3       1669            0.0000000000
     14740      4914  TIP3      OH2           -28.7025149752       15.5684206768       11.8050828508  WZ3       1670            0.0000000000
     14741      4914  TIP3      H1            -28.7973849752       14.9897306768       11.0485428508  WZ3       1670            0.0000000000
     14742      4914  TIP3      H2            -27.9731549752       15.1969906768       12.3013628508  WZ3       1670            0.0000000000
     14743      4915  TIP3      OH2           -29.7027149752       10.9089206768       12.7573628508  WZ3       1671            0.0000000000
     14744      4915  TIP3      H1            -29.1374649752       11.0303406768       11.9944828508  WZ3       1671            0.0000000000
     14745      4915  TIP3      H2            -29.3838249752       11.5464206768       13.3962128508  WZ3       1671            0.0000000000
     14746      4916  TIP3      OH2           -23.3934949752       16.4121106768       13.4914128508  WZ3       1672            0.0000000000
     14747      4916  TIP3      H1            -23.6338349752       17.0744206768       14.1393328508  WZ3       1672            0.0000000000
     14748      4916  TIP3      H2            -23.5916749752       15.5776306768       13.9163728508  WZ3       1672            0.0000000000
     14749      4917  TIP3      OH2           -22.8436849752       10.6720306768        4.9264828508  WZ3       1674            0.0000000000
     14750      4917  TIP3      H1            -22.2641349752       10.8220606768        5.6733728508  WZ3       1674            0.0000000000
     14751      4917  TIP3      H2            -22.4296849752       11.1427706768        4.2031228508  WZ3       1674            0.0000000000
     14752      4918  TIP3      OH2           -25.1171949752       17.4088806768        8.3617928508  WZ3       1676            0.0000000000
     14753      4918  TIP3      H1            -24.6434349752       17.7045106768        9.1392128508  WZ3       1676            0.0000000000
     14754      4918  TIP3      H2            -25.6802649752       18.1470406768        8.1287528508  WZ3       1676            0.0000000000
     14755      4919  TIP3      OH2           -19.1448449752        2.4220706768        4.7394528508  WZ3       1678            0.0000000000
     14756      4919  TIP3      H1            -20.0447749752        2.5609706768        5.0345128508  WZ3       1678            0.0000000000
     14757      4919  TIP3      H2            -18.8930049752        3.2535306768        4.3376228508  WZ3       1678            0.0000000000
     14758      4920  TIP3      OH2           -17.9557049752       16.7883106768        3.1158428508  WZ3       1680            0.0000000000
     14759      4920  TIP3      H1            -17.8823549752       17.7273306768        3.2863728508  WZ3       1680            0.0000000000
     14760      4920  TIP3      H2            -17.0501949752       16.4831706768        3.0595728508  WZ3       1680            0.0000000000
     14761      4921  TIP3      OH2           -17.0378649752       17.0190606768       18.0945128508  WZ3       1683            0.0000000000
     14762      4921  TIP3      H1            -17.0871849752       16.0638706768       18.0572728508  WZ3       1683            0.0000000000
     14763      4921  TIP3      H2            -17.8646349752       17.2865906768       18.4958928508  WZ3       1683            0.0000000000
     14764      4922  TIP3      OH2           -26.0594649752       16.5929806768       16.9706528508  WZ3       1684            0.0000000000
     14765      4922  TIP3      H1            -25.9720049752       17.4194406768       17.4455628508  WZ3       1684            0.0000000000
     14766      4922  TIP3      H2            -26.9229549752       16.2633606768       17.2195828508  WZ3       1684            0.0000000000
     14767      4923  TIP3      OH2           -25.6448849752       20.3653506768        6.7767128508  WZ3       1685            0.0000000000
     14768      4923  TIP3      H1            -25.7202849752       20.2440706768        5.8302328508  WZ3       1685            0.0000000000
     14769      4923  TIP3      H2            -25.6120149752       21.3146206768        6.8951728508  WZ3       1685            0.0000000000
     14770      4924  TIP3      OH2           -22.5432849752       19.5193706768        3.7789528508  WZ3       1687            0.0000000000
     14771      4924  TIP3      H1            -22.1684449752       18.7749806768        3.3082128508  WZ3       1687            0.0000000000
     14772      4924  TIP3      H2            -22.5389149752       19.2494306768        4.6972828508  WZ3       1687            0.0000000000
     14773      4925  TIP3      OH2           -22.8744749752       19.4450806768        6.5281728508  WZ3       1688            0.0000000000
     14774      4925  TIP3      H1            -23.8094949752       19.5452706768        6.7068728508  WZ3       1688            0.0000000000
     14775      4925  TIP3      H2            -22.5942849752       18.7356806768        7.1064928508  WZ3       1688            0.0000000000
     14776      4926  TIP3      OH2           -19.8858849752        8.5123106768       18.5747328508  WZ3       1689            0.0000000000
     14777      4926  TIP3      H1            -20.2932049752        8.9928706768       17.8540628508  WZ3       1689            0.0000000000
     14778      4926  TIP3      H2            -19.8453149752        7.6069106768       18.2668128508  WZ3       1689            0.0000000000
     14779      4927  TIP3      OH2           -30.1181349752        3.3663006768       12.5668228508  WZ3       1691            0.0000000000
     14780      4927  TIP3      H1            -30.9797649752        3.2791206768       12.1591128508  WZ3       1691            0.0000000000
     14781      4927  TIP3      H2            -30.1405649752        4.2223106768       12.9945828508  WZ3       1691            0.0000000000
     14782      4928  TIP3      OH2           -25.4553549752        3.0883406768       15.9415228508  WZ3       1692            0.0000000000
     14783      4928  TIP3      H1            -25.0350449752        2.6730506768       16.6945828508  WZ3       1692            0.0000000000
     14784      4928  TIP3      H2            -26.3883949752        2.9096706768       16.0587228508  WZ3       1692            0.0000000000
     14785      4929  TIP3      OH2           -22.1288649752        6.8438606768       16.7949728508  WZ3       1693            0.0000000000
     14786      4929  TIP3      H1            -22.6429149752        6.7180806768       17.5925728508  WZ3       1693            0.0000000000
     14787      4929  TIP3      H2            -22.2843949752        7.7561706768       16.5505928508  WZ3       1693            0.0000000000
     14788      4930  TIP3      OH2           -21.3663749752       11.7048606768        2.5562728508  WZ3       1694            0.0000000000
     14789      4930  TIP3      H1            -21.3242949752       11.4822506768        1.6262728508  WZ3       1694            0.0000000000
     14790      4930  TIP3      H2            -20.5171649752       12.1035706768        2.7462628508  WZ3       1694            0.0000000000
     14791      4931  TIP3      OH2           -25.7936249752        5.5806806768        3.2266028508  WZ3       1695            0.0000000000
     14792      4931  TIP3      H1            -26.0471449752        5.5998406768        4.1494128508  WZ3       1695            0.0000000000
     14793      4931  TIP3      H2            -26.0504149752        4.7092206768        2.9252228508  WZ3       1695            0.0000000000
     14794      4932  TIP3      OH2           -30.0271249752        8.3317506768       13.6618428508  WZ3       1696            0.0000000000
     14795      4932  TIP3      H1            -30.6689149752        8.2914806768       14.3708528508  WZ3       1696            0.0000000000
     14796      4932  TIP3      H2            -29.9899249752        9.2582206768       13.4241428508  WZ3       1696            0.0000000000
     14797      4933  TIP3      OH2           -30.0302149752        8.5527606768        8.5738428508  WZ3       1697            0.0000000000
     14798      4933  TIP3      H1            -30.9229249752        8.2123706768        8.5152228508  WZ3       1697            0.0000000000
     14799      4933  TIP3      H2            -29.5795549752        8.1758506768        7.8181628508  WZ3       1697            0.0000000000
     14800      4934  TIP3      OH2           -24.4946649752        8.9687906768        7.3909228508  WZ3       1698            0.0000000000
     14801      4934  TIP3      H1            -24.9036349752        9.7836506768        7.0994028508  WZ3       1698            0.0000000000
     14802      4934  TIP3      H2            -23.7740449752        8.8288006768        6.7766328508  WZ3       1698            0.0000000000
     14803      4935  TIP3      OH2           -25.3925049752        9.1444306768       18.8789928508  WZ3       1699            0.0000000000
     14804      4935  TIP3      H1            -25.9551249752        8.4395906768       19.1997728508  WZ3       1699            0.0000000000
     14805      4935  TIP3      H2            -24.5661649752        9.0236206768       19.3467528508  WZ3       1699            0.0000000000
     14806      4936  TIP3      OH2           -23.4898949752        8.4148306768       10.2048928508  WZ3       1700            0.0000000000
     14807      4936  TIP3      H1            -23.6854449752        9.0205106768        9.4899528508  WZ3       1700            0.0000000000
     14808      4936  TIP3      H2            -23.3086349752        7.5813506768        9.7705228508  WZ3       1700            0.0000000000
     14809      4937  TIP3      OH2           -28.9113349752        6.0263306768        2.3276428508  WZ3       1702            0.0000000000
     14810      4937  TIP3      H1            -29.3422649752        5.5813406768        3.0573828508  WZ3       1702            0.0000000000
     14811      4937  TIP3      H2            -29.6294649752        6.3979606768        1.8153928508  WZ3       1702            0.0000000000
     14812      4938  TIP3      OH2           -24.2259749752       10.0529606768       14.8761328508  WZ3       1705            0.0000000000
     14813      4938  TIP3      H1            -23.9024949752        9.4219306768       14.2331828508  WZ3       1705            0.0000000000
     14814      4938  TIP3      H2            -24.6660449752        9.5181806768       15.5368728508  WZ3       1705            0.0000000000
     14815      4939  TIP3      OH2           -27.4486849752        5.9805106768        9.6602528508  WZ3       1706            0.0000000000
     14816      4939  TIP3      H1            -28.3595749752        6.0371906768        9.9488528508  WZ3       1706            0.0000000000
     14817      4939  TIP3      H2            -26.9433949752        5.9200606768       10.4709728508  WZ3       1706            0.0000000000
     14818      4940  TIP3      OH2           -28.9671649752        7.6094006768        6.1434728508  WZ3       1708            0.0000000000
     14819      4940  TIP3      H1            -28.0356149752        7.7384006768        6.3217828508  WZ3       1708            0.0000000000
     14820      4940  TIP3      H2            -29.1821349752        8.2788306768        5.4939428508  WZ3       1708            0.0000000000
     14821      4941  TIP3      OH2           -23.0434949752        5.2151406768       12.9244328508  WZ3       1709            0.0000000000
     14822      4941  TIP3      H1            -23.7203349752        5.3464506768       13.5884028508  WZ3       1709            0.0000000000
     14823      4941  TIP3      H2            -23.5290049752        5.0600906768       12.1142028508  WZ3       1709            0.0000000000
     14824      4942  TIP3      OH2           -30.2931449752        8.8036206768        3.7100828508  WZ3       1710            0.0000000000
     14825      4942  TIP3      H1            -30.8356349752        8.4240006768        3.0188428508  WZ3       1710            0.0000000000
     14826      4942  TIP3      H2            -29.4596549752        8.9980906768        3.2814928508  WZ3       1710            0.0000000000
     14827      4943  TIP3      OH2           -19.7559849752       20.8866806768       19.2011928508  WZ3       1711            0.0000000000
     14828      4943  TIP3      H1            -19.5561149752       21.3108706768       18.3667228508  WZ3       1711            0.0000000000
     14829      4943  TIP3      H2            -19.1006149752       21.2305006768       19.8082328508  WZ3       1711            0.0000000000
     14830      4944  TIP3      OH2           -26.1287149752        8.7678106768       11.5472128508  WZ3       1713            0.0000000000
     14831      4944  TIP3      H1            -25.5643749752        8.2214706768       11.0001728508  WZ3       1713            0.0000000000
     14832      4944  TIP3      H2            -26.2763749752        8.2460006768       12.3359728508  WZ3       1713            0.0000000000
     14833      4945  TIP3      OH2           -31.1267449752        4.9044206768        7.9656928508  WZ3       1714            0.0000000000
     14834      4945  TIP3      H1            -31.4437949752        4.0019506768        7.9302328508  WZ3       1714            0.0000000000
     14835      4945  TIP3      H2            -30.3453349752        4.9061606768        7.4128528508  WZ3       1714            0.0000000000
     14836      4946  TIP3      OH2           -27.5021249752        7.1564206768       13.9612528508  WZ3       1715            0.0000000000
     14837      4946  TIP3      H1            -28.3375949752        7.6103706768       14.0714928508  WZ3       1715            0.0000000000
     14838      4946  TIP3      H2            -26.9780649752        7.4322706768       14.7132428508  WZ3       1715            0.0000000000
     14839      4947  TIP3      OH2           -26.9578649752       13.3691906768        5.6458928508  WZ3       1716            0.0000000000
     14840      4947  TIP3      H1            -27.7027649752       12.8617206768        5.3236828508  WZ3       1716            0.0000000000
     14841      4947  TIP3      H2            -27.0921449752       13.4179906768        6.5923728508  WZ3       1716            0.0000000000
     14842      4948  TIP3      OH2           -19.8079749752       12.5020106768       14.4326528508  WZ3       1717            0.0000000000
     14843      4948  TIP3      H1            -19.1660949752       12.9586406768       13.8888728508  WZ3       1717            0.0000000000
     14844      4948  TIP3      H2            -20.6382849752       12.6152506768       13.9700628508  WZ3       1717            0.0000000000
     14845      4949  TIP3      OH2           -23.0601849752        6.1831806768        3.8451528508  WZ3       1718            0.0000000000
     14846      4949  TIP3      H1            -23.9987649752        6.2947406768        3.6940328508  WZ3       1718            0.0000000000
     14847      4949  TIP3      H2            -22.7629749752        7.0398706768        4.1517228508  WZ3       1718            0.0000000000
     14848      4950  TIP3      OH2           -25.4386549752       13.5535206768       16.8828028508  WZ3       1719            0.0000000000
     14849      4950  TIP3      H1            -25.7840449752       13.1717606768       17.6897628508  WZ3       1719            0.0000000000
     14850      4950  TIP3      H2            -25.6386449752       14.4868806768       16.9540928508  WZ3       1719            0.0000000000
     14851      4951  TIP3      OH2           -22.3418349752        8.0504506768        5.5058928508  WZ3       1720            0.0000000000
     14852      4951  TIP3      H1            -21.4499349752        7.9129506768        5.8250128508  WZ3       1720            0.0000000000
     14853      4951  TIP3      H2            -22.2854749752        8.8410606768        4.9692428508  WZ3       1720            0.0000000000
     14854      4952  TIP3      OH2           -24.8324549752       14.8276206768        4.6713528508  WZ3       1722            0.0000000000
     14855      4952  TIP3      H1            -25.1276149752       15.6544106768        5.0528328508  WZ3       1722            0.0000000000
     14856      4952  TIP3      H2            -25.5354549752       14.2083106768        4.8674928508  WZ3       1722            0.0000000000
     14857      4953  TIP3      OH2           -27.8085749752       10.6418706768       18.9435028508  WZ3       1724            0.0000000000
     14858      4953  TIP3      H1            -28.1044949752       10.4761706768       18.0484128508  WZ3       1724            0.0000000000
     14859      4953  TIP3      H2            -26.8770549752       10.4219006768       18.9328928508  WZ3       1724            0.0000000000
     14860      4954  TIP3      OH2           -23.1882949752       16.0150706768       16.8333028508  WZ3       1725            0.0000000000
     14861      4954  TIP3      H1            -24.0888649752       16.1983306768       16.5656928508  WZ3       1725            0.0000000000
     14862      4954  TIP3      H2            -23.1541849752       16.2740006768       17.7541828508  WZ3       1725            0.0000000000
     14863      4955  TIP3      OH2           -17.4569649752        8.2598606768        5.2005628508  WZ3       1726            0.0000000000
     14864      4955  TIP3      H1            -18.0113349752        7.8636606768        4.5283128508  WZ3       1726            0.0000000000
     14865      4955  TIP3      H2            -17.3566049752        9.1703806768        4.9228928508  WZ3       1726            0.0000000000
     14866      4956  TIP3      OH2           -17.4937649752       14.0600306768       18.0377128508  WZ3       1727            0.0000000000
     14867      4956  TIP3      H1            -18.3449149752       14.2984106768       17.6703528508  WZ3       1727            0.0000000000
     14868      4956  TIP3      H2            -16.9034249752       14.0433506768       17.2844228508  WZ3       1727            0.0000000000
     14869      4957  TIP3      OH2           -19.1617949752       17.0459006768        5.6657728508  WZ3       1728            0.0000000000
     14870      4957  TIP3      H1            -19.5346849752       16.2202806768        5.9748328508  WZ3       1728            0.0000000000
     14871      4957  TIP3      H2            -18.8844449752       16.8628406768        4.7681128508  WZ3       1728            0.0000000000
     14872      4958  TIP3      OH2           -22.0014049752       11.8538506768       12.6869628508  WZ3       1729            0.0000000000
     14873      4958  TIP3      H1            -22.9297149752       11.6220406768       12.6598928508  WZ3       1729            0.0000000000
     14874      4958  TIP3      H2            -21.5502949752       11.0768306768       12.3568428508  WZ3       1729            0.0000000000
     14875      4959  TIP3      OH2           -28.0308649752       13.8450006768        8.3962628508  WZ3       1732            0.0000000000
     14876      4959  TIP3      H1            -28.2718649752       14.7704406768        8.4377928508  WZ3       1732            0.0000000000
     14877      4959  TIP3      H2            -28.7715049752       13.3861306768        8.7926528508  WZ3       1732            0.0000000000
     14878      4960  TIP3      OH2           -27.5162049752       17.9943606768       14.7113728508  WZ3       1733            0.0000000000
     14879      4960  TIP3      H1            -27.1537349752       18.8489206768       14.4778128508  WZ3       1733            0.0000000000
     14880      4960  TIP3      H2            -26.9846849752       17.7025206768       15.4520028508  WZ3       1733            0.0000000000
     14881      4961  TIP3      OH2           -23.9721249752       14.0934306768       14.4119328508  WZ3       1735            0.0000000000
     14882      4961  TIP3      H1            -24.3979949752       13.8656006768       15.2383328508  WZ3       1735            0.0000000000
     14883      4961  TIP3      H2            -23.3915449752       13.3546106768       14.2294628508  WZ3       1735            0.0000000000
     14884      4962  TIP3      OH2           -21.7692349752       15.0224806768        3.4858328508  WZ3       1736            0.0000000000
     14885      4962  TIP3      H1            -21.4159249752       14.6424606768        4.2901828508  WZ3       1736            0.0000000000
     14886      4962  TIP3      H2            -22.7178849752       14.9289606768        3.5727628508  WZ3       1736            0.0000000000
     14887      4963  TIP3      OH2           -21.3137049752       18.6453806768       16.8814128508  WZ3       1737            0.0000000000
     14888      4963  TIP3      H1            -21.9153849752       18.0896706768       16.3860428508  WZ3       1737            0.0000000000
     14889      4963  TIP3      H2            -21.0323349752       19.3123606768       16.2551528508  WZ3       1737            0.0000000000
     14890      4964  TIP3      OH2           -17.2657949752       19.5017306768        3.6868528508  WZ3       1738            0.0000000000
     14891      4964  TIP3      H1            -16.5220049752       20.0877806768        3.5470128508  WZ3       1738            0.0000000000
     14892      4964  TIP3      H2            -17.9599849752       20.0703106768        4.0200928508  WZ3       1738            0.0000000000
     14893      4965  TIP3      OH2           -20.9033049752       13.6946806768        5.7126228508  WZ3       1740            0.0000000000
     14894      4965  TIP3      H1            -21.1805449752       12.9666106768        6.2687328508  WZ3       1740            0.0000000000
     14895      4965  TIP3      H2            -19.9760049752       13.8138806768        5.9178828508  WZ3       1740            0.0000000000
     14896      4966  TIP3      OH2           -27.6784549752       16.1340906768        1.9328328508  WZ3       1742            0.0000000000
     14897      4966  TIP3      H1            -27.4394749752       15.3859006768        1.3857228508  WZ3       1742            0.0000000000
     14898      4966  TIP3      H2            -27.9473249752       15.7462606768        2.7656128508  WZ3       1742            0.0000000000
     14899      4967  TIP3      OH2           -28.7413949752       15.7044706768        4.3890928508  WZ3       1743            0.0000000000
     14900      4967  TIP3      H1            -28.5945949752       15.1844506768        5.1791828508  WZ3       1743            0.0000000000
     14901      4967  TIP3      H2            -28.7442249752       16.6112306768        4.6956828508  WZ3       1743            0.0000000000
     14902      4968  TIP3      OH2           -24.4567749752        5.6191806768       15.1785328508  WZ3       1745            0.0000000000
     14903      4968  TIP3      H1            -23.7579849752        5.6930506768       15.8285028508  WZ3       1745            0.0000000000
     14904      4968  TIP3      H2            -24.8376349752        4.7546806768       15.3328228508  WZ3       1745            0.0000000000
     14905      4969  TIP3      OH2           -23.6722849752        5.2713506768        6.2757628508  WZ3       1746            0.0000000000
     14906      4969  TIP3      H1            -23.4524549752        5.7428906768        5.4723028508  WZ3       1746            0.0000000000
     14907      4969  TIP3      H2            -23.1138849752        5.6656106768        6.9458228508  WZ3       1746            0.0000000000
     14908      4970  TIP3      OH2           -26.0036749752       17.4018306768        5.1385128508  WZ3       1747            0.0000000000
     14909      4970  TIP3      H1            -26.8200649752       17.8988006768        5.1909428508  WZ3       1747            0.0000000000
     14910      4970  TIP3      H2            -25.4740449752       17.8771806768        4.4983928508  WZ3       1747            0.0000000000
     14911      4971  TIP3      OH2           -26.4722949752        6.9992306768        7.1106028508  WZ3       1748            0.0000000000
     14912      4971  TIP3      H1            -25.6600349752        7.5035506768        7.1567728508  WZ3       1748            0.0000000000
     14913      4971  TIP3      H2            -26.7169949752        6.8542006768        8.0245628508  WZ3       1748            0.0000000000
     14914      4972  TIP3      OH2           -25.9366549752        7.9855006768       16.2952628508  WZ3       1749            0.0000000000
     14915      4972  TIP3      H1            -25.8176249752        8.5590406768       17.0523028508  WZ3       1749            0.0000000000
     14916      4972  TIP3      H2            -25.2811949752        7.2974406768       16.4100428508  WZ3       1749            0.0000000000
     14917      4973  TIP3      OH2           -25.5886249752        4.0805306768        8.0487128508  WZ3       1750            0.0000000000
     14918      4973  TIP3      H1            -25.9352749752        4.6975906768        8.6931428508  WZ3       1750            0.0000000000
     14919      4973  TIP3      H2            -24.9299349752        4.5811006768        7.5672628508  WZ3       1750            0.0000000000
     14920      4974  TIP3      OH2           -29.9309249752        5.1434706768        4.7359628508  WZ3       1752            0.0000000000
     14921      4974  TIP3      H1            -30.0144449752        6.0317806768        5.0826028508  WZ3       1752            0.0000000000
     14922      4974  TIP3      H2            -29.0408949752        4.8781406768        4.9676428508  WZ3       1752            0.0000000000
     14923      4975  TIP3      OH2           -19.7320749752        5.8925306768       17.1302328508  WZ3       1753            0.0000000000
     14924      4975  TIP3      H1            -20.6484949752        6.1547006768       17.0426028508  WZ3       1753            0.0000000000
     14925      4975  TIP3      H2            -19.3965749752        5.8894306768       16.2337628508  WZ3       1753            0.0000000000
     14926      4976  TIP3      OH2           -21.1299749752        9.6426306768       11.2259628508  WZ3       1754            0.0000000000
     14927      4976  TIP3      H1            -21.9275349752        9.2276506768       10.8974628508  WZ3       1754            0.0000000000
     14928      4976  TIP3      H2            -20.6848649752        8.9520006768       11.7170128508  WZ3       1754            0.0000000000
     14929      4977  TIP3      OH2           -20.0435149752       18.8988806768       12.8483128508  WZ3       1757            0.0000000000
     14930      4977  TIP3      H1            -20.1990849752       19.5773206768       12.1912428508  WZ3       1757            0.0000000000
     14931      4977  TIP3      H2            -19.1108749752       18.9708106768       13.0513728508  WZ3       1757            0.0000000000
     14932      4978  TIP3      OH2           -32.5482749752        3.0166506768       11.5854528508  WZ3       1758            0.0000000000
     14933      4978  TIP3      H1            -32.7772949752        3.0759006768       10.6579528508  WZ3       1758            0.0000000000
     14934      4978  TIP3      H2            -32.9909349752        2.2252006768       11.8918628508  WZ3       1758            0.0000000000
     14935      4979  TIP3      OH2           -25.6402749752       17.9972306768        2.0714328508  WZ3       1762            0.0000000000
     14936      4979  TIP3      H1            -26.2841749752       17.3660906768        2.3928028508  WZ3       1762            0.0000000000
     14937      4979  TIP3      H2            -24.8784449752       17.4660306768        1.8397828508  WZ3       1762            0.0000000000
     14938      4980  TIP3      OH2           -23.1553649752       16.8692806768       19.4254028508  WZ3       1763            0.0000000000
     14939      4980  TIP3      H1            -23.5064149752       16.0125806768       19.6684428508  WZ3       1763            0.0000000000
     14940      4980  TIP3      H2            -22.4290449752       17.0119506768       20.0323028508  WZ3       1763            0.0000000000
     14941      4981  TIP3      OH2           -21.0359849752       17.8142206768        2.3052328508  WZ3       1764            0.0000000000
     14942      4981  TIP3      H1            -20.7529449752       17.0197406768        2.7579228508  WZ3       1764            0.0000000000
     14943      4981  TIP3      H2            -20.2961949752       18.0473206768        1.7443428508  WZ3       1764            0.0000000000
     14944      4982  TIP3      OH2           -27.7670149752       13.3499506768       19.4629028508  WZ3       1767            0.0000000000
     14945      4982  TIP3      H1            -28.0956349752       13.6207606768       18.6056428508  WZ3       1767            0.0000000000
     14946      4982  TIP3      H2            -27.6151949752       12.4089306768       19.3754028508  WZ3       1767            0.0000000000
     14947      4983  TIP3      OH2           -24.7289149752       14.7708806768        1.8985228508  WZ3       1768            0.0000000000
     14948      4983  TIP3      H1            -24.9975049752       14.9510906768        2.7994128508  WZ3       1768            0.0000000000
     14949      4983  TIP3      H2            -24.9353549752       13.8455006768        1.7671028508  WZ3       1768            0.0000000000
     14950      4984  TIP3      OH2           -22.0324949752       13.2656806768       16.8461328508  WZ3       1769            0.0000000000
     14951      4984  TIP3      H1            -21.2870149752       13.8540506768       16.7265328508  WZ3       1769            0.0000000000
     14952      4984  TIP3      H2            -22.7898149752       13.8476506768       16.9094428508  WZ3       1769            0.0000000000
     14953      4985  TIP3      OH2           -28.9318749752       11.6963306768        4.4685228508  WZ3       1771            0.0000000000
     14954      4985  TIP3      H1            -29.3916749752       11.2121606768        5.1543728508  WZ3       1771            0.0000000000
     14955      4985  TIP3      H2            -28.6770049752       11.0278706768        3.8325728508  WZ3       1771            0.0000000000
     14956      4986  TIP3      OH2           -29.6429449752        9.5890406768       16.8244828508  WZ3       1772            0.0000000000
     14957      4986  TIP3      H1            -30.2613349752       10.2637006768       17.1049528508  WZ3       1772            0.0000000000
     14958      4986  TIP3      H2            -29.2988249752        9.9104306768       15.9911028508  WZ3       1772            0.0000000000
     14959      4987  TIP3      OH2           -27.8608349752        9.9395106768        2.7308428508  WZ3       1773            0.0000000000
     14960      4987  TIP3      H1            -28.0413349752        9.7846306768        1.8036728508  WZ3       1773            0.0000000000
     14961      4987  TIP3      H2            -26.9107849752       10.0473806768        2.7756328508  WZ3       1773            0.0000000000
     14962      4988  TIP3      OH2           -24.6231249752       12.0605706768       20.1019628508  WZ3       1774            0.0000000000
     14963      4988  TIP3      H1            -23.6700049752       12.1444806768       20.0745628508  WZ3       1774            0.0000000000
     14964      4988  TIP3      H2            -24.7836649752       11.3487506768       20.7214528508  WZ3       1774            0.0000000000
     14965      4989  TIP3      OH2           -18.4710049752       12.2939306768        2.1766528508  WZ3       1775            0.0000000000
     14966      4989  TIP3      H1            -18.7445249752       11.8694806768        1.3634828508  WZ3       1775            0.0000000000
     14967      4989  TIP3      H2            -18.4315949752       13.2253806768        1.9596928508  WZ3       1775            0.0000000000
     14968      4990  TIP3      OH2           -29.3035749752        6.9441206768       17.9067928508  WZ3       1776            0.0000000000
     14969      4990  TIP3      H1            -29.1534849752        6.2152506768       17.3047628508  WZ3       1776            0.0000000000
     14970      4990  TIP3      H2            -29.3013349752        7.7212906768       17.3480128508  WZ3       1776            0.0000000000
     14971      4991  TIP3      OH2           -28.8910049752        5.3137006768       15.3995328508  WZ3       1777            0.0000000000
     14972      4991  TIP3      H1            -28.3552549752        5.7653706768       14.7474628508  WZ3       1777            0.0000000000
     14973      4991  TIP3      H2            -29.7430449752        5.2056806768       14.9769428508  WZ3       1777            0.0000000000
     14974      4992  TIP3      OH2           -27.3091649752       10.7533206768       15.6390528508  WZ3       1778            0.0000000000
     14975      4992  TIP3      H1            -26.5586849752       10.5970706768       15.0658328508  WZ3       1778            0.0000000000
     14976      4992  TIP3      H2            -27.6483349752       11.6049806768       15.3636028508  WZ3       1778            0.0000000000
     14977      4993  TIP3      OH2           -22.8935449752        8.5685006768       20.6675828508  WZ3       1779            0.0000000000
     14978      4993  TIP3      H1            -22.7014149752        7.6374406768       20.5560328508  WZ3       1779            0.0000000000
     14979      4993  TIP3      H2            -22.0359149752        8.9934506768       20.6571228508  WZ3       1779            0.0000000000
     14980      4994  TIP3      OH2           -21.5768249752       11.3570206768       18.7448528508  WZ3       1780            0.0000000000
     14981      4994  TIP3      H1            -21.8583249752       12.0664806768       18.1672328508  WZ3       1780            0.0000000000
     14982      4994  TIP3      H2            -20.6343949752       11.2843206768       18.5939728508  WZ3       1780            0.0000000000
     14983      4995  TIP3      OH2           -30.8249449752        8.1424706768       19.8183528508  WZ3       1781            0.0000000000
     14984      4995  TIP3      H1            -31.5920449752        7.6099506768       19.6081128508  WZ3       1781            0.0000000000
     14985      4995  TIP3      H2            -30.1460449752        7.8325106768       19.2189828508  WZ3       1781            0.0000000000
     14986      4996  TIP3      OH2           -28.0854549752        2.7702706768       15.8308928508  WZ3       1782            0.0000000000
     14987      4996  TIP3      H1            -28.1834949752        3.7165906768       15.7255128508  WZ3       1782            0.0000000000
     14988      4996  TIP3      H2            -28.8278349752        2.3976506768       15.3552428508  WZ3       1782            0.0000000000
     14989      4997  TIP3      OH2           -26.8214049752        7.0918106768       19.3947328508  WZ3       1783            0.0000000000
     14990      4997  TIP3      H1            -27.0568649752        6.8724806768       20.2962228508  WZ3       1783            0.0000000000
     14991      4997  TIP3      H2            -27.6047149752        6.8849306768       18.8849828508  WZ3       1783            0.0000000000
     14992      4998  TIP3      OH2           -24.1057449752        6.2191606768       18.4700828508  WZ3       1784            0.0000000000
     14993      4998  TIP3      H1            -25.0532049752        6.2511306768       18.6024128508  WZ3       1784            0.0000000000
     14994      4998  TIP3      H2            -23.7930749752        5.5938706768       19.1239028508  WZ3       1784            0.0000000000
     14995      4999  TIP3      OH2           -22.4715949752        4.8532706768       20.4752728508  WZ3       1785            0.0000000000
     14996      4999  TIP3      H1            -22.5684149752        3.9010006768       20.4694628508  WZ3       1785            0.0000000000
     14997      4999  TIP3      H2            -22.7932849752        5.1219506768       21.3358228508  WZ3       1785            0.0000000000
     14998      5000  TIP3      OH2           -27.8636449752        2.0640106768       18.5021728508  WZ3       1787            0.0000000000
     14999      5000  TIP3      H1            -27.1518049752        1.4242306768       18.4880828508  WZ3       1787            0.0000000000
     15000      5000  TIP3      H2            -27.9646049752        2.3308406768       17.5884828508  WZ3       1787            0.0000000000
     15001      5001  TIP3      OH2           -27.5098949752        3.7468506768       20.5558028508  WZ3       1788            0.0000000000
     15002      5001  TIP3      H1            -27.6416749752        3.2712306768       19.7356528508  WZ3       1788            0.0000000000
     15003      5001  TIP3      H2            -28.1091549752        4.4912106768       20.5005128508  WZ3       1788            0.0000000000
     15004      5002  TIP3      OH2           -17.3277149752       19.5494506768       13.0775028508  WZ3       1793            0.0000000000
     15005      5002  TIP3      H1            -17.3490449752       19.7342906768       14.0164428508  WZ3       1793            0.0000000000
     15006      5002  TIP3      H2            -16.6370949752       20.1178506768       12.7366428508  WZ3       1793            0.0000000000
     15007      5003  TIP3      OH2           -17.7644249752       19.1165606768       15.9994128508  WZ3       1794            0.0000000000
     15008      5003  TIP3      H1            -18.2515549752       18.3809706768       15.6281528508  WZ3       1794            0.0000000000
     15009      5003  TIP3      H2            -17.2151549752       18.7229506768       16.6773528508  WZ3       1794            0.0000000000
     15010      5004  TIP3      OH2           -19.3136949752       14.9063706768       20.6374428508  WZ3       1795            0.0000000000
     15011      5004  TIP3      H1            -20.1795849752       14.8013406768       21.0316728508  WZ3       1795            0.0000000000
     15012      5004  TIP3      H2            -18.9371049752       15.6647006768       21.0839128508  WZ3       1795            0.0000000000
     15013      5005  TIP3      OH2           -18.0127249752       13.1627406768        6.1516928508  WZ3       1796            0.0000000000
     15014      5005  TIP3      H1            -17.1625849752       13.5838306768        6.2788528508  WZ3       1796            0.0000000000
     15015      5005  TIP3      H2            -18.0072149752       12.4227506768        6.7588328508  WZ3       1796            0.0000000000
     15016      5006  TIP3      OH2           -17.6181649752       11.2164806768        7.9752628508  WZ3       1797            0.0000000000
     15017      5006  TIP3      H1            -18.3447049752       10.7367406768        8.3730228508  WZ3       1797            0.0000000000
     15018      5006  TIP3      H2            -17.0368349752       11.4219506768        8.7074228508  WZ3       1797            0.0000000000
     15019      5007  TIP3      OH2           -17.8590449752       14.0012306768       12.9230228508  WZ3       1798            0.0000000000
     15020      5007  TIP3      H1            -17.0256249752       13.6232306768       12.6423828508  WZ3       1798            0.0000000000
     15021      5007  TIP3      H2            -17.7470149752       14.9443506768       12.8039328508  WZ3       1798            0.0000000000
     15022      5008  TIP3      OH2           -19.3728149752       16.8789806768       15.2298628508  WZ3       1799            0.0000000000
     15023      5008  TIP3      H1            -20.0202849752       17.2041306768       15.8553828508  WZ3       1799            0.0000000000
     15024      5008  TIP3      H2            -19.8904149752       16.4387506768       14.5556928508  WZ3       1799            0.0000000000
     15025      5009  TIP3      OH2           -17.3498549752       11.1173306768        4.3663928508  WZ3       1800            0.0000000000
     15026      5009  TIP3      H1            -17.8717449752       11.4737406768        3.6474828508  WZ3       1800            0.0000000000
     15027      5009  TIP3      H2            -17.3829349752       11.7921106768        5.0444828508  WZ3       1800            0.0000000000
     15028      5010  TIP3      OH2           -19.0009549752        8.3568906768        2.9171028508  WZ3       1801            0.0000000000
     15029      5010  TIP3      H1            -18.9045149752        9.0235906768        2.2370728508  WZ3       1801            0.0000000000
     15030      5010  TIP3      H2            -19.1409949752        7.5415206768        2.4356528508  WZ3       1801            0.0000000000
     15031      5011  TIP3      OH2           -19.8314849752        9.7371306768        8.5381328508  WZ3       1802            0.0000000000
     15032      5011  TIP3      H1            -19.9816049752        8.7919906768        8.5179128508  WZ3       1802            0.0000000000
     15033      5011  TIP3      H2            -20.1850349752       10.0182706768        9.3820428508  WZ3       1802            0.0000000000
     15034      5012  TIP3      OH2           -18.9751949752       11.7074606768       18.1769628508  WZ3       1804            0.0000000000
     15035      5012  TIP3      H1            -18.3924649752       10.9726906768       18.3686828508  WZ3       1804            0.0000000000
     15036      5012  TIP3      H2            -18.4112649752       12.4794906768       18.2235428508  WZ3       1804            0.0000000000
     15037      5013  TIP3      OH2           -17.4784849752        9.6100406768       18.8615028508  WZ3       1805            0.0000000000
     15038      5013  TIP3      H1            -18.3418149752        9.2312506768       18.6959728508  WZ3       1805            0.0000000000
     15039      5013  TIP3      H2            -16.8741149752        8.8715206768       18.7870828508  WZ3       1805            0.0000000000
     15040      5014  TIP3      OH2           -19.7535749752        5.7648706768        2.0346528508  WZ3       1806            0.0000000000
     15041      5014  TIP3      H1            -19.1429949752        5.3935506768        2.6714728508  WZ3       1806            0.0000000000
     15042      5014  TIP3      H2            -20.5904249752        5.3435606768        2.2306528508  WZ3       1806            0.0000000000
     15043      5015  TIP3      OH2           -20.1210049752        7.3197106768        7.0006428508  WZ3       1807            0.0000000000
     15044      5015  TIP3      H1            -19.8412949752        6.4127506768        7.1248128508  WZ3       1807            0.0000000000
     15045      5015  TIP3      H2            -19.3618349752        7.7538606768        6.6115628508  WZ3       1807            0.0000000000
     15046      5016  TIP3      OH2           -19.5091749752        7.9014506768       12.4365328508  WZ3       1808            0.0000000000
     15047      5016  TIP3      H1            -18.5763749752        8.1134406768       12.4021328508  WZ3       1808            0.0000000000
     15048      5016  TIP3      H2            -19.7444249752        8.0026606768       13.3588328508  WZ3       1808            0.0000000000
     15049      5017  TIP3      OH2           -19.4799849752        8.6379806768       15.2124728508  WZ3       1809            0.0000000000
     15050      5017  TIP3      H1            -20.3228549752        8.9060206768       15.5784528508  WZ3       1809            0.0000000000
     15051      5017  TIP3      H2            -19.0375549752        9.4601706768       15.0015828508  WZ3       1809            0.0000000000
     15052      5018  TIP3      OH2           -17.1968249752        2.6180006768       20.5659728508  WZ3       1811            0.0000000000
     15053      5018  TIP3      H1            -16.8471249752        1.9643506768       19.9604428508  WZ3       1811            0.0000000000
     15054      5018  TIP3      H2            -17.0498749752        3.4554106768       20.1262328508  WZ3       1811            0.0000000000
     15055      5019  TIP3      OH2           -19.5075249752        4.5826406768        7.0488428508  WZ3       1812            0.0000000000
     15056      5019  TIP3      H1            -19.3250249752        4.1337906768        7.8743428508  WZ3       1812            0.0000000000
     15057      5019  TIP3      H2            -20.1072349752        3.9980806768        6.5853028508  WZ3       1812            0.0000000000
     15058      5020  TIP3      OH2           -17.6771049752        4.7274606768       18.9151028508  WZ3       1815            0.0000000000
     15059      5020  TIP3      H1            -18.5945349752        4.9981706768       18.8794528508  WZ3       1815            0.0000000000
     15060      5020  TIP3      H2            -17.5541649752        4.1923006768       18.1310728508  WZ3       1815            0.0000000000
     15061      5021  TIP3      OH2           -17.6409049752        4.6504506768        3.5768728508  WZ3       1816            0.0000000000
     15062      5021  TIP3      H1            -17.2286449752        3.9290206768        3.1016728508  WZ3       1816            0.0000000000
     15063      5021  TIP3      H2            -16.9592549752        5.3199106768        3.6353028508  WZ3       1816            0.0000000000
     15064      5022  TIP3      OH2           -20.5891149752       19.6393906768        8.6496828508  WZ3       1818            0.0000000000
     15065      5022  TIP3      H1            -19.9368249752       19.2916006768        8.0415928508  WZ3       1818            0.0000000000
     15066      5022  TIP3      H2            -20.0787349752       20.1277106768        9.2956528508  WZ3       1818            0.0000000000
     15067      5023  TIP3      OH2           -25.9389349752       18.9416506768       18.4105428508  WZ3       1822            0.0000000000
     15068      5023  TIP3      H1            -25.7541849752       18.6082606768       19.2885728508  WZ3       1822            0.0000000000
     15069      5023  TIP3      H2            -25.0924849752       19.2515106768       18.0884628508  WZ3       1822            0.0000000000
     15070      5024  TIP3      OH2           -23.5938949752       20.2275406768       17.6546828508  WZ3       1823            0.0000000000
     15071      5024  TIP3      H1            -22.9170049752       19.5947706768       17.4146028508  WZ3       1823            0.0000000000
     15072      5024  TIP3      H2            -23.2720149752       20.6285906768       18.4620128508  WZ3       1823            0.0000000000
     15073      5025  TIP3      OH2           -18.6765149752        2.8170906768       16.7341828508  WZ3       1824            0.0000000000
     15074      5025  TIP3      H1            -19.4891649752        3.1421206768       16.3466528508  WZ3       1824            0.0000000000
     15075      5025  TIP3      H2            -18.4436649752        2.0569406768       16.2010928508  WZ3       1824            0.0000000000
     15076      5026  TIP3      OH2           -25.6705849752       20.2873206768       13.7040228508  WZ3       1827            0.0000000000
     15077      5026  TIP3      H1            -26.1271849752       20.8162906768       13.0498628508  WZ3       1827            0.0000000000
     15078      5026  TIP3      H2            -25.5077849752       20.8904606768       14.4292528508  WZ3       1827            0.0000000000
     15079      5027  TIP3      OH2           -23.3429549752       19.1652806768       14.6490528508  WZ3       1828            0.0000000000
     15080      5027  TIP3      H1            -24.2475849752       19.3303006768       14.3832628508  WZ3       1828            0.0000000000
     15081      5027  TIP3      H2            -22.9140949752       20.0185006768       14.5833928508  WZ3       1828            0.0000000000
     15082      5028  TIP3      OH2           -20.7387649752       20.7351906768       14.9438328508  WZ3       1829            0.0000000000
     15083      5028  TIP3      H1            -20.9205649752       21.6510806768       14.7333228508  WZ3       1829            0.0000000000
     15084      5028  TIP3      H2            -20.5619849752       20.3249006768       14.0972928508  WZ3       1829            0.0000000000
     15085      5029  TIP3      OH2           -25.2466649752        4.2661506768       11.0570028508  WZ3       1833            0.0000000000
     15086      5029  TIP3      H1            -25.9209849752        3.6367106768       11.3125828508  WZ3       1833            0.0000000000
     15087      5029  TIP3      H2            -24.6827449752        3.7820406768       10.4537928508  WZ3       1833            0.0000000000
     15088      5030  TIP3      OH2           -20.1039449752        2.3735506768       11.1697128508  WZ3       1834            0.0000000000
     15089      5030  TIP3      H1            -19.5001849752        2.9210906768       10.6678128508  WZ3       1834            0.0000000000
     15090      5030  TIP3      H2            -20.9737449752        2.6925906768       10.9291228508  WZ3       1834            0.0000000000
     15091      5031  TIP3      OH2           -18.3769049752        3.5124206768        9.5028028508  WZ3       1835            0.0000000000
     15092      5031  TIP3      H1            -17.7651549752        2.9979906768        8.9761628508  WZ3       1835            0.0000000000
     15093      5031  TIP3      H2            -17.9945649752        4.3896306768        9.5262428508  WZ3       1835            0.0000000000
     15094      5032  TIP3      OH2           -32.9199149752        2.9001806768        8.8789928508  WZ3       1836            0.0000000000
     15095      5032  TIP3      H1            -33.6969349752        2.6656706768        8.3715828508  WZ3       1836            0.0000000000
     15096      5032  TIP3      H2            -32.3895549752        2.1033906768        8.8877928508  WZ3       1836            0.0000000000
     15097      5033  TIP3      OH2           -28.3406549752        2.8268906768        8.6923028508  WZ3       1838            0.0000000000
     15098      5033  TIP3      H1            -27.4663149752        3.2153206768        8.6627328508  WZ3       1838            0.0000000000
     15099      5033  TIP3      H2            -28.4765749752        2.6116706768        9.6150228508  WZ3       1838            0.0000000000
     15100      5034  TIP3      OH2           -22.7838149752        2.8568706768       10.3414728508  WZ3       1839            0.0000000000
     15101      5034  TIP3      H1            -22.7076549752        2.9520306768        9.3920728508  WZ3       1839            0.0000000000
     15102      5034  TIP3      H2            -23.0588949752        1.9491606768       10.4703828508  WZ3       1839            0.0000000000
     15103      5035  TIP3      OH2           -21.4305549752        2.8826506768        6.0339728508  WZ3       1840            0.0000000000
     15104      5035  TIP3      H1            -22.1334449752        3.4975706768        5.8241128508  WZ3       1840            0.0000000000
     15105      5035  TIP3      H2            -21.8754149752        2.0453206768        6.1650628508  WZ3       1840            0.0000000000
     15106      5036  TIP3      OH2           -32.2226649752        4.6141406768        3.1250128508  WZ3       1842            0.0000000000
     15107      5036  TIP3      H1            -31.7313249752        3.9843806768        2.5975628508  WZ3       1842            0.0000000000
     15108      5036  TIP3      H2            -31.5990349752        4.9100806768        3.7881328508  WZ3       1842            0.0000000000
     15109      5037  TIP3      OH2           -27.1966549752        4.9072906768        5.5820628508  WZ3       1843            0.0000000000
     15110      5037  TIP3      H1            -27.0185249752        4.2606106768        6.2649228508  WZ3       1843            0.0000000000
     15111      5037  TIP3      H2            -27.2500349752        5.7410606768        6.0491728508  WZ3       1843            0.0000000000
     15112      5038  TIP3      OH2           -25.3182749752       19.8557006768        3.9777328508  WZ3       1844            0.0000000000
     15113      5038  TIP3      H1            -24.4522549752       20.2224406768        3.7995528508  WZ3       1844            0.0000000000
     15114      5038  TIP3      H2            -25.5649949752       19.4165006768        3.1638128508  WZ3       1844            0.0000000000
     15115      5039  TIP3      OH2           -18.6093149752       19.4187306768        6.6568428508  WZ3       1845            0.0000000000
     15116      5039  TIP3      H1            -18.8036049752       18.6709406768        6.0918028508  WZ3       1845            0.0000000000
     15117      5039  TIP3      H2            -18.6483049752       20.1767406768        6.0736328508  WZ3       1845            0.0000000000
     15118      5040  TIP3      OH2           -32.9621149752        3.4143706768       18.3966128508  WZ3       1846            0.0000000000
     15119      5040  TIP3      H1            -33.3282949752        2.6486306768       18.8390828508  WZ3       1846            0.0000000000
     15120      5040  TIP3      H2            -32.0492649752        3.4433906768       18.6831228508  WZ3       1846            0.0000000000
     15121      5041  TIP3      OH2           -30.9890349752        2.7648106768       19.9323228508  WZ3       1847            0.0000000000
     15122      5041  TIP3      H1            -30.0906749752        2.4908306768       19.7476628508  WZ3       1847            0.0000000000
     15123      5041  TIP3      H2            -31.3757249752        2.0224106768       20.3965828508  WZ3       1847            0.0000000000
     15124      5042  TIP3      OH2           -22.5678049752        2.0973406768       20.1146028508  WZ3       1849            0.0000000000
     15125      5042  TIP3      H1            -22.4910849752        1.6714106768       20.9683728508  WZ3       1849            0.0000000000
     15126      5042  TIP3      H2            -21.6741449752        2.1108106768       19.7719528508  WZ3       1849            0.0000000000
     15127      5043  TIP3      OH2           -19.3916949752       18.1699706768       18.8070228508  WZ3       1850            0.0000000000
     15128      5043  TIP3      H1            -20.1735049752       17.9837706768       18.2870828508  WZ3       1850            0.0000000000
     15129      5043  TIP3      H2            -19.4637049752       19.0994006768       19.0242728508  WZ3       1850            0.0000000000
     15130      5044  TIP3      OH2            -4.9856549752       12.0564106768        8.8377428508  WZ3       1851            0.0000000000
     15131      5044  TIP3      H1             -4.8965449752       13.0002306768        8.7054528508  WZ3       1851            0.0000000000
     15132      5044  TIP3      H2             -5.6238949752       11.7810506768        8.1796828508  WZ3       1851            0.0000000000
     15133      5045  TIP3      OH2            -6.0525249752       11.3114806768       12.2565628508  WZ3       1852            0.0000000000
     15134      5045  TIP3      H1             -6.0907749752       10.6651106768       12.9615228508  WZ3       1852            0.0000000000
     15135      5045  TIP3      H2             -6.3748749752       10.8449206768       11.4854328508  WZ3       1852            0.0000000000
     15136      5046  TIP3      OH2           -13.6840249752       10.9256906768       13.8495528508  WZ3       1853            0.0000000000
     15137      5046  TIP3      H1            -13.6428149752       10.3000206768       14.5727928508  WZ3       1853            0.0000000000
     15138      5046  TIP3      H2            -12.9812549752       11.5495506768       14.0315928508  WZ3       1853            0.0000000000
     15139      5047  TIP3      OH2            -2.3465049752       14.2505206768       10.5580728508  WZ3       1854            0.0000000000
     15140      5047  TIP3      H1             -2.7872349752       13.5301206768       11.0086328508  WZ3       1854            0.0000000000
     15141      5047  TIP3      H2             -2.3595349752       14.9712406768       11.1878428508  WZ3       1854            0.0000000000
     15142      5048  TIP3      OH2           -12.7607149752       15.3755806768       12.3844628508  WZ3       1855            0.0000000000
     15143      5048  TIP3      H1            -13.1301949752       14.5736306768       12.0148928508  WZ3       1855            0.0000000000
     15144      5048  TIP3      H2            -11.8196049752       15.2070706768       12.4308028508  WZ3       1855            0.0000000000
     15145      5049  TIP3      OH2           -16.1506649752        9.0358406768        7.7773428508  WZ3       1856            0.0000000000
     15146      5049  TIP3      H1            -16.5983249752        9.8817106768        7.7589928508  WZ3       1856            0.0000000000
     15147      5049  TIP3      H2            -16.7115449752        8.4562606768        7.2618528508  WZ3       1856            0.0000000000
     15148      5050  TIP3      OH2           -15.4400549752       11.1978006768        9.9031428508  WZ3       1857            0.0000000000
     15149      5050  TIP3      H1            -15.2267049752       10.4279606768       10.4304428508  WZ3       1857            0.0000000000
     15150      5050  TIP3      H2            -14.7022949752       11.2874706768        9.2999028508  WZ3       1857            0.0000000000
     15151      5051  TIP3      OH2            -5.2349549752       19.3546906768       10.7701128508  WZ3       1858            0.0000000000
     15152      5051  TIP3      H1             -4.6153149752       18.6781606768       10.4970328508  WZ3       1858            0.0000000000
     15153      5051  TIP3      H2             -5.4432149752       19.1367706768       11.6786028508  WZ3       1858            0.0000000000
     15154      5052  TIP3      OH2            -7.6630849752       13.7436206768       12.6626628508  WZ3       1859            0.0000000000
     15155      5052  TIP3      H1             -7.3592949752       13.0577606768       12.0680728508  WZ3       1859            0.0000000000
     15156      5052  TIP3      H2             -6.9416849752       13.8624906768       13.2804628508  WZ3       1859            0.0000000000
     15157      5053  TIP3      OH2             0.9998950248        5.3451506768       13.5232828508  WZ3       1860            0.0000000000
     15158      5053  TIP3      H1              1.0491150248        5.9552706768       14.2591928508  WZ3       1860            0.0000000000
     15159      5053  TIP3      H2              1.4254050248        5.8062406768       12.8003928508  WZ3       1860            0.0000000000
     15160      5054  TIP3      OH2            -4.5223849752        8.1378606768       12.9901428508  WZ3       1861            0.0000000000
     15161      5054  TIP3      H1             -4.3797949752        7.1915606768       13.0103028508  WZ3       1861            0.0000000000
     15162      5054  TIP3      H2             -4.6284849752        8.3448406768       12.0616328508  WZ3       1861            0.0000000000
     15163      5055  TIP3      OH2           -11.3675549752        6.2395006768       10.2626228508  WZ3       1862            0.0000000000
     15164      5055  TIP3      H1            -11.3244449752        7.0993506768        9.8442528508  WZ3       1862            0.0000000000
     15165      5055  TIP3      H2            -11.8251449752        5.6869706768        9.6289428508  WZ3       1862            0.0000000000
     15166      5056  TIP3      OH2            -3.6452849752        6.3700606768        8.6634528508  WZ3       1863            0.0000000000
     15167      5056  TIP3      H1             -2.9988549752        6.0413806768        9.2882128508  WZ3       1863            0.0000000000
     15168      5056  TIP3      H2             -3.1353449752        6.8879606768        8.0405928508  WZ3       1863            0.0000000000
     15169      5057  TIP3      OH2           -14.7474049752        8.6360806768       11.0247628508  WZ3       1864            0.0000000000
     15170      5057  TIP3      H1            -14.0937449752        8.0862506768       11.4567728508  WZ3       1864            0.0000000000
     15171      5057  TIP3      H2            -14.7234749752        8.3619806768       10.1079628508  WZ3       1864            0.0000000000
     15172      5058  TIP3      OH2            -9.5909549752       10.1862106768       10.2399128508  WZ3       1865            0.0000000000
     15173      5058  TIP3      H1             -8.9748549752        9.6597506768       10.7493128508  WZ3       1865            0.0000000000
     15174      5058  TIP3      H2            -10.1770749752        9.5460806768        9.8362728508  WZ3       1865            0.0000000000
     15175      5059  TIP3      OH2             1.3913550248        6.8230706768       15.7592628508  WZ3       1866            0.0000000000
     15176      5059  TIP3      H1              0.7028150248        7.4811406768       15.6639228508  WZ3       1866            0.0000000000
     15177      5059  TIP3      H2              1.4068150248        6.6258606768       16.6958028508  WZ3       1866            0.0000000000
     15178      5060  TIP3      OH2           -12.5573649752        5.1573406768       14.3367028508  WZ3       1867            0.0000000000
     15179      5060  TIP3      H1            -12.7761949752        5.6874006768       13.5703028508  WZ3       1867            0.0000000000
     15180      5060  TIP3      H2            -13.2252749752        5.3838906768       14.9838428508  WZ3       1867            0.0000000000
     15181      5061  TIP3      OH2            -5.1883849752       14.6574506768        7.8806128508  WZ3       1868            0.0000000000
     15182      5061  TIP3      H1             -5.4838749752       14.3346806768        7.0293028508  WZ3       1868            0.0000000000
     15183      5061  TIP3      H2             -5.5126049752       15.5571206768        7.9218728508  WZ3       1868            0.0000000000
     15184      5062  TIP3      OH2            -9.9882249752       12.8329106768       14.6240728508  WZ3       1869            0.0000000000
     15185      5062  TIP3      H1            -10.7283149752       13.4310606768       14.7275928508  WZ3       1869            0.0000000000
     15186      5062  TIP3      H2             -9.2742749752       13.3868706768       14.3084328508  WZ3       1869            0.0000000000
     15187      5063  TIP3      OH2            -1.8814449752        5.6609906768       10.6440428508  WZ3       1870            0.0000000000
     15188      5063  TIP3      H1             -2.0966449752        4.8953306768       11.1766428508  WZ3       1870            0.0000000000
     15189      5063  TIP3      H2             -1.2257049752        6.1334506768       11.1568928508  WZ3       1870            0.0000000000
     15190      5064  TIP3      OH2           -12.9636349752        7.0495206768       12.2889228508  WZ3       1871            0.0000000000
     15191      5064  TIP3      H1            -12.3500049752        7.6822806768       12.6621628508  WZ3       1871            0.0000000000
     15192      5064  TIP3      H2            -12.4515649752        6.5770206768       11.6326128508  WZ3       1871            0.0000000000
     15193      5065  TIP3      OH2           -11.5807949752       14.7972106768       15.4112228508  WZ3       1872            0.0000000000
     15194      5065  TIP3      H1            -11.5860349752       15.6765606768       15.0331528508  WZ3       1872            0.0000000000
     15195      5065  TIP3      H2            -12.4343849752       14.7136206768       15.8362128508  WZ3       1872            0.0000000000
     15196      5066  TIP3      OH2           -15.4597049752       14.4680006768        6.1931528508  WZ3       1873            0.0000000000
     15197      5066  TIP3      H1            -15.7316149752       14.6971006768        5.3044428508  WZ3       1873            0.0000000000
     15198      5066  TIP3      H2            -15.4141349752       15.3058806768        6.6536828508  WZ3       1873            0.0000000000
     15199      5067  TIP3      OH2            -1.8347349752       16.0895906768       12.9060028508  WZ3       1874            0.0000000000
     15200      5067  TIP3      H1             -2.7763649752       16.1479806768       13.0676928508  WZ3       1874            0.0000000000
     15201      5067  TIP3      H2             -1.5581249752       16.9956406768       12.7689728508  WZ3       1874            0.0000000000
     15202      5068  TIP3      OH2            -1.5340349752        4.3761206768       14.3233928508  WZ3       1875            0.0000000000
     15203      5068  TIP3      H1             -2.2701149752        4.9868306768       14.2855228508  WZ3       1875            0.0000000000
     15204      5068  TIP3      H2             -0.8506349752        4.7910206768       13.7970328508  WZ3       1875            0.0000000000
     15205      5069  TIP3      OH2            -8.5308949752        2.4628506768       11.7891928508  WZ3       1876            0.0000000000
     15206      5069  TIP3      H1             -8.6484749752        1.5144506768       11.7350228508  WZ3       1876            0.0000000000
     15207      5069  TIP3      H2             -9.3858849752        2.7954606768       12.0623028508  WZ3       1876            0.0000000000
     15208      5070  TIP3      OH2            -3.5826149752       17.8709406768        9.5311628508  WZ3       1877            0.0000000000
     15209      5070  TIP3      H1             -3.1573849752       17.1637306768        9.0461228508  WZ3       1877            0.0000000000
     15210      5070  TIP3      H2             -3.2656149752       18.6722106768        9.1143828508  WZ3       1877            0.0000000000
     15211      5071  TIP3      OH2            -2.4229649752       15.7717906768        8.0398228508  WZ3       1878            0.0000000000
     15212      5071  TIP3      H1             -2.6804849752       15.0818006768        7.4284128508  WZ3       1878            0.0000000000
     15213      5071  TIP3      H2             -2.3518849752       15.3289106768        8.8854128508  WZ3       1878            0.0000000000
     15214      5072  TIP3      OH2            -0.7369449752       14.3384606768       16.5171728508  WZ3       1879            0.0000000000
     15215      5072  TIP3      H1             -0.5973149752       13.7467106768       15.7778728508  WZ3       1879            0.0000000000
     15216      5072  TIP3      H2             -0.5696649752       15.2110506768       16.1610528508  WZ3       1879            0.0000000000
     15217      5073  TIP3      OH2            -6.2644049752       11.3004106768        6.2897728508  WZ3       1880            0.0000000000
     15218      5073  TIP3      H1             -6.9758549752       11.8353806768        5.9378228508  WZ3       1880            0.0000000000
     15219      5073  TIP3      H2             -5.5734449752       11.3556206768        5.6296628508  WZ3       1880            0.0000000000
     15220      5074  TIP3      OH2            -6.2104849752        9.7578406768        3.3282728508  WZ3       1881            0.0000000000
     15221      5074  TIP3      H1             -5.5094949752        9.7805306768        3.9796728508  WZ3       1881            0.0000000000
     15222      5074  TIP3      H2             -5.9081949752        9.1298106768        2.6722028508  WZ3       1881            0.0000000000
     15223      5075  TIP3      OH2             1.1049850248       10.6782606768       14.5832128508  WZ3       1882            0.0000000000
     15224      5075  TIP3      H1              0.4523950248       11.3728206768       14.6723028508  WZ3       1882            0.0000000000
     15225      5075  TIP3      H2              1.5700150248       10.8883506768       13.7733728508  WZ3       1882            0.0000000000
     15226      5076  TIP3      OH2            -2.8586349752       11.5097406768        7.2413628508  WZ3       1883            0.0000000000
     15227      5076  TIP3      H1             -3.5905349752       11.7381106768        7.8144228508  WZ3       1883            0.0000000000
     15228      5076  TIP3      H2             -2.4114149752       10.7960106768        7.6961128508  WZ3       1883            0.0000000000
     15229      5077  TIP3      OH2            -2.9612849752        9.6840006768       16.3090628508  WZ3       1884            0.0000000000
     15230      5077  TIP3      H1             -2.8813749752       10.4474406768       16.8809128508  WZ3       1884            0.0000000000
     15231      5077  TIP3      H2             -3.5625149752        9.9632406768       15.6185728508  WZ3       1884            0.0000000000
     15232      5078  TIP3      OH2           -11.2132649752       12.1403606768        9.1238628508  WZ3       1885            0.0000000000
     15233      5078  TIP3      H1            -11.5437449752       11.7697006768        8.3055628508  WZ3       1885            0.0000000000
     15234      5078  TIP3      H2            -10.6248549752       11.4697606768        9.4706928508  WZ3       1885            0.0000000000
     15235      5079  TIP3      OH2            -9.8465149752       15.5684206768       11.8050828508  WZ3       1886            0.0000000000
     15236      5079  TIP3      H1             -9.9413849752       14.9897306768       11.0485428508  WZ3       1886            0.0000000000
     15237      5079  TIP3      H2             -9.1171549752       15.1969906768       12.3013628508  WZ3       1886            0.0000000000
     15238      5080  TIP3      OH2           -10.8467149752       10.9089206768       12.7573628508  WZ3       1887            0.0000000000
     15239      5080  TIP3      H1            -10.2814649752       11.0303406768       11.9944828508  WZ3       1887            0.0000000000
     15240      5080  TIP3      H2            -10.5278249752       11.5464206768       13.3962128508  WZ3       1887            0.0000000000
     15241      5081  TIP3      OH2            -4.5374949752       16.4121106768       13.4914128508  WZ3       1888            0.0000000000
     15242      5081  TIP3      H1             -4.7778349752       17.0744206768       14.1393328508  WZ3       1888            0.0000000000
     15243      5081  TIP3      H2             -4.7356749752       15.5776306768       13.9163728508  WZ3       1888            0.0000000000
     15244      5082  TIP3      OH2            -9.9666449752       15.3081906768       17.4745528508  WZ3       1889            0.0000000000
     15245      5082  TIP3      H1            -10.2778949752       16.0905106768       17.9298728508  WZ3       1889            0.0000000000
     15246      5082  TIP3      H2            -10.6166249752       15.1551006768       16.7887528508  WZ3       1889            0.0000000000
     15247      5083  TIP3      OH2            -3.9876849752       10.6720306768        4.9264828508  WZ3       1890            0.0000000000
     15248      5083  TIP3      H1             -3.4081349752       10.8220606768        5.6733728508  WZ3       1890            0.0000000000
     15249      5083  TIP3      H2             -3.5736849752       11.1427706768        4.2031228508  WZ3       1890            0.0000000000
     15250      5084  TIP3      OH2           -13.0466549752       11.5063006768       16.7031228508  WZ3       1891            0.0000000000
     15251      5084  TIP3      H1            -12.9763349752       12.1569806768       17.4016228508  WZ3       1891            0.0000000000
     15252      5084  TIP3      H2            -13.9374349752       11.6090506768       16.3682128508  WZ3       1891            0.0000000000
     15253      5085  TIP3      OH2            -6.2611949752       17.4088806768        8.3617928508  WZ3       1892            0.0000000000
     15254      5085  TIP3      H1             -5.7874349752       17.7045106768        9.1392128508  WZ3       1892            0.0000000000
     15255      5085  TIP3      H2             -6.8242649752       18.1470406768        8.1287528508  WZ3       1892            0.0000000000
     15256      5086  TIP3      OH2           -11.7270549752       17.3796906768       18.2379328508  WZ3       1893            0.0000000000
     15257      5086  TIP3      H1            -11.7195249752       17.2436606768       17.2904828508  WZ3       1893            0.0000000000
     15258      5086  TIP3      H2            -12.6430149752       17.2625006768       18.4899328508  WZ3       1893            0.0000000000
     15259      5087  TIP3      OH2            -0.2888449752        2.4220706768        4.7394528508  WZ3       1894            0.0000000000
     15260      5087  TIP3      H1             -1.1887749752        2.5609706768        5.0345128508  WZ3       1894            0.0000000000
     15261      5087  TIP3      H2             -0.0370049752        3.2535306768        4.3376228508  WZ3       1894            0.0000000000
     15262      5088  TIP3      OH2           -12.2229949752       11.2097906768        6.7131428508  WZ3       1895            0.0000000000
     15263      5088  TIP3      H1            -12.5148649752       11.9779606768        6.2222728508  WZ3       1895            0.0000000000
     15264      5088  TIP3      H2            -12.8974749752       10.5504106768        6.5502828508  WZ3       1895            0.0000000000
     15265      5089  TIP3      OH2             0.9002950248       16.7883106768        3.1158428508  WZ3       1896            0.0000000000
     15266      5089  TIP3      H1              0.9736450248       17.7273306768        3.2863728508  WZ3       1896            0.0000000000
     15267      5089  TIP3      H2              1.8058050248       16.4831706768        3.0595728508  WZ3       1896            0.0000000000
     15268      5090  TIP3      OH2           -16.1299849752       13.5727106768       15.5281228508  WZ3       1897            0.0000000000
     15269      5090  TIP3      H1            -16.6311449752       13.5446506768       14.7130928508  WZ3       1897            0.0000000000
     15270      5090  TIP3      H2            -16.1246149752       12.6670306768       15.8378528508  WZ3       1897            0.0000000000
     15271      5091  TIP3      OH2           -16.3797149752       16.3530906768       12.4121428508  WZ3       1898            0.0000000000
     15272      5091  TIP3      H1            -15.4336549752       16.2087906768       12.3930928508  WZ3       1898            0.0000000000
     15273      5091  TIP3      H2            -16.4920849752       17.1373706768       12.9492628508  WZ3       1898            0.0000000000
     15274      5092  TIP3      OH2             1.8181350248       17.0190606768       18.0945128508  WZ3       1899            0.0000000000
     15275      5092  TIP3      H1              1.7688150248       16.0638706768       18.0572728508  WZ3       1899            0.0000000000
     15276      5092  TIP3      H2              0.9913650248       17.2865906768       18.4958928508  WZ3       1899            0.0000000000
     15277      5093  TIP3      OH2            -7.2034649752       16.5929806768       16.9706528508  WZ3       1900            0.0000000000
     15278      5093  TIP3      H1             -7.1160049752       17.4194406768       17.4455628508  WZ3       1900            0.0000000000
     15279      5093  TIP3      H2             -8.0669549752       16.2633606768       17.2195828508  WZ3       1900            0.0000000000
     15280      5094  TIP3      OH2            -6.7888849752       20.3653506768        6.7767128508  WZ3       1901            0.0000000000
     15281      5094  TIP3      H1             -6.8642849752       20.2440706768        5.8302328508  WZ3       1901            0.0000000000
     15282      5094  TIP3      H2             -6.7560149752       21.3146206768        6.8951728508  WZ3       1901            0.0000000000
     15283      5095  TIP3      OH2           -13.1355049752       19.1540506768        8.5576128508  WZ3       1902            0.0000000000
     15284      5095  TIP3      H1            -12.9834649752       18.8060906768        9.4362628508  WZ3       1902            0.0000000000
     15285      5095  TIP3      H2            -13.9864649752       18.7977806768        8.3023328508  WZ3       1902            0.0000000000
     15286      5096  TIP3      OH2            -3.6872849752       19.5193706768        3.7789528508  WZ3       1903            0.0000000000
     15287      5096  TIP3      H1             -3.3124449752       18.7749806768        3.3082128508  WZ3       1903            0.0000000000
     15288      5096  TIP3      H2             -3.6829149752       19.2494306768        4.6972828508  WZ3       1903            0.0000000000
     15289      5097  TIP3      OH2            -4.0184749752       19.4450806768        6.5281728508  WZ3       1904            0.0000000000
     15290      5097  TIP3      H1             -4.9534949752       19.5452706768        6.7068728508  WZ3       1904            0.0000000000
     15291      5097  TIP3      H2             -3.7382849752       18.7356806768        7.1064928508  WZ3       1904            0.0000000000
     15292      5098  TIP3      OH2            -1.0298849752        8.5123106768       18.5747328508  WZ3       1905            0.0000000000
     15293      5098  TIP3      H1             -1.4372049752        8.9928706768       17.8540628508  WZ3       1905            0.0000000000
     15294      5098  TIP3      H2             -0.9893149752        7.6069106768       18.2668128508  WZ3       1905            0.0000000000
     15295      5099  TIP3      OH2           -13.8809349752       14.8962506768       16.5714028508  WZ3       1906            0.0000000000
     15296      5099  TIP3      H1            -13.6648049752       14.5348106768       17.4309828508  WZ3       1906            0.0000000000
     15297      5099  TIP3      H2            -14.7364649752       14.5216306768       16.3617528508  WZ3       1906            0.0000000000
     15298      5100  TIP3      OH2           -11.2621349752        3.3663006768       12.5668228508  WZ3       1907            0.0000000000
     15299      5100  TIP3      H1            -12.1237649752        3.2791206768       12.1591128508  WZ3       1907            0.0000000000
     15300      5100  TIP3      H2            -11.2845649752        4.2223106768       12.9945828508  WZ3       1907            0.0000000000
     15301      5101  TIP3      OH2            -6.5993549752        3.0883406768       15.9415228508  WZ3       1908            0.0000000000
     15302      5101  TIP3      H1             -6.1790449752        2.6730506768       16.6945828508  WZ3       1908            0.0000000000
     15303      5101  TIP3      H2             -7.5323949752        2.9096706768       16.0587228508  WZ3       1908            0.0000000000
     15304      5102  TIP3      OH2            -3.2728649752        6.8438606768       16.7949728508  WZ3       1909            0.0000000000
     15305      5102  TIP3      H1             -3.7869149752        6.7180806768       17.5925728508  WZ3       1909            0.0000000000
     15306      5102  TIP3      H2             -3.4283949752        7.7561706768       16.5505928508  WZ3       1909            0.0000000000
     15307      5103  TIP3      OH2            -2.5103749752       11.7048606768        2.5562728508  WZ3       1910            0.0000000000
     15308      5103  TIP3      H1             -2.4682949752       11.4822506768        1.6262728508  WZ3       1910            0.0000000000
     15309      5103  TIP3      H2             -1.6611649752       12.1035706768        2.7462628508  WZ3       1910            0.0000000000
     15310      5104  TIP3      OH2            -6.9376249752        5.5806806768        3.2266028508  WZ3       1911            0.0000000000
     15311      5104  TIP3      H1             -7.1911449752        5.5998406768        4.1494128508  WZ3       1911            0.0000000000
     15312      5104  TIP3      H2             -7.1944149752        4.7092206768        2.9252228508  WZ3       1911            0.0000000000
     15313      5105  TIP3      OH2           -11.1711249752        8.3317506768       13.6618428508  WZ3       1912            0.0000000000
     15314      5105  TIP3      H1            -11.8129149752        8.2914806768       14.3708528508  WZ3       1912            0.0000000000
     15315      5105  TIP3      H2            -11.1339249752        9.2582206768       13.4241428508  WZ3       1912            0.0000000000
     15316      5106  TIP3      OH2           -11.1742149752        8.5527606768        8.5738428508  WZ3       1913            0.0000000000
     15317      5106  TIP3      H1            -12.0669249752        8.2123706768        8.5152228508  WZ3       1913            0.0000000000
     15318      5106  TIP3      H2            -10.7235549752        8.1758506768        7.8181628508  WZ3       1913            0.0000000000
     15319      5107  TIP3      OH2            -5.6386649752        8.9687906768        7.3909228508  WZ3       1914            0.0000000000
     15320      5107  TIP3      H1             -6.0476349752        9.7836506768        7.0994028508  WZ3       1914            0.0000000000
     15321      5107  TIP3      H2             -4.9180449752        8.8288006768        6.7766328508  WZ3       1914            0.0000000000
     15322      5108  TIP3      OH2            -6.5365049752        9.1444306768       18.8789928508  WZ3       1915            0.0000000000
     15323      5108  TIP3      H1             -7.0991249752        8.4395906768       19.1997728508  WZ3       1915            0.0000000000
     15324      5108  TIP3      H2             -5.7101649752        9.0236206768       19.3467528508  WZ3       1915            0.0000000000
     15325      5109  TIP3      OH2            -4.6338949752        8.4148306768       10.2048928508  WZ3       1916            0.0000000000
     15326      5109  TIP3      H1             -4.8294449752        9.0205106768        9.4899528508  WZ3       1916            0.0000000000
     15327      5109  TIP3      H2             -4.4526349752        7.5813506768        9.7705228508  WZ3       1916            0.0000000000
     15328      5110  TIP3      OH2           -13.4210749752        8.6521006768       15.5290428508  WZ3       1917            0.0000000000
     15329      5110  TIP3      H1            -13.4591349752        9.0522606768       16.3977528508  WZ3       1917            0.0000000000
     15330      5110  TIP3      H2            -13.9119649752        7.8353406768       15.6193328508  WZ3       1917            0.0000000000
     15331      5111  TIP3      OH2           -10.0553349752        6.0263306768        2.3276428508  WZ3       1918            0.0000000000
     15332      5111  TIP3      H1            -10.4862649752        5.5813406768        3.0573828508  WZ3       1918            0.0000000000
     15333      5111  TIP3      H2            -10.7734649752        6.3979606768        1.8153928508  WZ3       1918            0.0000000000
     15334      5112  TIP3      OH2           -16.8129949752        5.7682806768        9.3795128508  WZ3       1919            0.0000000000
     15335      5112  TIP3      H1            -16.1822249752        5.7394906768       10.0989028508  WZ3       1919            0.0000000000
     15336      5112  TIP3      H2            -16.3635649752        5.3431506768        8.6491028508  WZ3       1919            0.0000000000
     15337      5113  TIP3      OH2           -15.5387849752        6.5144806768        4.8035528508  WZ3       1920            0.0000000000
     15338      5113  TIP3      H1            -15.0646149752        7.1054706768        4.2186428508  WZ3       1920            0.0000000000
     15339      5113  TIP3      H2            -16.2561449752        7.0447706768        5.1505628508  WZ3       1920            0.0000000000
     15340      5114  TIP3      OH2            -5.3699749752       10.0529606768       14.8761328508  WZ3       1921            0.0000000000
     15341      5114  TIP3      H1             -5.0464949752        9.4219306768       14.2331828508  WZ3       1921            0.0000000000
     15342      5114  TIP3      H2             -5.8100449752        9.5181806768       15.5368728508  WZ3       1921            0.0000000000
     15343      5115  TIP3      OH2            -8.5926849752        5.9805106768        9.6602528508  WZ3       1922            0.0000000000
     15344      5115  TIP3      H1             -9.5035749752        6.0371906768        9.9488528508  WZ3       1922            0.0000000000
     15345      5115  TIP3      H2             -8.0873949752        5.9200606768       10.4709728508  WZ3       1922            0.0000000000
     15346      5116  TIP3      OH2           -13.7643449752        7.6091406768        8.4870128508  WZ3       1923            0.0000000000
     15347      5116  TIP3      H1            -14.6535449752        7.7086906768        8.1469728508  WZ3       1923            0.0000000000
     15348      5116  TIP3      H2            -13.4678549752        6.7674406768        8.1408028508  WZ3       1923            0.0000000000
     15349      5117  TIP3      OH2           -10.1111649752        7.6094006768        6.1434728508  WZ3       1924            0.0000000000
     15350      5117  TIP3      H1             -9.1796149752        7.7384006768        6.3217828508  WZ3       1924            0.0000000000
     15351      5117  TIP3      H2            -10.3261349752        8.2788306768        5.4939428508  WZ3       1924            0.0000000000
     15352      5118  TIP3      OH2            -4.1874949752        5.2151406768       12.9244328508  WZ3       1925            0.0000000000
     15353      5118  TIP3      H1             -4.8643349752        5.3464506768       13.5884028508  WZ3       1925            0.0000000000
     15354      5118  TIP3      H2             -4.6730049752        5.0600906768       12.1142028508  WZ3       1925            0.0000000000
     15355      5119  TIP3      OH2           -11.4371449752        8.8036206768        3.7100828508  WZ3       1926            0.0000000000
     15356      5119  TIP3      H1            -11.9796349752        8.4240006768        3.0188428508  WZ3       1926            0.0000000000
     15357      5119  TIP3      H2            -10.6036549752        8.9980906768        3.2814928508  WZ3       1926            0.0000000000
     15358      5120  TIP3      OH2            -0.8999849752       20.8866806768       19.2011928508  WZ3       1927            0.0000000000
     15359      5120  TIP3      H1             -0.7001149752       21.3108706768       18.3667228508  WZ3       1927            0.0000000000
     15360      5120  TIP3      H2             -0.2446149752       21.2305006768       19.8082328508  WZ3       1927            0.0000000000
     15361      5121  TIP3      OH2           -13.3020049752       13.3608106768       18.8092428508  WZ3       1928            0.0000000000
     15362      5121  TIP3      H1            -12.5697649752       13.6154006768       19.3706928508  WZ3       1928            0.0000000000
     15363      5121  TIP3      H2            -14.0821349752       13.5653506768       19.3247828508  WZ3       1928            0.0000000000
     15364      5122  TIP3      OH2            -7.2727149752        8.7678106768       11.5472128508  WZ3       1929            0.0000000000
     15365      5122  TIP3      H1             -6.7083749752        8.2214706768       11.0001728508  WZ3       1929            0.0000000000
     15366      5122  TIP3      H2             -7.4203749752        8.2460006768       12.3359728508  WZ3       1929            0.0000000000
     15367      5123  TIP3      OH2           -12.2707449752        4.9044206768        7.9656928508  WZ3       1930            0.0000000000
     15368      5123  TIP3      H1            -12.5877949752        4.0019506768        7.9302328508  WZ3       1930            0.0000000000
     15369      5123  TIP3      H2            -11.4893349752        4.9061606768        7.4128528508  WZ3       1930            0.0000000000
     15370      5124  TIP3      OH2            -8.6461249752        7.1564206768       13.9612528508  WZ3       1931            0.0000000000
     15371      5124  TIP3      H1             -9.4815949752        7.6103706768       14.0714928508  WZ3       1931            0.0000000000
     15372      5124  TIP3      H2             -8.1220649752        7.4322706768       14.7132428508  WZ3       1931            0.0000000000
     15373      5125  TIP3      OH2            -8.1018649752       13.3691906768        5.6458928508  WZ3       1932            0.0000000000
     15374      5125  TIP3      H1             -8.8467649752       12.8617206768        5.3236828508  WZ3       1932            0.0000000000
     15375      5125  TIP3      H2             -8.2361449752       13.4179906768        6.5923728508  WZ3       1932            0.0000000000
     15376      5126  TIP3      OH2            -0.9519749752       12.5020106768       14.4326528508  WZ3       1933            0.0000000000
     15377      5126  TIP3      H1             -0.3100949752       12.9586406768       13.8888728508  WZ3       1933            0.0000000000
     15378      5126  TIP3      H2             -1.7822849752       12.6152506768       13.9700628508  WZ3       1933            0.0000000000
     15379      5127  TIP3      OH2            -4.2041849752        6.1831806768        3.8451528508  WZ3       1934            0.0000000000
     15380      5127  TIP3      H1             -5.1427649752        6.2947406768        3.6940328508  WZ3       1934            0.0000000000
     15381      5127  TIP3      H2             -3.9069749752        7.0398706768        4.1517228508  WZ3       1934            0.0000000000
     15382      5128  TIP3      OH2            -6.5826549752       13.5535206768       16.8828028508  WZ3       1935            0.0000000000
     15383      5128  TIP3      H1             -6.9280449752       13.1717606768       17.6897628508  WZ3       1935            0.0000000000
     15384      5128  TIP3      H2             -6.7826449752       14.4868806768       16.9540928508  WZ3       1935            0.0000000000
     15385      5129  TIP3      OH2            -3.4858349752        8.0504506768        5.5058928508  WZ3       1936            0.0000000000
     15386      5129  TIP3      H1             -2.5939349752        7.9129506768        5.8250128508  WZ3       1936            0.0000000000
     15387      5129  TIP3      H2             -3.4294749752        8.8410606768        4.9692428508  WZ3       1936            0.0000000000
     15388      5130  TIP3      OH2           -12.9770349752       12.6641906768       11.4156828508  WZ3       1937            0.0000000000
     15389      5130  TIP3      H1            -12.2323149752       12.6617606768       10.8143328508  WZ3       1937            0.0000000000
     15390      5130  TIP3      H2            -12.8993749752       11.8405706768       11.8971928508  WZ3       1937            0.0000000000
     15391      5131  TIP3      OH2            -5.9764549752       14.8276206768        4.6713528508  WZ3       1938            0.0000000000
     15392      5131  TIP3      H1             -6.2716149752       15.6544106768        5.0528328508  WZ3       1938            0.0000000000
     15393      5131  TIP3      H2             -6.6794549752       14.2083106768        4.8674928508  WZ3       1938            0.0000000000
     15394      5132  TIP3      OH2           -15.9690649752       11.1248806768       16.7305328508  WZ3       1939            0.0000000000
     15395      5132  TIP3      H1            -15.7462049752       10.7068406768       17.5622828508  WZ3       1939            0.0000000000
     15396      5132  TIP3      H2            -16.5710549752       10.5123806768       16.3078128508  WZ3       1939            0.0000000000
     15397      5133  TIP3      OH2            -8.9525749752       10.6418706768       18.9435028508  WZ3       1940            0.0000000000
     15398      5133  TIP3      H1             -9.2484949752       10.4761706768       18.0484128508  WZ3       1940            0.0000000000
     15399      5133  TIP3      H2             -8.0210549752       10.4219006768       18.9328928508  WZ3       1940            0.0000000000
     15400      5134  TIP3      OH2            -4.3322949752       16.0150706768       16.8333028508  WZ3       1941            0.0000000000
     15401      5134  TIP3      H1             -5.2328649752       16.1983306768       16.5656928508  WZ3       1941            0.0000000000
     15402      5134  TIP3      H2             -4.2981849752       16.2740006768       17.7541828508  WZ3       1941            0.0000000000
     15403      5135  TIP3      OH2             1.3990350248        8.2598606768        5.2005628508  WZ3       1942            0.0000000000
     15404      5135  TIP3      H1              0.8446650248        7.8636606768        4.5283128508  WZ3       1942            0.0000000000
     15405      5135  TIP3      H2              1.4993950248        9.1703806768        4.9228928508  WZ3       1942            0.0000000000
     15406      5136  TIP3      OH2             1.3622350248       14.0600306768       18.0377128508  WZ3       1943            0.0000000000
     15407      5136  TIP3      H1              0.5110850248       14.2984106768       17.6703528508  WZ3       1943            0.0000000000
     15408      5136  TIP3      H2              1.9525750248       14.0433506768       17.2844228508  WZ3       1943            0.0000000000
     15409      5137  TIP3      OH2            -0.3057949752       17.0459006768        5.6657728508  WZ3       1944            0.0000000000
     15410      5137  TIP3      H1             -0.6786849752       16.2202806768        5.9748328508  WZ3       1944            0.0000000000
     15411      5137  TIP3      H2             -0.0284449752       16.8628406768        4.7681128508  WZ3       1944            0.0000000000
     15412      5138  TIP3      OH2            -3.1454049752       11.8538506768       12.6869628508  WZ3       1945            0.0000000000
     15413      5138  TIP3      H1             -4.0737149752       11.6220406768       12.6598928508  WZ3       1945            0.0000000000
     15414      5138  TIP3      H2             -2.6942949752       11.0768306768       12.3568428508  WZ3       1945            0.0000000000
     15415      5139  TIP3      OH2           -10.6020949752       16.1820106768        8.8198328508  WZ3       1946            0.0000000000
     15416      5139  TIP3      H1            -10.0748749752       16.9554506768        8.6197128508  WZ3       1946            0.0000000000
     15417      5139  TIP3      H2            -11.4822449752       16.4069306768        8.5182328508  WZ3       1946            0.0000000000
     15418      5140  TIP3      OH2           -14.8473249752       11.0444206768        3.4070728508  WZ3       1947            0.0000000000
     15419      5140  TIP3      H1            -14.2313349752       11.6711406768        3.7865528508  WZ3       1947            0.0000000000
     15420      5140  TIP3      H2            -15.7090649752       11.3604006768        3.6787228508  WZ3       1947            0.0000000000
     15421      5141  TIP3      OH2            -9.1748649752       13.8450006768        8.3962628508  WZ3       1948            0.0000000000
     15422      5141  TIP3      H1             -9.4158649752       14.7704406768        8.4377928508  WZ3       1948            0.0000000000
     15423      5141  TIP3      H2             -9.9155049752       13.3861306768        8.7926528508  WZ3       1948            0.0000000000
     15424      5142  TIP3      OH2            -8.6602049752       17.9943606768       14.7113728508  WZ3       1949            0.0000000000
     15425      5142  TIP3      H1             -8.2977349752       18.8489206768       14.4778128508  WZ3       1949            0.0000000000
     15426      5142  TIP3      H2             -8.1286849752       17.7025206768       15.4520028508  WZ3       1949            0.0000000000
     15427      5143  TIP3      OH2           -10.4917849752       18.8667606768        7.9414828508  WZ3       1950            0.0000000000
     15428      5143  TIP3      H1            -11.4417349752       18.9725006768        7.9928128508  WZ3       1950            0.0000000000
     15429      5143  TIP3      H2            -10.1399749752       19.6875006768        8.2862328508  WZ3       1950            0.0000000000
     15430      5144  TIP3      OH2            -5.1161249752       14.0934306768       14.4119328508  WZ3       1951            0.0000000000
     15431      5144  TIP3      H1             -5.5419949752       13.8656006768       15.2383328508  WZ3       1951            0.0000000000
     15432      5144  TIP3      H2             -4.5355449752       13.3546106768       14.2294628508  WZ3       1951            0.0000000000
     15433      5145  TIP3      OH2            -2.9132349752       15.0224806768        3.4858328508  WZ3       1952            0.0000000000
     15434      5145  TIP3      H1             -2.5599249752       14.6424606768        4.2901828508  WZ3       1952            0.0000000000
     15435      5145  TIP3      H2             -3.8618849752       14.9289606768        3.5727628508  WZ3       1952            0.0000000000
     15436      5146  TIP3      OH2            -2.4577049752       18.6453806768       16.8814128508  WZ3       1953            0.0000000000
     15437      5146  TIP3      H1             -3.0593849752       18.0896706768       16.3860428508  WZ3       1953            0.0000000000
     15438      5146  TIP3      H2             -2.1763349752       19.3123606768       16.2551528508  WZ3       1953            0.0000000000
     15439      5147  TIP3      OH2             1.5902050248       19.5017306768        3.6868528508  WZ3       1954            0.0000000000
     15440      5147  TIP3      H1              2.3339950248       20.0877806768        3.5470128508  WZ3       1954            0.0000000000
     15441      5147  TIP3      H2              0.8960150248       20.0703106768        4.0200928508  WZ3       1954            0.0000000000
     15442      5148  TIP3      OH2           -14.3351149752        5.8781506768       16.2886728508  WZ3       1955            0.0000000000
     15443      5148  TIP3      H1            -15.2278849752        6.2166906768       16.2210728508  WZ3       1955            0.0000000000
     15444      5148  TIP3      H2            -14.4338349752        5.0227606768       16.7067528508  WZ3       1955            0.0000000000
     15445      5149  TIP3      OH2            -2.0473049752       13.6946806768        5.7126228508  WZ3       1956            0.0000000000
     15446      5149  TIP3      H1             -2.3245449752       12.9666106768        6.2687328508  WZ3       1956            0.0000000000
     15447      5149  TIP3      H2             -1.1200049752       13.8138806768        5.9178828508  WZ3       1956            0.0000000000
     15448      5150  TIP3      OH2           -14.6839149752       17.6825906768       14.7236128508  WZ3       1957            0.0000000000
     15449      5150  TIP3      H1            -14.4668849752       16.7508306768       14.6925828508  WZ3       1957            0.0000000000
     15450      5150  TIP3      H2            -14.4375649752       17.9570906768       15.6068928508  WZ3       1957            0.0000000000
     15451      5151  TIP3      OH2            -8.8224549752       16.1340906768        1.9328328508  WZ3       1958            0.0000000000
     15452      5151  TIP3      H1             -8.5834749752       15.3859006768        1.3857228508  WZ3       1958            0.0000000000
     15453      5151  TIP3      H2             -9.0913249752       15.7462606768        2.7656128508  WZ3       1958            0.0000000000
     15454      5152  TIP3      OH2            -9.8853949752       15.7044706768        4.3890928508  WZ3       1959            0.0000000000
     15455      5152  TIP3      H1             -9.7385949752       15.1844506768        5.1791828508  WZ3       1959            0.0000000000
     15456      5152  TIP3      H2             -9.8882249752       16.6112306768        4.6956828508  WZ3       1959            0.0000000000
     15457      5153  TIP3      OH2           -13.4322849752       12.9568006768        4.8996328508  WZ3       1960            0.0000000000
     15458      5153  TIP3      H1            -14.1183549752       13.3090506768        5.4666028508  WZ3       1960            0.0000000000
     15459      5153  TIP3      H2            -12.9094949752       13.7197606768        4.6530628508  WZ3       1960            0.0000000000
     15460      5154  TIP3      OH2            -5.6007749752        5.6191806768       15.1785328508  WZ3       1961            0.0000000000
     15461      5154  TIP3      H1             -4.9019849752        5.6930506768       15.8285028508  WZ3       1961            0.0000000000
     15462      5154  TIP3      H2             -5.9816349752        4.7546806768       15.3328228508  WZ3       1961            0.0000000000
     15463      5155  TIP3      OH2            -4.8162849752        5.2713506768        6.2757628508  WZ3       1962            0.0000000000
     15464      5155  TIP3      H1             -4.5964549752        5.7428906768        5.4723028508  WZ3       1962            0.0000000000
     15465      5155  TIP3      H2             -4.2578849752        5.6656106768        6.9458228508  WZ3       1962            0.0000000000
     15466      5156  TIP3      OH2            -7.1476749752       17.4018306768        5.1385128508  WZ3       1963            0.0000000000
     15467      5156  TIP3      H1             -7.9640649752       17.8988006768        5.1909428508  WZ3       1963            0.0000000000
     15468      5156  TIP3      H2             -6.6180449752       17.8771806768        4.4983928508  WZ3       1963            0.0000000000
     15469      5157  TIP3      OH2            -7.6162949752        6.9992306768        7.1106028508  WZ3       1964            0.0000000000
     15470      5157  TIP3      H1             -6.8040349752        7.5035506768        7.1567728508  WZ3       1964            0.0000000000
     15471      5157  TIP3      H2             -7.8609949752        6.8542006768        8.0245628508  WZ3       1964            0.0000000000
     15472      5158  TIP3      OH2            -7.0806549752        7.9855006768       16.2952628508  WZ3       1965            0.0000000000
     15473      5158  TIP3      H1             -6.9616249752        8.5590406768       17.0523028508  WZ3       1965            0.0000000000
     15474      5158  TIP3      H2             -6.4251949752        7.2974406768       16.4100428508  WZ3       1965            0.0000000000
     15475      5159  TIP3      OH2            -6.7326249752        4.0805306768        8.0487128508  WZ3       1966            0.0000000000
     15476      5159  TIP3      H1             -7.0792749752        4.6975906768        8.6931428508  WZ3       1966            0.0000000000
     15477      5159  TIP3      H2             -6.0739349752        4.5811006768        7.5672628508  WZ3       1966            0.0000000000
     15478      5160  TIP3      OH2            -9.8093649752       18.4455506768        5.1202028508  WZ3       1967            0.0000000000
     15479      5160  TIP3      H1             -9.6484949752       19.2453006768        4.6194628508  WZ3       1967            0.0000000000
     15480      5160  TIP3      H2            -10.0065849752       18.7521506768        6.0052628508  WZ3       1967            0.0000000000
     15481      5161  TIP3      OH2           -11.0749249752        5.1434706768        4.7359628508  WZ3       1968            0.0000000000
     15482      5161  TIP3      H1            -11.1584449752        6.0317806768        5.0826028508  WZ3       1968            0.0000000000
     15483      5161  TIP3      H2            -10.1848949752        4.8781406768        4.9676428508  WZ3       1968            0.0000000000
     15484      5162  TIP3      OH2            -0.8760749752        5.8925306768       17.1302328508  WZ3       1969            0.0000000000
     15485      5162  TIP3      H1             -1.7924949752        6.1547006768       17.0426028508  WZ3       1969            0.0000000000
     15486      5162  TIP3      H2             -0.5405749752        5.8894306768       16.2337628508  WZ3       1969            0.0000000000
     15487      5163  TIP3      OH2            -2.2739749752        9.6426306768       11.2259628508  WZ3       1970            0.0000000000
     15488      5163  TIP3      H1             -3.0715349752        9.2276506768       10.8974628508  WZ3       1970            0.0000000000
     15489      5163  TIP3      H2             -1.8288649752        8.9520006768       11.7170128508  WZ3       1970            0.0000000000
     15490      5164  TIP3      OH2           -12.8163949752       15.5706906768        3.7964128508  WZ3       1971            0.0000000000
     15491      5164  TIP3      H1            -12.2242449752       16.2701706768        4.0726528508  WZ3       1971            0.0000000000
     15492      5164  TIP3      H2            -12.3570949752       15.1376406768        3.0768728508  WZ3       1971            0.0000000000
     15493      5165  TIP3      OH2           -14.5004749752        8.2349906768        2.9123528508  WZ3       1972            0.0000000000
     15494      5165  TIP3      H1            -14.5452149752        9.1743006768        3.0910528508  WZ3       1972            0.0000000000
     15495      5165  TIP3      H2            -15.3881549752        7.9994806768        2.6425628508  WZ3       1972            0.0000000000
     15496      5166  TIP3      OH2            -1.1875149752       18.8988806768       12.8483128508  WZ3       1973            0.0000000000
     15497      5166  TIP3      H1             -1.3430849752       19.5773206768       12.1912428508  WZ3       1973            0.0000000000
     15498      5166  TIP3      H2             -0.2548749752       18.9708106768       13.0513728508  WZ3       1973            0.0000000000
     15499      5167  TIP3      OH2           -13.6922749752        3.0166506768       11.5854528508  WZ3       1974            0.0000000000
     15500      5167  TIP3      H1            -13.9212949752        3.0759006768       10.6579528508  WZ3       1974            0.0000000000
     15501      5167  TIP3      H2            -14.1349349752        2.2252006768       11.8918628508  WZ3       1974            0.0000000000
     15502      5168  TIP3      OH2           -14.7619449752       16.9573606768        7.7460328508  WZ3       1975            0.0000000000
     15503      5168  TIP3      H1            -15.5940849752       17.4296306768        7.7731728508  WZ3       1975            0.0000000000
     15504      5168  TIP3      H2            -14.2161149752       17.4671206768        7.1473428508  WZ3       1975            0.0000000000
     15505      5169  TIP3      OH2           -15.4735749752       19.5697306768       19.0758328508  WZ3       1976            0.0000000000
     15506      5169  TIP3      H1            -14.9333549752       19.3531306768       19.8357528508  WZ3       1976            0.0000000000
     15507      5169  TIP3      H2            -15.9547749752       18.7643306768       18.8860828508  WZ3       1976            0.0000000000
     15508      5170  TIP3      OH2           -10.8762349752       18.4891706768       20.6962528508  WZ3       1977            0.0000000000
     15509      5170  TIP3      H1            -10.1085149752       18.0302506768       21.0371728508  WZ3       1977            0.0000000000
     15510      5170  TIP3      H2            -10.8976149752       18.2631506768       19.7663728508  WZ3       1977            0.0000000000
     15511      5171  TIP3      OH2            -6.7842749752       17.9972306768        2.0714328508  WZ3       1978            0.0000000000
     15512      5171  TIP3      H1             -7.4281749752       17.3660906768        2.3928028508  WZ3       1978            0.0000000000
     15513      5171  TIP3      H2             -6.0224449752       17.4660306768        1.8397828508  WZ3       1978            0.0000000000
     15514      5172  TIP3      OH2            -4.2993649752       16.8692806768       19.4254028508  WZ3       1979            0.0000000000
     15515      5172  TIP3      H1             -4.6504149752       16.0125806768       19.6684428508  WZ3       1979            0.0000000000
     15516      5172  TIP3      H2             -3.5730449752       17.0119506768       20.0323028508  WZ3       1979            0.0000000000
     15517      5173  TIP3      OH2            -2.1799849752       17.8142206768        2.3052328508  WZ3       1980            0.0000000000
     15518      5173  TIP3      H1             -1.8969449752       17.0197406768        2.7579228508  WZ3       1980            0.0000000000
     15519      5173  TIP3      H2             -1.4401949752       18.0473206768        1.7443428508  WZ3       1980            0.0000000000
     15520      5174  TIP3      OH2           -15.5666249752       13.3801406768       20.0302628508  WZ3       1981            0.0000000000
     15521      5174  TIP3      H1            -15.4225749752       12.4782106768       19.7439328508  WZ3       1981            0.0000000000
     15522      5174  TIP3      H2            -16.3388849752       13.6663506768       19.5424928508  WZ3       1981            0.0000000000
     15523      5175  TIP3      OH2           -11.2252549752       13.7237106768        2.1627228508  WZ3       1982            0.0000000000
     15524      5175  TIP3      H1            -11.1608449752       12.9296706768        2.6933628508  WZ3       1982            0.0000000000
     15525      5175  TIP3      H2            -10.5723349752       13.6049906768        1.4729228508  WZ3       1982            0.0000000000
     15526      5176  TIP3      OH2            -8.9110149752       13.3499506768       19.4629028508  WZ3       1983            0.0000000000
     15527      5176  TIP3      H1             -9.2396349752       13.6207606768       18.6056428508  WZ3       1983            0.0000000000
     15528      5176  TIP3      H2             -8.7591949752       12.4089306768       19.3754028508  WZ3       1983            0.0000000000
     15529      5177  TIP3      OH2            -5.8729149752       14.7708806768        1.8985228508  WZ3       1984            0.0000000000
     15530      5177  TIP3      H1             -6.1415049752       14.9510906768        2.7994128508  WZ3       1984            0.0000000000
     15531      5177  TIP3      H2             -6.0793549752       13.8455006768        1.7671028508  WZ3       1984            0.0000000000
     15532      5178  TIP3      OH2            -3.1764949752       13.2656806768       16.8461328508  WZ3       1985            0.0000000000
     15533      5178  TIP3      H1             -2.4310149752       13.8540506768       16.7265328508  WZ3       1985            0.0000000000
     15534      5178  TIP3      H2             -3.9338149752       13.8476506768       16.9094428508  WZ3       1985            0.0000000000
     15535      5179  TIP3      OH2           -14.7339749752       10.5804706768       19.4501928508  WZ3       1986            0.0000000000
     15536      5179  TIP3      H1            -14.3258549752        9.7231306768       19.3292528508  WZ3       1986            0.0000000000
     15537      5179  TIP3      H2            -14.9942149752       10.5946006768       20.3712228508  WZ3       1986            0.0000000000
     15538      5180  TIP3      OH2           -10.0758749752       11.6963306768        4.4685228508  WZ3       1987            0.0000000000
     15539      5180  TIP3      H1            -10.5356749752       11.2121606768        5.1543728508  WZ3       1987            0.0000000000
     15540      5180  TIP3      H2             -9.8210049752       11.0278706768        3.8325728508  WZ3       1987            0.0000000000
     15541      5181  TIP3      OH2           -10.7869449752        9.5890406768       16.8244828508  WZ3       1988            0.0000000000
     15542      5181  TIP3      H1            -11.4053349752       10.2637006768       17.1049528508  WZ3       1988            0.0000000000
     15543      5181  TIP3      H2            -10.4428249752        9.9104306768       15.9911028508  WZ3       1988            0.0000000000
     15544      5182  TIP3      OH2            -9.0048349752        9.9395106768        2.7308428508  WZ3       1989            0.0000000000
     15545      5182  TIP3      H1             -9.1853349752        9.7846306768        1.8036728508  WZ3       1989            0.0000000000
     15546      5182  TIP3      H2             -8.0547849752       10.0473806768        2.7756328508  WZ3       1989            0.0000000000
     15547      5183  TIP3      OH2            -5.7671249752       12.0605706768       20.1019628508  WZ3       1990            0.0000000000
     15548      5183  TIP3      H1             -4.8140049752       12.1444806768       20.0745628508  WZ3       1990            0.0000000000
     15549      5183  TIP3      H2             -5.9276649752       11.3487506768       20.7214528508  WZ3       1990            0.0000000000
     15550      5184  TIP3      OH2             0.3849950248       12.2939306768        2.1766528508  WZ3       1991            0.0000000000
     15551      5184  TIP3      H1              0.1114750248       11.8694806768        1.3634828508  WZ3       1991            0.0000000000
     15552      5184  TIP3      H2              0.4244050248       13.2253806768        1.9596928508  WZ3       1991            0.0000000000
     15553      5185  TIP3      OH2           -10.4475749752        6.9441206768       17.9067928508  WZ3       1992            0.0000000000
     15554      5185  TIP3      H1            -10.2974849752        6.2152506768       17.3047628508  WZ3       1992            0.0000000000
     15555      5185  TIP3      H2            -10.4453349752        7.7212906768       17.3480128508  WZ3       1992            0.0000000000
     15556      5186  TIP3      OH2           -10.0350049752        5.3137006768       15.3995328508  WZ3       1993            0.0000000000
     15557      5186  TIP3      H1             -9.4992549752        5.7653706768       14.7474628508  WZ3       1993            0.0000000000
     15558      5186  TIP3      H2            -10.8870449752        5.2056806768       14.9769428508  WZ3       1993            0.0000000000
     15559      5187  TIP3      OH2            -8.4531649752       10.7533206768       15.6390528508  WZ3       1994            0.0000000000
     15560      5187  TIP3      H1             -7.7026849752       10.5970706768       15.0658328508  WZ3       1994            0.0000000000
     15561      5187  TIP3      H2             -8.7923349752       11.6049806768       15.3636028508  WZ3       1994            0.0000000000
     15562      5188  TIP3      OH2            -4.0375449752        8.5685006768       20.6675828508  WZ3       1995            0.0000000000
     15563      5188  TIP3      H1             -3.8454149752        7.6374406768       20.5560328508  WZ3       1995            0.0000000000
     15564      5188  TIP3      H2             -3.1799149752        8.9934506768       20.6571228508  WZ3       1995            0.0000000000
     15565      5189  TIP3      OH2            -2.7208249752       11.3570206768       18.7448528508  WZ3       1996            0.0000000000
     15566      5189  TIP3      H1             -3.0023249752       12.0664806768       18.1672328508  WZ3       1996            0.0000000000
     15567      5189  TIP3      H2             -1.7783949752       11.2843206768       18.5939728508  WZ3       1996            0.0000000000
     15568      5190  TIP3      OH2           -11.9689449752        8.1424706768       19.8183528508  WZ3       1997            0.0000000000
     15569      5190  TIP3      H1            -12.7360449752        7.6099506768       19.6081128508  WZ3       1997            0.0000000000
     15570      5190  TIP3      H2            -11.2900449752        7.8325106768       19.2189828508  WZ3       1997            0.0000000000
     15571      5191  TIP3      OH2            -9.2294549752        2.7702706768       15.8308928508  WZ3       1998            0.0000000000
     15572      5191  TIP3      H1             -9.3274949752        3.7165906768       15.7255128508  WZ3       1998            0.0000000000
     15573      5191  TIP3      H2             -9.9718349752        2.3976506768       15.3552428508  WZ3       1998            0.0000000000
     15574      5192  TIP3      OH2            -7.9654049752        7.0918106768       19.3947328508  WZ3       1999            0.0000000000
     15575      5192  TIP3      H1             -8.2008649752        6.8724806768       20.2962228508  WZ3       1999            0.0000000000
     15576      5192  TIP3      H2             -8.7487149752        6.8849306768       18.8849828508  WZ3       1999            0.0000000000
     15577      5193  TIP3      OH2            -5.2497449752        6.2191606768       18.4700828508  WZ3       2000            0.0000000000
     15578      5193  TIP3      H1             -6.1972049752        6.2511306768       18.6024128508  WZ3       2000            0.0000000000
     15579      5193  TIP3      H2             -4.9370749752        5.5938706768       19.1239028508  WZ3       2000            0.0000000000
     15580      5194  TIP3      OH2            -3.6155949752        4.8532706768       20.4752728508  WZ3       2001            0.0000000000
     15581      5194  TIP3      H1             -3.7124149752        3.9010006768       20.4694628508  WZ3       2001            0.0000000000
     15582      5194  TIP3      H2             -3.9372849752        5.1219506768       21.3358228508  WZ3       2001            0.0000000000
     15583      5195  TIP3      OH2           -13.7886649752        6.0628506768       19.5228228508  WZ3       2002            0.0000000000
     15584      5195  TIP3      H1            -13.5769249752        5.3564606768       18.9125728508  WZ3       2002            0.0000000000
     15585      5195  TIP3      H2            -13.8999149752        5.6254506768       20.3669428508  WZ3       2002            0.0000000000
     15586      5196  TIP3      OH2            -9.0076449752        2.0640106768       18.5021728508  WZ3       2003            0.0000000000
     15587      5196  TIP3      H1             -8.2958049752        1.4242306768       18.4880828508  WZ3       2003            0.0000000000
     15588      5196  TIP3      H2             -9.1086049752        2.3308406768       17.5884828508  WZ3       2003            0.0000000000
     15589      5197  TIP3      OH2            -8.6538949752        3.7468506768       20.5558028508  WZ3       2004            0.0000000000
     15590      5197  TIP3      H1             -8.7856749752        3.2712306768       19.7356528508  WZ3       2004            0.0000000000
     15591      5197  TIP3      H2             -9.2531549752        4.4912106768       20.5005128508  WZ3       2004            0.0000000000
     15592      5198  TIP3      OH2            -9.1076649752       20.6298806768        3.7322028508  WZ3       2005            0.0000000000
     15593      5198  TIP3      H1             -8.1745949752       20.7877506768        3.8760428508  WZ3       2005            0.0000000000
     15594      5198  TIP3      H2             -9.3717849752       21.3051806768        3.1073528508  WZ3       2005            0.0000000000
     15595      5199  TIP3      OH2           -15.5391749752       15.2662606768        3.2150128508  WZ3       2006            0.0000000000
     15596      5199  TIP3      H1            -14.6252549752       15.3451506768        3.4884028508  WZ3       2006            0.0000000000
     15597      5199  TIP3      H2            -15.5318649752       14.5792206768        2.5485728508  WZ3       2006            0.0000000000
     15598      5200  TIP3      OH2           -16.8901149752       20.6591106768        8.2924028508  WZ3       2007            0.0000000000
     15599      5200  TIP3      H1            -17.5374049752       20.1972806768        7.7595228508  WZ3       2007            0.0000000000
     15600      5200  TIP3      H2            -16.5356549752       19.9874406768        8.8750228508  WZ3       2007            0.0000000000
     15601      5201  TIP3      OH2           -16.0201949752       18.7398106768       10.0970228508  WZ3       2008            0.0000000000
     15602      5201  TIP3      H1            -16.3545149752       17.8595406768       10.2690428508  WZ3       2008            0.0000000000
     15603      5201  TIP3      H2            -15.7979549752       19.0853106768       10.9615828508  WZ3       2008            0.0000000000
     15604      5202  TIP3      OH2             1.5282850248       19.5494506768       13.0775028508  WZ3       2009            0.0000000000
     15605      5202  TIP3      H1              1.5069550248       19.7342906768       14.0164428508  WZ3       2009            0.0000000000
     15606      5202  TIP3      H2              2.2189050248       20.1178506768       12.7366428508  WZ3       2009            0.0000000000
     15607      5203  TIP3      OH2             1.0915750248       19.1165606768       15.9994128508  WZ3       2010            0.0000000000
     15608      5203  TIP3      H1              0.6044450248       18.3809706768       15.6281528508  WZ3       2010            0.0000000000
     15609      5203  TIP3      H2              1.6408450248       18.7229506768       16.6773528508  WZ3       2010            0.0000000000
     15610      5204  TIP3      OH2            -0.4576949752       14.9063706768       20.6374428508  WZ3       2011            0.0000000000
     15611      5204  TIP3      H1             -1.3235849752       14.8013406768       21.0316728508  WZ3       2011            0.0000000000
     15612      5204  TIP3      H2             -0.0811049752       15.6647006768       21.0839128508  WZ3       2011            0.0000000000
     15613      5205  TIP3      OH2             0.8432750248       13.1627406768        6.1516928508  WZ3       2012            0.0000000000
     15614      5205  TIP3      H1              1.6934150248       13.5838306768        6.2788528508  WZ3       2012            0.0000000000
     15615      5205  TIP3      H2              0.8487850248       12.4227506768        6.7588328508  WZ3       2012            0.0000000000
     15616      5206  TIP3      OH2             1.2378350248       11.2164806768        7.9752628508  WZ3       2013            0.0000000000
     15617      5206  TIP3      H1              0.5112950248       10.7367406768        8.3730228508  WZ3       2013            0.0000000000
     15618      5206  TIP3      H2              1.8191650248       11.4219506768        8.7074228508  WZ3       2013            0.0000000000
     15619      5207  TIP3      OH2             0.9969550248       14.0012306768       12.9230228508  WZ3       2014            0.0000000000
     15620      5207  TIP3      H1              1.8303750248       13.6232306768       12.6423828508  WZ3       2014            0.0000000000
     15621      5207  TIP3      H2              1.1089850248       14.9443506768       12.8039328508  WZ3       2014            0.0000000000
     15622      5208  TIP3      OH2            -0.5168149752       16.8789806768       15.2298628508  WZ3       2015            0.0000000000
     15623      5208  TIP3      H1             -1.1642849752       17.2041306768       15.8553828508  WZ3       2015            0.0000000000
     15624      5208  TIP3      H2             -1.0344149752       16.4387506768       14.5556928508  WZ3       2015            0.0000000000
     15625      5209  TIP3      OH2             1.5061450248       11.1173306768        4.3663928508  WZ3       2016            0.0000000000
     15626      5209  TIP3      H1              0.9842550248       11.4737406768        3.6474828508  WZ3       2016            0.0000000000
     15627      5209  TIP3      H2              1.4730650248       11.7921106768        5.0444828508  WZ3       2016            0.0000000000
     15628      5210  TIP3      OH2            -0.1449549752        8.3568906768        2.9171028508  WZ3       2017            0.0000000000
     15629      5210  TIP3      H1             -0.0485149752        9.0235906768        2.2370728508  WZ3       2017            0.0000000000
     15630      5210  TIP3      H2             -0.2849949752        7.5415206768        2.4356528508  WZ3       2017            0.0000000000
     15631      5211  TIP3      OH2            -0.9754849752        9.7371306768        8.5381328508  WZ3       2018            0.0000000000
     15632      5211  TIP3      H1             -1.1256049752        8.7919906768        8.5179128508  WZ3       2018            0.0000000000
     15633      5211  TIP3      H2             -1.3290349752       10.0182706768        9.3820428508  WZ3       2018            0.0000000000
     15634      5212  TIP3      OH2           -15.9402449752       11.8153506768       12.5485128508  WZ3       2019            0.0000000000
     15635      5212  TIP3      H1            -15.7559549752       11.7335206768       11.6128028508  WZ3       2019            0.0000000000
     15636      5212  TIP3      H2            -15.0909549752       11.6910506768       12.9721528508  WZ3       2019            0.0000000000
     15637      5213  TIP3      OH2            -0.1191949752       11.7074606768       18.1769628508  WZ3       2020            0.0000000000
     15638      5213  TIP3      H1              0.4635350248       10.9726906768       18.3686828508  WZ3       2020            0.0000000000
     15639      5213  TIP3      H2              0.4447350248       12.4794906768       18.2235428508  WZ3       2020            0.0000000000
     15640      5214  TIP3      OH2             1.3775150248        9.6100406768       18.8615028508  WZ3       2021            0.0000000000
     15641      5214  TIP3      H1              0.5141850248        9.2312506768       18.6959728508  WZ3       2021            0.0000000000
     15642      5214  TIP3      H2              1.9818850248        8.8715206768       18.7870828508  WZ3       2021            0.0000000000
     15643      5215  TIP3      OH2            -0.8975749752        5.7648706768        2.0346528508  WZ3       2022            0.0000000000
     15644      5215  TIP3      H1             -0.2869949752        5.3935506768        2.6714728508  WZ3       2022            0.0000000000
     15645      5215  TIP3      H2             -1.7344249752        5.3435606768        2.2306528508  WZ3       2022            0.0000000000
     15646      5216  TIP3      OH2            -1.2650049752        7.3197106768        7.0006428508  WZ3       2023            0.0000000000
     15647      5216  TIP3      H1             -0.9852949752        6.4127506768        7.1248128508  WZ3       2023            0.0000000000
     15648      5216  TIP3      H2             -0.5058349752        7.7538606768        6.6115628508  WZ3       2023            0.0000000000
     15649      5217  TIP3      OH2            -0.6531749752        7.9014506768       12.4365328508  WZ3       2024            0.0000000000
     15650      5217  TIP3      H1              0.2796250248        8.1134406768       12.4021328508  WZ3       2024            0.0000000000
     15651      5217  TIP3      H2             -0.8884249752        8.0026606768       13.3588328508  WZ3       2024            0.0000000000
     15652      5218  TIP3      OH2            -0.6239849752        8.6379806768       15.2124728508  WZ3       2025            0.0000000000
     15653      5218  TIP3      H1             -1.4668549752        8.9060206768       15.5784528508  WZ3       2025            0.0000000000
     15654      5218  TIP3      H2             -0.1815549752        9.4601706768       15.0015828508  WZ3       2025            0.0000000000
     15655      5219  TIP3      OH2           -16.3427649752        7.0858506768       18.6893928508  WZ3       2026            0.0000000000
     15656      5219  TIP3      H1            -15.4232749752        6.9636806768       18.9257028508  WZ3       2026            0.0000000000
     15657      5219  TIP3      H2            -16.7923149752        6.3358206768       19.0787428508  WZ3       2026            0.0000000000
     15658      5220  TIP3      OH2             1.6591750248        2.6180006768       20.5659728508  WZ3       2027            0.0000000000
     15659      5220  TIP3      H1              2.0088750248        1.9643506768       19.9604428508  WZ3       2027            0.0000000000
     15660      5220  TIP3      H2              1.8061250248        3.4554106768       20.1262328508  WZ3       2027            0.0000000000
     15661      5221  TIP3      OH2            -0.6515249752        4.5826406768        7.0488428508  WZ3       2028            0.0000000000
     15662      5221  TIP3      H1             -0.4690249752        4.1337906768        7.8743428508  WZ3       2028            0.0000000000
     15663      5221  TIP3      H2             -1.2512349752        3.9980806768        6.5853028508  WZ3       2028            0.0000000000
     15664      5222  TIP3      OH2           -15.1215149752        5.3980106768       11.5806828508  WZ3       2029            0.0000000000
     15665      5222  TIP3      H1            -14.6763549752        4.6062606768       11.8826528508  WZ3       2029            0.0000000000
     15666      5222  TIP3      H2            -14.6552149752        6.1145306768       12.0112428508  WZ3       2029            0.0000000000
     15667      5223  TIP3      OH2           -16.8174849752        8.3973106768       12.6497028508  WZ3       2030            0.0000000000
     15668      5223  TIP3      H1            -16.3255049752        8.1763606768       11.8589028508  WZ3       2030            0.0000000000
     15669      5223  TIP3      H2            -16.4553949752        9.2376506768       12.9306528508  WZ3       2030            0.0000000000
     15670      5224  TIP3      OH2             1.1788950248        4.7274606768       18.9151028508  WZ3       2031            0.0000000000
     15671      5224  TIP3      H1              0.2614650248        4.9981706768       18.8794528508  WZ3       2031            0.0000000000
     15672      5224  TIP3      H2              1.3018350248        4.1923006768       18.1310728508  WZ3       2031            0.0000000000
     15673      5225  TIP3      OH2             1.2150950248        4.6504506768        3.5768728508  WZ3       2032            0.0000000000
     15674      5225  TIP3      H1              1.6273550248        3.9290206768        3.1016728508  WZ3       2032            0.0000000000
     15675      5225  TIP3      H2              1.8967450248        5.3199106768        3.6353028508  WZ3       2032            0.0000000000
     15676      5226  TIP3      OH2           -16.5038349752        4.6552206768        6.7039428508  WZ3       2033            0.0000000000
     15677      5226  TIP3      H1            -17.4289949752        4.8638806768        6.5744928508  WZ3       2033            0.0000000000
     15678      5226  TIP3      H2            -16.0498449752        5.1393006768        6.0141728508  WZ3       2033            0.0000000000
     15679      5227  TIP3      OH2            -1.7331149752       19.6393906768        8.6496828508  WZ3       2034            0.0000000000
     15680      5227  TIP3      H1             -1.0808249752       19.2916006768        8.0415928508  WZ3       2034            0.0000000000
     15681      5227  TIP3      H2             -1.2227349752       20.1277106768        9.2956528508  WZ3       2034            0.0000000000
     15682      5228  TIP3      OH2           -16.5402949752        3.3931206768       15.0481928508  WZ3       2035            0.0000000000
     15683      5228  TIP3      H1            -17.2052449752        3.1471506768       15.6912828508  WZ3       2035            0.0000000000
     15684      5228  TIP3      H2            -16.9831649752        4.0151606768       14.4709928508  WZ3       2035            0.0000000000
     15685      5229  TIP3      OH2           -14.3483649752       16.5685306768       19.1927728508  WZ3       2036            0.0000000000
     15686      5229  TIP3      H1            -15.1691149752       16.7431806768       18.7322428508  WZ3       2036            0.0000000000
     15687      5229  TIP3      H2            -14.6005849752       16.4950006768       20.1132128508  WZ3       2036            0.0000000000
     15688      5230  TIP3      OH2           -11.3940749752       17.5426506768       15.4511728508  WZ3       2037            0.0000000000
     15689      5230  TIP3      H1            -11.8189649752       18.3525006768       15.1686328508  WZ3       2037            0.0000000000
     15690      5230  TIP3      H2            -10.4897949752       17.6280606768       15.1491528508  WZ3       2037            0.0000000000
     15691      5231  TIP3      OH2            -7.0829349752       18.9416506768       18.4105428508  WZ3       2038            0.0000000000
     15692      5231  TIP3      H1             -6.8981849752       18.6082606768       19.2885728508  WZ3       2038            0.0000000000
     15693      5231  TIP3      H2             -6.2364849752       19.2515106768       18.0884628508  WZ3       2038            0.0000000000
     15694      5232  TIP3      OH2            -4.7378949752       20.2275406768       17.6546828508  WZ3       2039            0.0000000000
     15695      5232  TIP3      H1             -4.0610049752       19.5947706768       17.4146028508  WZ3       2039            0.0000000000
     15696      5232  TIP3      H2             -4.4160149752       20.6285906768       18.4620128508  WZ3       2039            0.0000000000
     15697      5233  TIP3      OH2             0.1794850248        2.8170906768       16.7341828508  WZ3       2040            0.0000000000
     15698      5233  TIP3      H1             -0.6331649752        3.1421206768       16.3466528508  WZ3       2040            0.0000000000
     15699      5233  TIP3      H2              0.4123350248        2.0569406768       16.2010928508  WZ3       2040            0.0000000000
     15700      5234  TIP3      OH2           -13.9924049752       20.7990406768       15.4987028508  WZ3       2041            0.0000000000
     15701      5234  TIP3      H1            -14.7127649752       21.2391406768       15.0474728508  WZ3       2041            0.0000000000
     15702      5234  TIP3      H2            -14.3580049752       20.5485106768       16.3471028508  WZ3       2041            0.0000000000
     15703      5235  TIP3      OH2           -11.5251449752       20.3994306768       14.5284228508  WZ3       2042            0.0000000000
     15704      5235  TIP3      H1            -12.3899249752       20.4712806768       14.9324328508  WZ3       2042            0.0000000000
     15705      5235  TIP3      H2            -11.5802449752       20.9461606768       13.7446728508  WZ3       2042            0.0000000000
     15706      5236  TIP3      OH2            -6.8145849752       20.2873206768       13.7040228508  WZ3       2043            0.0000000000
     15707      5236  TIP3      H1             -7.2711849752       20.8162906768       13.0498628508  WZ3       2043            0.0000000000
     15708      5236  TIP3      H2             -6.6517849752       20.8904606768       14.4292528508  WZ3       2043            0.0000000000
     15709      5237  TIP3      OH2            -4.4869549752       19.1652806768       14.6490528508  WZ3       2044            0.0000000000
     15710      5237  TIP3      H1             -5.3915849752       19.3303006768       14.3832628508  WZ3       2044            0.0000000000
     15711      5237  TIP3      H2             -4.0580949752       20.0185006768       14.5833928508  WZ3       2044            0.0000000000
     15712      5238  TIP3      OH2            -1.8827649752       20.7351906768       14.9438328508  WZ3       2045            0.0000000000
     15713      5238  TIP3      H1             -2.0645649752       21.6510806768       14.7333228508  WZ3       2045            0.0000000000
     15714      5238  TIP3      H2             -1.7059849752       20.3249006768       14.0972928508  WZ3       2045            0.0000000000
     15715      5239  TIP3      OH2           -14.5775949752       19.4222906768       12.4088828508  WZ3       2046            0.0000000000
     15716      5239  TIP3      H1            -14.5959949752       18.9968006768       13.2661128508  WZ3       2046            0.0000000000
     15717      5239  TIP3      H2            -13.7728049752       19.1037906768       12.0001028508  WZ3       2046            0.0000000000
     15718      5240  TIP3      OH2           -12.4362849752       18.1321606768       11.0638728508  WZ3       2047            0.0000000000
     15719      5240  TIP3      H1            -12.6552149752       17.2159006768       11.2334728508  WZ3       2047            0.0000000000
     15720      5240  TIP3      H2            -11.6120649752       18.2722006768       11.5300128508  WZ3       2047            0.0000000000
     15721      5241  TIP3      OH2            -9.8990349752       18.6020906768       11.9126728508  WZ3       2048            0.0000000000
     15722      5241  TIP3      H1             -9.6864649752       17.7139906768       11.6257628508  WZ3       2048            0.0000000000
     15723      5241  TIP3      H2             -9.8345249752       18.5678606768       12.8670728508  WZ3       2048            0.0000000000
     15724      5242  TIP3      OH2            -6.3906649752        4.2661506768       11.0570028508  WZ3       2049            0.0000000000
     15725      5242  TIP3      H1             -7.0649849752        3.6367106768       11.3125828508  WZ3       2049            0.0000000000
     15726      5242  TIP3      H2             -5.8267449752        3.7820406768       10.4537928508  WZ3       2049            0.0000000000
     15727      5243  TIP3      OH2            -1.2479449752        2.3735506768       11.1697128508  WZ3       2050            0.0000000000
     15728      5243  TIP3      H1             -0.6441849752        2.9210906768       10.6678128508  WZ3       2050            0.0000000000
     15729      5243  TIP3      H2             -2.1177449752        2.6925906768       10.9291228508  WZ3       2050            0.0000000000
     15730      5244  TIP3      OH2             0.4790950248        3.5124206768        9.5028028508  WZ3       2051            0.0000000000
     15731      5244  TIP3      H1              1.0908450248        2.9979906768        8.9761628508  WZ3       2051            0.0000000000
     15732      5244  TIP3      H2              0.8614350248        4.3896306768        9.5262428508  WZ3       2051            0.0000000000
     15733      5245  TIP3      OH2           -14.0639149752        2.9001806768        8.8789928508  WZ3       2052            0.0000000000
     15734      5245  TIP3      H1            -14.8409349752        2.6656706768        8.3715828508  WZ3       2052            0.0000000000
     15735      5245  TIP3      H2            -13.5335549752        2.1033906768        8.8877928508  WZ3       2052            0.0000000000
     15736      5246  TIP3      OH2           -15.2275749752        2.6979906768        4.6826028508  WZ3       2053            0.0000000000
     15737      5246  TIP3      H1            -14.7885049752        3.3090406768        4.0909528508  WZ3       2053            0.0000000000
     15738      5246  TIP3      H2            -15.8613349752        3.2364006768        5.1566028508  WZ3       2053            0.0000000000
     15739      5247  TIP3      OH2            -9.4846549752        2.8268906768        8.6923028508  WZ3       2054            0.0000000000
     15740      5247  TIP3      H1             -8.6103149752        3.2153206768        8.6627328508  WZ3       2054            0.0000000000
     15741      5247  TIP3      H2             -9.6205749752        2.6116706768        9.6150228508  WZ3       2054            0.0000000000
     15742      5248  TIP3      OH2            -3.9278149752        2.8568706768       10.3414728508  WZ3       2055            0.0000000000
     15743      5248  TIP3      H1             -3.8516549752        2.9520306768        9.3920728508  WZ3       2055            0.0000000000
     15744      5248  TIP3      H2             -4.2028949752        1.9491606768       10.4703828508  WZ3       2055            0.0000000000
     15745      5249  TIP3      OH2            -2.5745549752        2.8826506768        6.0339728508  WZ3       2056            0.0000000000
     15746      5249  TIP3      H1             -3.2774449752        3.4975706768        5.8241128508  WZ3       2056            0.0000000000
     15747      5249  TIP3      H2             -3.0194149752        2.0453206768        6.1650628508  WZ3       2056            0.0000000000
     15748      5250  TIP3      OH2           -15.3266249752       18.6462106768        5.5801128508  WZ3       2057            0.0000000000
     15749      5250  TIP3      H1            -16.0116349752       18.6081006768        4.9126228508  WZ3       2057            0.0000000000
     15750      5250  TIP3      H2            -15.3229049752       19.5589706768        5.8683228508  WZ3       2057            0.0000000000
     15751      5251  TIP3      OH2           -13.3666649752        4.6141406768        3.1250128508  WZ3       2058            0.0000000000
     15752      5251  TIP3      H1            -12.8753249752        3.9843806768        2.5975628508  WZ3       2058            0.0000000000
     15753      5251  TIP3      H2            -12.7430349752        4.9100806768        3.7881328508  WZ3       2058            0.0000000000
     15754      5252  TIP3      OH2            -8.3406549752        4.9072906768        5.5820628508  WZ3       2059            0.0000000000
     15755      5252  TIP3      H1             -8.1625249752        4.2606106768        6.2649228508  WZ3       2059            0.0000000000
     15756      5252  TIP3      H2             -8.3940349752        5.7410606768        6.0491728508  WZ3       2059            0.0000000000
     15757      5253  TIP3      OH2            -6.4622749752       19.8557006768        3.9777328508  WZ3       2060            0.0000000000
     15758      5253  TIP3      H1             -5.5962549752       20.2224406768        3.7995528508  WZ3       2060            0.0000000000
     15759      5253  TIP3      H2             -6.7089949752       19.4165006768        3.1638128508  WZ3       2060            0.0000000000
     15760      5254  TIP3      OH2             0.2466850248       19.4187306768        6.6568428508  WZ3       2061            0.0000000000
     15761      5254  TIP3      H1              0.0523950248       18.6709406768        6.0918028508  WZ3       2061            0.0000000000
     15762      5254  TIP3      H2              0.2076950248       20.1767406768        6.0736328508  WZ3       2061            0.0000000000
     15763      5255  TIP3      OH2           -14.1061149752        3.4143706768       18.3966128508  WZ3       2062            0.0000000000
     15764      5255  TIP3      H1            -14.4722949752        2.6486306768       18.8390828508  WZ3       2062            0.0000000000
     15765      5255  TIP3      H2            -13.1932649752        3.4433906768       18.6831228508  WZ3       2062            0.0000000000
     15766      5256  TIP3      OH2           -12.1330349752        2.7648106768       19.9323228508  WZ3       2063            0.0000000000
     15767      5256  TIP3      H1            -11.2346749752        2.4908306768       19.7476628508  WZ3       2063            0.0000000000
     15768      5256  TIP3      H2            -12.5197249752        2.0224106768       20.3965828508  WZ3       2063            0.0000000000
     15769      5257  TIP3      OH2           -13.5085049752       19.5662906768        2.6053228508  WZ3       2064            0.0000000000
     15770      5257  TIP3      H1            -13.7760449752       19.8525806768        3.4786328508  WZ3       2064            0.0000000000
     15771      5257  TIP3      H2            -12.7372449752       19.0202106768        2.7575728508  WZ3       2064            0.0000000000
     15772      5258  TIP3      OH2            -3.7118049752        2.0973406768       20.1146028508  WZ3       2065            0.0000000000
     15773      5258  TIP3      H1             -3.6350849752        1.6714106768       20.9683728508  WZ3       2065            0.0000000000
     15774      5258  TIP3      H2             -2.8181449752        2.1108106768       19.7719528508  WZ3       2065            0.0000000000
     15775      5259  TIP3      OH2            -0.5356949752       18.1699706768       18.8070228508  WZ3       2066            0.0000000000
     15776      5259  TIP3      H1             -1.3175049752       17.9837706768       18.2870828508  WZ3       2066            0.0000000000
     15777      5259  TIP3      H2             -0.6077049752       19.0994006768       19.0242728508  WZ3       2066            0.0000000000
     15778      5260  TIP3      OH2            13.8703450248       12.0564106768        8.8377428508  WZ3       2067            0.0000000000
     15779      5260  TIP3      H1             13.9594550248       13.0002306768        8.7054528508  WZ3       2067            0.0000000000
     15780      5260  TIP3      H2             13.2321050248       11.7810506768        8.1796828508  WZ3       2067            0.0000000000
     15781      5261  TIP3      OH2            12.8034750248       11.3114806768       12.2565628508  WZ3       2068            0.0000000000
     15782      5261  TIP3      H1             12.7652250248       10.6651106768       12.9615228508  WZ3       2068            0.0000000000
     15783      5261  TIP3      H2             12.4811250248       10.8449206768       11.4854328508  WZ3       2068            0.0000000000
     15784      5262  TIP3      OH2             5.1719750248       10.9256906768       13.8495528508  WZ3       2069            0.0000000000
     15785      5262  TIP3      H1              5.2131850248       10.3000206768       14.5727928508  WZ3       2069            0.0000000000
     15786      5262  TIP3      H2              5.8747450248       11.5495506768       14.0315928508  WZ3       2069            0.0000000000
     15787      5263  TIP3      OH2            16.5094950248       14.2505206768       10.5580728508  WZ3       2070            0.0000000000
     15788      5263  TIP3      H1             16.0687650248       13.5301206768       11.0086328508  WZ3       2070            0.0000000000
     15789      5263  TIP3      H2             16.4964650248       14.9712406768       11.1878428508  WZ3       2070            0.0000000000
     15790      5264  TIP3      OH2             6.0952850248       15.3755806768       12.3844628508  WZ3       2071            0.0000000000
     15791      5264  TIP3      H1              5.7258050248       14.5736306768       12.0148928508  WZ3       2071            0.0000000000
     15792      5264  TIP3      H2              7.0363950248       15.2070706768       12.4308028508  WZ3       2071            0.0000000000
     15793      5265  TIP3      OH2             2.7053350248        9.0358406768        7.7773428508  WZ3       2072            0.0000000000
     15794      5265  TIP3      H1              2.2576750248        9.8817106768        7.7589928508  WZ3       2072            0.0000000000
     15795      5265  TIP3      H2              2.1444550248        8.4562606768        7.2618528508  WZ3       2072            0.0000000000
     15796      5266  TIP3      OH2             3.4159450248       11.1978006768        9.9031428508  WZ3       2073            0.0000000000
     15797      5266  TIP3      H1              3.6292950248       10.4279606768       10.4304428508  WZ3       2073            0.0000000000
     15798      5266  TIP3      H2              4.1537050248       11.2874706768        9.2999028508  WZ3       2073            0.0000000000
     15799      5267  TIP3      OH2            13.6210450248       19.3546906768       10.7701128508  WZ3       2074            0.0000000000
     15800      5267  TIP3      H1             14.2406850248       18.6781606768       10.4970328508  WZ3       2074            0.0000000000
     15801      5267  TIP3      H2             13.4127850248       19.1367706768       11.6786028508  WZ3       2074            0.0000000000
     15802      5268  TIP3      OH2            11.1929150248       13.7436206768       12.6626628508  WZ3       2075            0.0000000000
     15803      5268  TIP3      H1             11.4967050248       13.0577606768       12.0680728508  WZ3       2075            0.0000000000
     15804      5268  TIP3      H2             11.9143150248       13.8624906768       13.2804628508  WZ3       2075            0.0000000000
     15805      5269  TIP3      OH2            19.8558950248        5.3451506768       13.5232828508  WZ3       2076            0.0000000000
     15806      5269  TIP3      H1             19.9051150248        5.9552706768       14.2591928508  WZ3       2076            0.0000000000
     15807      5269  TIP3      H2             20.2814050248        5.8062406768       12.8003928508  WZ3       2076            0.0000000000
     15808      5270  TIP3      OH2            14.3336150248        8.1378606768       12.9901428508  WZ3       2077            0.0000000000
     15809      5270  TIP3      H1             14.4762050248        7.1915606768       13.0103028508  WZ3       2077            0.0000000000
     15810      5270  TIP3      H2             14.2275150248        8.3448406768       12.0616328508  WZ3       2077            0.0000000000
     15811      5271  TIP3      OH2             7.4884450248        6.2395006768       10.2626228508  WZ3       2078            0.0000000000
     15812      5271  TIP3      H1              7.5315550248        7.0993506768        9.8442528508  WZ3       2078            0.0000000000
     15813      5271  TIP3      H2              7.0308550248        5.6869706768        9.6289428508  WZ3       2078            0.0000000000
     15814      5272  TIP3      OH2            15.2107150248        6.3700606768        8.6634528508  WZ3       2079            0.0000000000
     15815      5272  TIP3      H1             15.8571450248        6.0413806768        9.2882128508  WZ3       2079            0.0000000000
     15816      5272  TIP3      H2             15.7206550248        6.8879606768        8.0405928508  WZ3       2079            0.0000000000
     15817      5273  TIP3      OH2             4.1085950248        8.6360806768       11.0247628508  WZ3       2080            0.0000000000
     15818      5273  TIP3      H1              4.7622550248        8.0862506768       11.4567728508  WZ3       2080            0.0000000000
     15819      5273  TIP3      H2              4.1325250248        8.3619806768       10.1079628508  WZ3       2080            0.0000000000
     15820      5274  TIP3      OH2             9.2650450248       10.1862106768       10.2399128508  WZ3       2081            0.0000000000
     15821      5274  TIP3      H1              9.8811450248        9.6597506768       10.7493128508  WZ3       2081            0.0000000000
     15822      5274  TIP3      H2              8.6789250248        9.5460806768        9.8362728508  WZ3       2081            0.0000000000
     15823      5275  TIP3      OH2            20.2473550248        6.8230706768       15.7592628508  WZ3       2082            0.0000000000
     15824      5275  TIP3      H1             19.5588150248        7.4811406768       15.6639228508  WZ3       2082            0.0000000000
     15825      5275  TIP3      H2             20.2628150248        6.6258606768       16.6958028508  WZ3       2082            0.0000000000
     15826      5276  TIP3      OH2             6.2986350248        5.1573406768       14.3367028508  WZ3       2083            0.0000000000
     15827      5276  TIP3      H1              6.0798050248        5.6874006768       13.5703028508  WZ3       2083            0.0000000000
     15828      5276  TIP3      H2              5.6307250248        5.3838906768       14.9838428508  WZ3       2083            0.0000000000
     15829      5277  TIP3      OH2            13.6676150248       14.6574506768        7.8806128508  WZ3       2084            0.0000000000
     15830      5277  TIP3      H1             13.3721250248       14.3346806768        7.0293028508  WZ3       2084            0.0000000000
     15831      5277  TIP3      H2             13.3433950248       15.5571206768        7.9218728508  WZ3       2084            0.0000000000
     15832      5278  TIP3      OH2             8.8677750248       12.8329106768       14.6240728508  WZ3       2085            0.0000000000
     15833      5278  TIP3      H1              8.1276850248       13.4310606768       14.7275928508  WZ3       2085            0.0000000000
     15834      5278  TIP3      H2              9.5817250248       13.3868706768       14.3084328508  WZ3       2085            0.0000000000
     15835      5279  TIP3      OH2            16.9745550248        5.6609906768       10.6440428508  WZ3       2086            0.0000000000
     15836      5279  TIP3      H1             16.7593550248        4.8953306768       11.1766428508  WZ3       2086            0.0000000000
     15837      5279  TIP3      H2             17.6302950248        6.1334506768       11.1568928508  WZ3       2086            0.0000000000
     15838      5280  TIP3      OH2             5.8923650248        7.0495206768       12.2889228508  WZ3       2087            0.0000000000
     15839      5280  TIP3      H1              6.5059950248        7.6822806768       12.6621628508  WZ3       2087            0.0000000000
     15840      5280  TIP3      H2              6.4044350248        6.5770206768       11.6326128508  WZ3       2087            0.0000000000
     15841      5281  TIP3      OH2             7.2752050248       14.7972106768       15.4112228508  WZ3       2088            0.0000000000
     15842      5281  TIP3      H1              7.2699650248       15.6765606768       15.0331528508  WZ3       2088            0.0000000000
     15843      5281  TIP3      H2              6.4216150248       14.7136206768       15.8362128508  WZ3       2088            0.0000000000
     15844      5282  TIP3      OH2             3.3962950248       14.4680006768        6.1931528508  WZ3       2089            0.0000000000
     15845      5282  TIP3      H1              3.1243850248       14.6971006768        5.3044428508  WZ3       2089            0.0000000000
     15846      5282  TIP3      H2              3.4418650248       15.3058806768        6.6536828508  WZ3       2089            0.0000000000
     15847      5283  TIP3      OH2            17.0212650248       16.0895906768       12.9060028508  WZ3       2090            0.0000000000
     15848      5283  TIP3      H1             16.0796350248       16.1479806768       13.0676928508  WZ3       2090            0.0000000000
     15849      5283  TIP3      H2             17.2978750248       16.9956406768       12.7689728508  WZ3       2090            0.0000000000
     15850      5284  TIP3      OH2            17.3219650248        4.3761206768       14.3233928508  WZ3       2091            0.0000000000
     15851      5284  TIP3      H1             16.5858850248        4.9868306768       14.2855228508  WZ3       2091            0.0000000000
     15852      5284  TIP3      H2             18.0053650248        4.7910206768       13.7970328508  WZ3       2091            0.0000000000
     15853      5285  TIP3      OH2            10.3251050248        2.4628506768       11.7891928508  WZ3       2092            0.0000000000
     15854      5285  TIP3      H1             10.2075250248        1.5144506768       11.7350228508  WZ3       2092            0.0000000000
     15855      5285  TIP3      H2              9.4701150248        2.7954606768       12.0623028508  WZ3       2092            0.0000000000
     15856      5286  TIP3      OH2            15.2733850248       17.8709406768        9.5311628508  WZ3       2093            0.0000000000
     15857      5286  TIP3      H1             15.6986150248       17.1637306768        9.0461228508  WZ3       2093            0.0000000000
     15858      5286  TIP3      H2             15.5903850248       18.6722106768        9.1143828508  WZ3       2093            0.0000000000
     15859      5287  TIP3      OH2            16.4330350248       15.7717906768        8.0398228508  WZ3       2094            0.0000000000
     15860      5287  TIP3      H1             16.1755150248       15.0818006768        7.4284128508  WZ3       2094            0.0000000000
     15861      5287  TIP3      H2             16.5041150248       15.3289106768        8.8854128508  WZ3       2094            0.0000000000
     15862      5288  TIP3      OH2            18.1190550248       14.3384606768       16.5171728508  WZ3       2095            0.0000000000
     15863      5288  TIP3      H1             18.2586850248       13.7467106768       15.7778728508  WZ3       2095            0.0000000000
     15864      5288  TIP3      H2             18.2863350248       15.2110506768       16.1610528508  WZ3       2095            0.0000000000
     15865      5289  TIP3      OH2            12.5915950248       11.3004106768        6.2897728508  WZ3       2096            0.0000000000
     15866      5289  TIP3      H1             11.8801450248       11.8353806768        5.9378228508  WZ3       2096            0.0000000000
     15867      5289  TIP3      H2             13.2825550248       11.3556206768        5.6296628508  WZ3       2096            0.0000000000
     15868      5290  TIP3      OH2            12.6455150248        9.7578406768        3.3282728508  WZ3       2097            0.0000000000
     15869      5290  TIP3      H1             13.3465050248        9.7805306768        3.9796728508  WZ3       2097            0.0000000000
     15870      5290  TIP3      H2             12.9478050248        9.1298106768        2.6722028508  WZ3       2097            0.0000000000
     15871      5291  TIP3      OH2            19.9609850248       10.6782606768       14.5832128508  WZ3       2098            0.0000000000
     15872      5291  TIP3      H1             19.3083950248       11.3728206768       14.6723028508  WZ3       2098            0.0000000000
     15873      5291  TIP3      H2             20.4260150248       10.8883506768       13.7733728508  WZ3       2098            0.0000000000
     15874      5292  TIP3      OH2            15.9973650248       11.5097406768        7.2413628508  WZ3       2099            0.0000000000
     15875      5292  TIP3      H1             15.2654650248       11.7381106768        7.8144228508  WZ3       2099            0.0000000000
     15876      5292  TIP3      H2             16.4445850248       10.7960106768        7.6961128508  WZ3       2099            0.0000000000
     15877      5293  TIP3      OH2            15.8947150248        9.6840006768       16.3090628508  WZ3       2100            0.0000000000
     15878      5293  TIP3      H1             15.9746250248       10.4474406768       16.8809128508  WZ3       2100            0.0000000000
     15879      5293  TIP3      H2             15.2934850248        9.9632406768       15.6185728508  WZ3       2100            0.0000000000
     15880      5294  TIP3      OH2             7.6427350248       12.1403606768        9.1238628508  WZ3       2101            0.0000000000
     15881      5294  TIP3      H1              7.3122550248       11.7697006768        8.3055628508  WZ3       2101            0.0000000000
     15882      5294  TIP3      H2              8.2311450248       11.4697606768        9.4706928508  WZ3       2101            0.0000000000
     15883      5295  TIP3      OH2             9.0094850248       15.5684206768       11.8050828508  WZ3       2102            0.0000000000
     15884      5295  TIP3      H1              8.9146150248       14.9897306768       11.0485428508  WZ3       2102            0.0000000000
     15885      5295  TIP3      H2              9.7388450248       15.1969906768       12.3013628508  WZ3       2102            0.0000000000
     15886      5296  TIP3      OH2             8.0092850248       10.9089206768       12.7573628508  WZ3       2103            0.0000000000
     15887      5296  TIP3      H1              8.5745350248       11.0303406768       11.9944828508  WZ3       2103            0.0000000000
     15888      5296  TIP3      H2              8.3281750248       11.5464206768       13.3962128508  WZ3       2103            0.0000000000
     15889      5297  TIP3      OH2            14.3185050248       16.4121106768       13.4914128508  WZ3       2104            0.0000000000
     15890      5297  TIP3      H1             14.0781650248       17.0744206768       14.1393328508  WZ3       2104            0.0000000000
     15891      5297  TIP3      H2             14.1203250248       15.5776306768       13.9163728508  WZ3       2104            0.0000000000
     15892      5298  TIP3      OH2             8.8893550248       15.3081906768       17.4745528508  WZ3       2105            0.0000000000
     15893      5298  TIP3      H1              8.5781050248       16.0905106768       17.9298728508  WZ3       2105            0.0000000000
     15894      5298  TIP3      H2              8.2393750248       15.1551006768       16.7887528508  WZ3       2105            0.0000000000
     15895      5299  TIP3      OH2            14.8683150248       10.6720306768        4.9264828508  WZ3       2106            0.0000000000
     15896      5299  TIP3      H1             15.4478650248       10.8220606768        5.6733728508  WZ3       2106            0.0000000000
     15897      5299  TIP3      H2             15.2823150248       11.1427706768        4.2031228508  WZ3       2106            0.0000000000
     15898      5300  TIP3      OH2             5.8093450248       11.5063006768       16.7031228508  WZ3       2107            0.0000000000
     15899      5300  TIP3      H1              5.8796650248       12.1569806768       17.4016228508  WZ3       2107            0.0000000000
     15900      5300  TIP3      H2              4.9185650248       11.6090506768       16.3682128508  WZ3       2107            0.0000000000
     15901      5301  TIP3      OH2            12.5948050248       17.4088806768        8.3617928508  WZ3       2108            0.0000000000
     15902      5301  TIP3      H1             13.0685650248       17.7045106768        9.1392128508  WZ3       2108            0.0000000000
     15903      5301  TIP3      H2             12.0317350248       18.1470406768        8.1287528508  WZ3       2108            0.0000000000
     15904      5302  TIP3      OH2             7.1289450248       17.3796906768       18.2379328508  WZ3       2109            0.0000000000
     15905      5302  TIP3      H1              7.1364750248       17.2436606768       17.2904828508  WZ3       2109            0.0000000000
     15906      5302  TIP3      H2              6.2129850248       17.2625006768       18.4899328508  WZ3       2109            0.0000000000
     15907      5303  TIP3      OH2            18.5671550248        2.4220706768        4.7394528508  WZ3       2110            0.0000000000
     15908      5303  TIP3      H1             17.6672250248        2.5609706768        5.0345128508  WZ3       2110            0.0000000000
     15909      5303  TIP3      H2             18.8189950248        3.2535306768        4.3376228508  WZ3       2110            0.0000000000
     15910      5304  TIP3      OH2             6.6330050248       11.2097906768        6.7131428508  WZ3       2111            0.0000000000
     15911      5304  TIP3      H1              6.3411350248       11.9779606768        6.2222728508  WZ3       2111            0.0000000000
     15912      5304  TIP3      H2              5.9585250248       10.5504106768        6.5502828508  WZ3       2111            0.0000000000
     15913      5305  TIP3      OH2            19.7562950248       16.7883106768        3.1158428508  WZ3       2112            0.0000000000
     15914      5305  TIP3      H1             19.8296450248       17.7273306768        3.2863728508  WZ3       2112            0.0000000000
     15915      5305  TIP3      H2             20.6618050248       16.4831706768        3.0595728508  WZ3       2112            0.0000000000
     15916      5306  TIP3      OH2             2.7260150248       13.5727106768       15.5281228508  WZ3       2113            0.0000000000
     15917      5306  TIP3      H1              2.2248550248       13.5446506768       14.7130928508  WZ3       2113            0.0000000000
     15918      5306  TIP3      H2              2.7313850248       12.6670306768       15.8378528508  WZ3       2113            0.0000000000
     15919      5307  TIP3      OH2             2.4762850248       16.3530906768       12.4121428508  WZ3       2114            0.0000000000
     15920      5307  TIP3      H1              3.4223450248       16.2087906768       12.3930928508  WZ3       2114            0.0000000000
     15921      5307  TIP3      H2              2.3639150248       17.1373706768       12.9492628508  WZ3       2114            0.0000000000
     15922      5308  TIP3      OH2            20.6741350248       17.0190606768       18.0945128508  WZ3       2115            0.0000000000
     15923      5308  TIP3      H1             20.6248150248       16.0638706768       18.0572728508  WZ3       2115            0.0000000000
     15924      5308  TIP3      H2             19.8473650248       17.2865906768       18.4958928508  WZ3       2115            0.0000000000
     15925      5309  TIP3      OH2            11.6525350248       16.5929806768       16.9706528508  WZ3       2116            0.0000000000
     15926      5309  TIP3      H1             11.7399950248       17.4194406768       17.4455628508  WZ3       2116            0.0000000000
     15927      5309  TIP3      H2             10.7890450248       16.2633606768       17.2195828508  WZ3       2116            0.0000000000
     15928      5310  TIP3      OH2            12.0671150248       20.3653506768        6.7767128508  WZ3       2117            0.0000000000
     15929      5310  TIP3      H1             11.9917150248       20.2440706768        5.8302328508  WZ3       2117            0.0000000000
     15930      5310  TIP3      H2             12.0999850248       21.3146206768        6.8951728508  WZ3       2117            0.0000000000
     15931      5311  TIP3      OH2             5.7204950248       19.1540506768        8.5576128508  WZ3       2118            0.0000000000
     15932      5311  TIP3      H1              5.8725350248       18.8060906768        9.4362628508  WZ3       2118            0.0000000000
     15933      5311  TIP3      H2              4.8695350248       18.7977806768        8.3023328508  WZ3       2118            0.0000000000
     15934      5312  TIP3      OH2            15.1687150248       19.5193706768        3.7789528508  WZ3       2119            0.0000000000
     15935      5312  TIP3      H1             15.5435550248       18.7749806768        3.3082128508  WZ3       2119            0.0000000000
     15936      5312  TIP3      H2             15.1730850248       19.2494306768        4.6972828508  WZ3       2119            0.0000000000
     15937      5313  TIP3      OH2            14.8375250248       19.4450806768        6.5281728508  WZ3       2120            0.0000000000
     15938      5313  TIP3      H1             13.9025050248       19.5452706768        6.7068728508  WZ3       2120            0.0000000000
     15939      5313  TIP3      H2             15.1177150248       18.7356806768        7.1064928508  WZ3       2120            0.0000000000
     15940      5314  TIP3      OH2            17.8261150248        8.5123106768       18.5747328508  WZ3       2121            0.0000000000
     15941      5314  TIP3      H1             17.4187950248        8.9928706768       17.8540628508  WZ3       2121            0.0000000000
     15942      5314  TIP3      H2             17.8666850248        7.6069106768       18.2668128508  WZ3       2121            0.0000000000
     15943      5315  TIP3      OH2             4.9750650248       14.8962506768       16.5714028508  WZ3       2122            0.0000000000
     15944      5315  TIP3      H1              5.1911950248       14.5348106768       17.4309828508  WZ3       2122            0.0000000000
     15945      5315  TIP3      H2              4.1195350248       14.5216306768       16.3617528508  WZ3       2122            0.0000000000
     15946      5316  TIP3      OH2             7.5938650248        3.3663006768       12.5668228508  WZ3       2123            0.0000000000
     15947      5316  TIP3      H1              6.7322350248        3.2791206768       12.1591128508  WZ3       2123            0.0000000000
     15948      5316  TIP3      H2              7.5714350248        4.2223106768       12.9945828508  WZ3       2123            0.0000000000
     15949      5317  TIP3      OH2            12.2566450248        3.0883406768       15.9415228508  WZ3       2124            0.0000000000
     15950      5317  TIP3      H1             12.6769550248        2.6730506768       16.6945828508  WZ3       2124            0.0000000000
     15951      5317  TIP3      H2             11.3236050248        2.9096706768       16.0587228508  WZ3       2124            0.0000000000
     15952      5318  TIP3      OH2            15.5831350248        6.8438606768       16.7949728508  WZ3       2125            0.0000000000
     15953      5318  TIP3      H1             15.0690850248        6.7180806768       17.5925728508  WZ3       2125            0.0000000000
     15954      5318  TIP3      H2             15.4276050248        7.7561706768       16.5505928508  WZ3       2125            0.0000000000
     15955      5319  TIP3      OH2            16.3456250248       11.7048606768        2.5562728508  WZ3       2126            0.0000000000
     15956      5319  TIP3      H1             16.3877050248       11.4822506768        1.6262728508  WZ3       2126            0.0000000000
     15957      5319  TIP3      H2             17.1948350248       12.1035706768        2.7462628508  WZ3       2126            0.0000000000
     15958      5320  TIP3      OH2            11.9183750248        5.5806806768        3.2266028508  WZ3       2127            0.0000000000
     15959      5320  TIP3      H1             11.6648550248        5.5998406768        4.1494128508  WZ3       2127            0.0000000000
     15960      5320  TIP3      H2             11.6615850248        4.7092206768        2.9252228508  WZ3       2127            0.0000000000
     15961      5321  TIP3      OH2             7.6848750248        8.3317506768       13.6618428508  WZ3       2128            0.0000000000
     15962      5321  TIP3      H1              7.0430850248        8.2914806768       14.3708528508  WZ3       2128            0.0000000000
     15963      5321  TIP3      H2              7.7220750248        9.2582206768       13.4241428508  WZ3       2128            0.0000000000
     15964      5322  TIP3      OH2             7.6817850248        8.5527606768        8.5738428508  WZ3       2129            0.0000000000
     15965      5322  TIP3      H1              6.7890750248        8.2123706768        8.5152228508  WZ3       2129            0.0000000000
     15966      5322  TIP3      H2              8.1324450248        8.1758506768        7.8181628508  WZ3       2129            0.0000000000
     15967      5323  TIP3      OH2            13.2173350248        8.9687906768        7.3909228508  WZ3       2130            0.0000000000
     15968      5323  TIP3      H1             12.8083650248        9.7836506768        7.0994028508  WZ3       2130            0.0000000000
     15969      5323  TIP3      H2             13.9379550248        8.8288006768        6.7766328508  WZ3       2130            0.0000000000
     15970      5324  TIP3      OH2            12.3194950248        9.1444306768       18.8789928508  WZ3       2131            0.0000000000
     15971      5324  TIP3      H1             11.7568750248        8.4395906768       19.1997728508  WZ3       2131            0.0000000000
     15972      5324  TIP3      H2             13.1458350248        9.0236206768       19.3467528508  WZ3       2131            0.0000000000
     15973      5325  TIP3      OH2            14.2221050248        8.4148306768       10.2048928508  WZ3       2132            0.0000000000
     15974      5325  TIP3      H1             14.0265550248        9.0205106768        9.4899528508  WZ3       2132            0.0000000000
     15975      5325  TIP3      H2             14.4033650248        7.5813506768        9.7705228508  WZ3       2132            0.0000000000
     15976      5326  TIP3      OH2             5.4349250248        8.6521006768       15.5290428508  WZ3       2133            0.0000000000
     15977      5326  TIP3      H1              5.3968650248        9.0522606768       16.3977528508  WZ3       2133            0.0000000000
     15978      5326  TIP3      H2              4.9440350248        7.8353406768       15.6193328508  WZ3       2133            0.0000000000
     15979      5327  TIP3      OH2             8.8006650248        6.0263306768        2.3276428508  WZ3       2134            0.0000000000
     15980      5327  TIP3      H1              8.3697350248        5.5813406768        3.0573828508  WZ3       2134            0.0000000000
     15981      5327  TIP3      H2              8.0825350248        6.3979606768        1.8153928508  WZ3       2134            0.0000000000
     15982      5328  TIP3      OH2             2.0430050248        5.7682806768        9.3795128508  WZ3       2135            0.0000000000
     15983      5328  TIP3      H1              2.6737750248        5.7394906768       10.0989028508  WZ3       2135            0.0000000000
     15984      5328  TIP3      H2              2.4924350248        5.3431506768        8.6491028508  WZ3       2135            0.0000000000
     15985      5329  TIP3      OH2             3.3172150248        6.5144806768        4.8035528508  WZ3       2136            0.0000000000
     15986      5329  TIP3      H1              3.7913850248        7.1054706768        4.2186428508  WZ3       2136            0.0000000000
     15987      5329  TIP3      H2              2.5998550248        7.0447706768        5.1505628508  WZ3       2136            0.0000000000
     15988      5330  TIP3      OH2            13.4860250248       10.0529606768       14.8761328508  WZ3       2137            0.0000000000
     15989      5330  TIP3      H1             13.8095050248        9.4219306768       14.2331828508  WZ3       2137            0.0000000000
     15990      5330  TIP3      H2             13.0459550248        9.5181806768       15.5368728508  WZ3       2137            0.0000000000
     15991      5331  TIP3      OH2            10.2633150248        5.9805106768        9.6602528508  WZ3       2138            0.0000000000
     15992      5331  TIP3      H1              9.3524250248        6.0371906768        9.9488528508  WZ3       2138            0.0000000000
     15993      5331  TIP3      H2             10.7686050248        5.9200606768       10.4709728508  WZ3       2138            0.0000000000
     15994      5332  TIP3      OH2             5.0916550248        7.6091406768        8.4870128508  WZ3       2139            0.0000000000
     15995      5332  TIP3      H1              4.2024550248        7.7086906768        8.1469728508  WZ3       2139            0.0000000000
     15996      5332  TIP3      H2              5.3881450248        6.7674406768        8.1408028508  WZ3       2139            0.0000000000
     15997      5333  TIP3      OH2             8.7448350248        7.6094006768        6.1434728508  WZ3       2140            0.0000000000
     15998      5333  TIP3      H1              9.6763850248        7.7384006768        6.3217828508  WZ3       2140            0.0000000000
     15999      5333  TIP3      H2              8.5298650248        8.2788306768        5.4939428508  WZ3       2140            0.0000000000
     16000      5334  TIP3      OH2            14.6685050248        5.2151406768       12.9244328508  WZ3       2141            0.0000000000
     16001      5334  TIP3      H1             13.9916650248        5.3464506768       13.5884028508  WZ3       2141            0.0000000000
     16002      5334  TIP3      H2             14.1829950248        5.0600906768       12.1142028508  WZ3       2141            0.0000000000
     16003      5335  TIP3      OH2             7.4188550248        8.8036206768        3.7100828508  WZ3       2142            0.0000000000
     16004      5335  TIP3      H1              6.8763650248        8.4240006768        3.0188428508  WZ3       2142            0.0000000000
     16005      5335  TIP3      H2              8.2523450248        8.9980906768        3.2814928508  WZ3       2142            0.0000000000
     16006      5336  TIP3      OH2            17.9560150248       20.8866806768       19.2011928508  WZ3       2143            0.0000000000
     16007      5336  TIP3      H1             18.1558850248       21.3108706768       18.3667228508  WZ3       2143            0.0000000000
     16008      5336  TIP3      H2             18.6113850248       21.2305006768       19.8082328508  WZ3       2143            0.0000000000
     16009      5337  TIP3      OH2             5.5539950248       13.3608106768       18.8092428508  WZ3       2144            0.0000000000
     16010      5337  TIP3      H1              6.2862350248       13.6154006768       19.3706928508  WZ3       2144            0.0000000000
     16011      5337  TIP3      H2              4.7738650248       13.5653506768       19.3247828508  WZ3       2144            0.0000000000
     16012      5338  TIP3      OH2            11.5832850248        8.7678106768       11.5472128508  WZ3       2145            0.0000000000
     16013      5338  TIP3      H1             12.1476250248        8.2214706768       11.0001728508  WZ3       2145            0.0000000000
     16014      5338  TIP3      H2             11.4356250248        8.2460006768       12.3359728508  WZ3       2145            0.0000000000
     16015      5339  TIP3      OH2             6.5852550248        4.9044206768        7.9656928508  WZ3       2146            0.0000000000
     16016      5339  TIP3      H1              6.2682050248        4.0019506768        7.9302328508  WZ3       2146            0.0000000000
     16017      5339  TIP3      H2              7.3666650248        4.9061606768        7.4128528508  WZ3       2146            0.0000000000
     16018      5340  TIP3      OH2            10.2098750248        7.1564206768       13.9612528508  WZ3       2147            0.0000000000
     16019      5340  TIP3      H1              9.3744050248        7.6103706768       14.0714928508  WZ3       2147            0.0000000000
     16020      5340  TIP3      H2             10.7339350248        7.4322706768       14.7132428508  WZ3       2147            0.0000000000
     16021      5341  TIP3      OH2            10.7541350248       13.3691906768        5.6458928508  WZ3       2148            0.0000000000
     16022      5341  TIP3      H1             10.0092350248       12.8617206768        5.3236828508  WZ3       2148            0.0000000000
     16023      5341  TIP3      H2             10.6198550248       13.4179906768        6.5923728508  WZ3       2148            0.0000000000
     16024      5342  TIP3      OH2            17.9040250248       12.5020106768       14.4326528508  WZ3       2149            0.0000000000
     16025      5342  TIP3      H1             18.5459050248       12.9586406768       13.8888728508  WZ3       2149            0.0000000000
     16026      5342  TIP3      H2             17.0737150248       12.6152506768       13.9700628508  WZ3       2149            0.0000000000
     16027      5343  TIP3      OH2            14.6518150248        6.1831806768        3.8451528508  WZ3       2150            0.0000000000
     16028      5343  TIP3      H1             13.7132350248        6.2947406768        3.6940328508  WZ3       2150            0.0000000000
     16029      5343  TIP3      H2             14.9490250248        7.0398706768        4.1517228508  WZ3       2150            0.0000000000
     16030      5344  TIP3      OH2            12.2733450248       13.5535206768       16.8828028508  WZ3       2151            0.0000000000
     16031      5344  TIP3      H1             11.9279550248       13.1717606768       17.6897628508  WZ3       2151            0.0000000000
     16032      5344  TIP3      H2             12.0733550248       14.4868806768       16.9540928508  WZ3       2151            0.0000000000
     16033      5345  TIP3      OH2            15.3701650248        8.0504506768        5.5058928508  WZ3       2152            0.0000000000
     16034      5345  TIP3      H1             16.2620650248        7.9129506768        5.8250128508  WZ3       2152            0.0000000000
     16035      5345  TIP3      H2             15.4265250248        8.8410606768        4.9692428508  WZ3       2152            0.0000000000
     16036      5346  TIP3      OH2             5.8789650248       12.6641906768       11.4156828508  WZ3       2153            0.0000000000
     16037      5346  TIP3      H1              6.6236850248       12.6617606768       10.8143328508  WZ3       2153            0.0000000000
     16038      5346  TIP3      H2              5.9566250248       11.8405706768       11.8971928508  WZ3       2153            0.0000000000
     16039      5347  TIP3      OH2            12.8795450248       14.8276206768        4.6713528508  WZ3       2154            0.0000000000
     16040      5347  TIP3      H1             12.5843850248       15.6544106768        5.0528328508  WZ3       2154            0.0000000000
     16041      5347  TIP3      H2             12.1765450248       14.2083106768        4.8674928508  WZ3       2154            0.0000000000
     16042      5348  TIP3      OH2             2.8869350248       11.1248806768       16.7305328508  WZ3       2155            0.0000000000
     16043      5348  TIP3      H1              3.1097950248       10.7068406768       17.5622828508  WZ3       2155            0.0000000000
     16044      5348  TIP3      H2              2.2849450248       10.5123806768       16.3078128508  WZ3       2155            0.0000000000
     16045      5349  TIP3      OH2             9.9034250248       10.6418706768       18.9435028508  WZ3       2156            0.0000000000
     16046      5349  TIP3      H1              9.6075050248       10.4761706768       18.0484128508  WZ3       2156            0.0000000000
     16047      5349  TIP3      H2             10.8349450248       10.4219006768       18.9328928508  WZ3       2156            0.0000000000
     16048      5350  TIP3      OH2            14.5237050248       16.0150706768       16.8333028508  WZ3       2157            0.0000000000
     16049      5350  TIP3      H1             13.6231350248       16.1983306768       16.5656928508  WZ3       2157            0.0000000000
     16050      5350  TIP3      H2             14.5578150248       16.2740006768       17.7541828508  WZ3       2157            0.0000000000
     16051      5351  TIP3      OH2            20.2550350248        8.2598606768        5.2005628508  WZ3       2158            0.0000000000
     16052      5351  TIP3      H1             19.7006650248        7.8636606768        4.5283128508  WZ3       2158            0.0000000000
     16053      5351  TIP3      H2             20.3553950248        9.1703806768        4.9228928508  WZ3       2158            0.0000000000
     16054      5352  TIP3      OH2            20.2182350248       14.0600306768       18.0377128508  WZ3       2159            0.0000000000
     16055      5352  TIP3      H1             19.3670850248       14.2984106768       17.6703528508  WZ3       2159            0.0000000000
     16056      5352  TIP3      H2             20.8085750248       14.0433506768       17.2844228508  WZ3       2159            0.0000000000
     16057      5353  TIP3      OH2            18.5502050248       17.0459006768        5.6657728508  WZ3       2160            0.0000000000
     16058      5353  TIP3      H1             18.1773150248       16.2202806768        5.9748328508  WZ3       2160            0.0000000000
     16059      5353  TIP3      H2             18.8275550248       16.8628406768        4.7681128508  WZ3       2160            0.0000000000
     16060      5354  TIP3      OH2            15.7105950248       11.8538506768       12.6869628508  WZ3       2161            0.0000000000
     16061      5354  TIP3      H1             14.7822850248       11.6220406768       12.6598928508  WZ3       2161            0.0000000000
     16062      5354  TIP3      H2             16.1617050248       11.0768306768       12.3568428508  WZ3       2161            0.0000000000
     16063      5355  TIP3      OH2             8.2539050248       16.1820106768        8.8198328508  WZ3       2162            0.0000000000
     16064      5355  TIP3      H1              8.7811250248       16.9554506768        8.6197128508  WZ3       2162            0.0000000000
     16065      5355  TIP3      H2              7.3737550248       16.4069306768        8.5182328508  WZ3       2162            0.0000000000
     16066      5356  TIP3      OH2             4.0086750248       11.0444206768        3.4070728508  WZ3       2163            0.0000000000
     16067      5356  TIP3      H1              4.6246650248       11.6711406768        3.7865528508  WZ3       2163            0.0000000000
     16068      5356  TIP3      H2              3.1469350248       11.3604006768        3.6787228508  WZ3       2163            0.0000000000
     16069      5357  TIP3      OH2             9.6811350248       13.8450006768        8.3962628508  WZ3       2164            0.0000000000
     16070      5357  TIP3      H1              9.4401350248       14.7704406768        8.4377928508  WZ3       2164            0.0000000000
     16071      5357  TIP3      H2              8.9404950248       13.3861306768        8.7926528508  WZ3       2164            0.0000000000
     16072      5358  TIP3      OH2            10.1957950248       17.9943606768       14.7113728508  WZ3       2165            0.0000000000
     16073      5358  TIP3      H1             10.5582650248       18.8489206768       14.4778128508  WZ3       2165            0.0000000000
     16074      5358  TIP3      H2             10.7273150248       17.7025206768       15.4520028508  WZ3       2165            0.0000000000
     16075      5359  TIP3      OH2             8.3642150248       18.8667606768        7.9414828508  WZ3       2166            0.0000000000
     16076      5359  TIP3      H1              7.4142650248       18.9725006768        7.9928128508  WZ3       2166            0.0000000000
     16077      5359  TIP3      H2              8.7160250248       19.6875006768        8.2862328508  WZ3       2166            0.0000000000
     16078      5360  TIP3      OH2            13.7398750248       14.0934306768       14.4119328508  WZ3       2167            0.0000000000
     16079      5360  TIP3      H1             13.3140050248       13.8656006768       15.2383328508  WZ3       2167            0.0000000000
     16080      5360  TIP3      H2             14.3204550248       13.3546106768       14.2294628508  WZ3       2167            0.0000000000
     16081      5361  TIP3      OH2            15.9427650248       15.0224806768        3.4858328508  WZ3       2168            0.0000000000
     16082      5361  TIP3      H1             16.2960750248       14.6424606768        4.2901828508  WZ3       2168            0.0000000000
     16083      5361  TIP3      H2             14.9941150248       14.9289606768        3.5727628508  WZ3       2168            0.0000000000
     16084      5362  TIP3      OH2            16.3982950248       18.6453806768       16.8814128508  WZ3       2169            0.0000000000
     16085      5362  TIP3      H1             15.7966150248       18.0896706768       16.3860428508  WZ3       2169            0.0000000000
     16086      5362  TIP3      H2             16.6796650248       19.3123606768       16.2551528508  WZ3       2169            0.0000000000
     16087      5363  TIP3      OH2            20.4462050248       19.5017306768        3.6868528508  WZ3       2170            0.0000000000
     16088      5363  TIP3      H1             21.1899950248       20.0877806768        3.5470128508  WZ3       2170            0.0000000000
     16089      5363  TIP3      H2             19.7520150248       20.0703106768        4.0200928508  WZ3       2170            0.0000000000
     16090      5364  TIP3      OH2             4.5208850248        5.8781506768       16.2886728508  WZ3       2171            0.0000000000
     16091      5364  TIP3      H1              3.6281150248        6.2166906768       16.2210728508  WZ3       2171            0.0000000000
     16092      5364  TIP3      H2              4.4221650248        5.0227606768       16.7067528508  WZ3       2171            0.0000000000
     16093      5365  TIP3      OH2            16.8086950248       13.6946806768        5.7126228508  WZ3       2172            0.0000000000
     16094      5365  TIP3      H1             16.5314550248       12.9666106768        6.2687328508  WZ3       2172            0.0000000000
     16095      5365  TIP3      H2             17.7359950248       13.8138806768        5.9178828508  WZ3       2172            0.0000000000
     16096      5366  TIP3      OH2             4.1720850248       17.6825906768       14.7236128508  WZ3       2173            0.0000000000
     16097      5366  TIP3      H1              4.3891150248       16.7508306768       14.6925828508  WZ3       2173            0.0000000000
     16098      5366  TIP3      H2              4.4184350248       17.9570906768       15.6068928508  WZ3       2173            0.0000000000
     16099      5367  TIP3      OH2            10.0335450248       16.1340906768        1.9328328508  WZ3       2174            0.0000000000
     16100      5367  TIP3      H1             10.2725250248       15.3859006768        1.3857228508  WZ3       2174            0.0000000000
     16101      5367  TIP3      H2              9.7646750248       15.7462606768        2.7656128508  WZ3       2174            0.0000000000
     16102      5368  TIP3      OH2             8.9706050248       15.7044706768        4.3890928508  WZ3       2175            0.0000000000
     16103      5368  TIP3      H1              9.1174050248       15.1844506768        5.1791828508  WZ3       2175            0.0000000000
     16104      5368  TIP3      H2              8.9677750248       16.6112306768        4.6956828508  WZ3       2175            0.0000000000
     16105      5369  TIP3      OH2             5.4237150248       12.9568006768        4.8996328508  WZ3       2176            0.0000000000
     16106      5369  TIP3      H1              4.7376450248       13.3090506768        5.4666028508  WZ3       2176            0.0000000000
     16107      5369  TIP3      H2              5.9465050248       13.7197606768        4.6530628508  WZ3       2176            0.0000000000
     16108      5370  TIP3      OH2            13.2552250248        5.6191806768       15.1785328508  WZ3       2177            0.0000000000
     16109      5370  TIP3      H1             13.9540150248        5.6930506768       15.8285028508  WZ3       2177            0.0000000000
     16110      5370  TIP3      H2             12.8743650248        4.7546806768       15.3328228508  WZ3       2177            0.0000000000
     16111      5371  TIP3      OH2            14.0397150248        5.2713506768        6.2757628508  WZ3       2178            0.0000000000
     16112      5371  TIP3      H1             14.2595450248        5.7428906768        5.4723028508  WZ3       2178            0.0000000000
     16113      5371  TIP3      H2             14.5981150248        5.6656106768        6.9458228508  WZ3       2178            0.0000000000
     16114      5372  TIP3      OH2            11.7083250248       17.4018306768        5.1385128508  WZ3       2179            0.0000000000
     16115      5372  TIP3      H1             10.8919350248       17.8988006768        5.1909428508  WZ3       2179            0.0000000000
     16116      5372  TIP3      H2             12.2379550248       17.8771806768        4.4983928508  WZ3       2179            0.0000000000
     16117      5373  TIP3      OH2            11.2397050248        6.9992306768        7.1106028508  WZ3       2180            0.0000000000
     16118      5373  TIP3      H1             12.0519650248        7.5035506768        7.1567728508  WZ3       2180            0.0000000000
     16119      5373  TIP3      H2             10.9950050248        6.8542006768        8.0245628508  WZ3       2180            0.0000000000
     16120      5374  TIP3      OH2            11.7753450248        7.9855006768       16.2952628508  WZ3       2181            0.0000000000
     16121      5374  TIP3      H1             11.8943750248        8.5590406768       17.0523028508  WZ3       2181            0.0000000000
     16122      5374  TIP3      H2             12.4308050248        7.2974406768       16.4100428508  WZ3       2181            0.0000000000
     16123      5375  TIP3      OH2            12.1233750248        4.0805306768        8.0487128508  WZ3       2182            0.0000000000
     16124      5375  TIP3      H1             11.7767250248        4.6975906768        8.6931428508  WZ3       2182            0.0000000000
     16125      5375  TIP3      H2             12.7820650248        4.5811006768        7.5672628508  WZ3       2182            0.0000000000
     16126      5376  TIP3      OH2             9.0466350248       18.4455506768        5.1202028508  WZ3       2183            0.0000000000
     16127      5376  TIP3      H1              9.2075050248       19.2453006768        4.6194628508  WZ3       2183            0.0000000000
     16128      5376  TIP3      H2              8.8494150248       18.7521506768        6.0052628508  WZ3       2183            0.0000000000
     16129      5377  TIP3      OH2             7.7810750248        5.1434706768        4.7359628508  WZ3       2184            0.0000000000
     16130      5377  TIP3      H1              7.6975550248        6.0317806768        5.0826028508  WZ3       2184            0.0000000000
     16131      5377  TIP3      H2              8.6711050248        4.8781406768        4.9676428508  WZ3       2184            0.0000000000
     16132      5378  TIP3      OH2            17.9799250248        5.8925306768       17.1302328508  WZ3       2185            0.0000000000
     16133      5378  TIP3      H1             17.0635050248        6.1547006768       17.0426028508  WZ3       2185            0.0000000000
     16134      5378  TIP3      H2             18.3154250248        5.8894306768       16.2337628508  WZ3       2185            0.0000000000
     16135      5379  TIP3      OH2            16.5820250248        9.6426306768       11.2259628508  WZ3       2186            0.0000000000
     16136      5379  TIP3      H1             15.7844650248        9.2276506768       10.8974628508  WZ3       2186            0.0000000000
     16137      5379  TIP3      H2             17.0271350248        8.9520006768       11.7170128508  WZ3       2186            0.0000000000
     16138      5380  TIP3      OH2             6.0396050248       15.5706906768        3.7964128508  WZ3       2187            0.0000000000
     16139      5380  TIP3      H1              6.6317550248       16.2701706768        4.0726528508  WZ3       2187            0.0000000000
     16140      5380  TIP3      H2              6.4989050248       15.1376406768        3.0768728508  WZ3       2187            0.0000000000
     16141      5381  TIP3      OH2             4.3555250248        8.2349906768        2.9123528508  WZ3       2188            0.0000000000
     16142      5381  TIP3      H1              4.3107850248        9.1743006768        3.0910528508  WZ3       2188            0.0000000000
     16143      5381  TIP3      H2              3.4678450248        7.9994806768        2.6425628508  WZ3       2188            0.0000000000
     16144      5382  TIP3      OH2            17.6684850248       18.8988806768       12.8483128508  WZ3       2189            0.0000000000
     16145      5382  TIP3      H1             17.5129150248       19.5773206768       12.1912428508  WZ3       2189            0.0000000000
     16146      5382  TIP3      H2             18.6011250248       18.9708106768       13.0513728508  WZ3       2189            0.0000000000
     16147      5383  TIP3      OH2             5.1637250248        3.0166506768       11.5854528508  WZ3       2190            0.0000000000
     16148      5383  TIP3      H1              4.9347050248        3.0759006768       10.6579528508  WZ3       2190            0.0000000000
     16149      5383  TIP3      H2              4.7210650248        2.2252006768       11.8918628508  WZ3       2190            0.0000000000
     16150      5384  TIP3      OH2             4.0940550248       16.9573606768        7.7460328508  WZ3       2191            0.0000000000
     16151      5384  TIP3      H1              3.2619150248       17.4296306768        7.7731728508  WZ3       2191            0.0000000000
     16152      5384  TIP3      H2              4.6398850248       17.4671206768        7.1473428508  WZ3       2191            0.0000000000
     16153      5385  TIP3      OH2             3.3824250248       19.5697306768       19.0758328508  WZ3       2192            0.0000000000
     16154      5385  TIP3      H1              3.9226450248       19.3531306768       19.8357528508  WZ3       2192            0.0000000000
     16155      5385  TIP3      H2              2.9012250248       18.7643306768       18.8860828508  WZ3       2192            0.0000000000
     16156      5386  TIP3      OH2             7.9797650248       18.4891706768       20.6962528508  WZ3       2193            0.0000000000
     16157      5386  TIP3      H1              8.7474850248       18.0302506768       21.0371728508  WZ3       2193            0.0000000000
     16158      5386  TIP3      H2              7.9583850248       18.2631506768       19.7663728508  WZ3       2193            0.0000000000
     16159      5387  TIP3      OH2            12.0717250248       17.9972306768        2.0714328508  WZ3       2194            0.0000000000
     16160      5387  TIP3      H1             11.4278250248       17.3660906768        2.3928028508  WZ3       2194            0.0000000000
     16161      5387  TIP3      H2             12.8335550248       17.4660306768        1.8397828508  WZ3       2194            0.0000000000
     16162      5388  TIP3      OH2            14.5566350248       16.8692806768       19.4254028508  WZ3       2195            0.0000000000
     16163      5388  TIP3      H1             14.2055850248       16.0125806768       19.6684428508  WZ3       2195            0.0000000000
     16164      5388  TIP3      H2             15.2829550248       17.0119506768       20.0323028508  WZ3       2195            0.0000000000
     16165      5389  TIP3      OH2            16.6760150248       17.8142206768        2.3052328508  WZ3       2196            0.0000000000
     16166      5389  TIP3      H1             16.9590550248       17.0197406768        2.7579228508  WZ3       2196            0.0000000000
     16167      5389  TIP3      H2             17.4158050248       18.0473206768        1.7443428508  WZ3       2196            0.0000000000
     16168      5390  TIP3      OH2             3.2893750248       13.3801406768       20.0302628508  WZ3       2197            0.0000000000
     16169      5390  TIP3      H1              3.4334250248       12.4782106768       19.7439328508  WZ3       2197            0.0000000000
     16170      5390  TIP3      H2              2.5171150248       13.6663506768       19.5424928508  WZ3       2197            0.0000000000
     16171      5391  TIP3      OH2             7.6307450248       13.7237106768        2.1627228508  WZ3       2198            0.0000000000
     16172      5391  TIP3      H1              7.6951550248       12.9296706768        2.6933628508  WZ3       2198            0.0000000000
     16173      5391  TIP3      H2              8.2836650248       13.6049906768        1.4729228508  WZ3       2198            0.0000000000
     16174      5392  TIP3      OH2             9.9449850248       13.3499506768       19.4629028508  WZ3       2199            0.0000000000
     16175      5392  TIP3      H1              9.6163650248       13.6207606768       18.6056428508  WZ3       2199            0.0000000000
     16176      5392  TIP3      H2             10.0968050248       12.4089306768       19.3754028508  WZ3       2199            0.0000000000
     16177      5393  TIP3      OH2            12.9830850248       14.7708806768        1.8985228508  WZ3       2200            0.0000000000
     16178      5393  TIP3      H1             12.7144950248       14.9510906768        2.7994128508  WZ3       2200            0.0000000000
     16179      5393  TIP3      H2             12.7766450248       13.8455006768        1.7671028508  WZ3       2200            0.0000000000
     16180      5394  TIP3      OH2            15.6795050248       13.2656806768       16.8461328508  WZ3       2201            0.0000000000
     16181      5394  TIP3      H1             16.4249850248       13.8540506768       16.7265328508  WZ3       2201            0.0000000000
     16182      5394  TIP3      H2             14.9221850248       13.8476506768       16.9094428508  WZ3       2201            0.0000000000
     16183      5395  TIP3      OH2             4.1220250248       10.5804706768       19.4501928508  WZ3       2202            0.0000000000
     16184      5395  TIP3      H1              4.5301450248        9.7231306768       19.3292528508  WZ3       2202            0.0000000000
     16185      5395  TIP3      H2              3.8617850248       10.5946006768       20.3712228508  WZ3       2202            0.0000000000
     16186      5396  TIP3      OH2             8.7801250248       11.6963306768        4.4685228508  WZ3       2203            0.0000000000
     16187      5396  TIP3      H1              8.3203250248       11.2121606768        5.1543728508  WZ3       2203            0.0000000000
     16188      5396  TIP3      H2              9.0349950248       11.0278706768        3.8325728508  WZ3       2203            0.0000000000
     16189      5397  TIP3      OH2             8.0690550248        9.5890406768       16.8244828508  WZ3       2204            0.0000000000
     16190      5397  TIP3      H1              7.4506650248       10.2637006768       17.1049528508  WZ3       2204            0.0000000000
     16191      5397  TIP3      H2              8.4131750248        9.9104306768       15.9911028508  WZ3       2204            0.0000000000
     16192      5398  TIP3      OH2             9.8511650248        9.9395106768        2.7308428508  WZ3       2205            0.0000000000
     16193      5398  TIP3      H1              9.6706650248        9.7846306768        1.8036728508  WZ3       2205            0.0000000000
     16194      5398  TIP3      H2             10.8012150248       10.0473806768        2.7756328508  WZ3       2205            0.0000000000
     16195      5399  TIP3      OH2            13.0888750248       12.0605706768       20.1019628508  WZ3       2206            0.0000000000
     16196      5399  TIP3      H1             14.0419950248       12.1444806768       20.0745628508  WZ3       2206            0.0000000000
     16197      5399  TIP3      H2             12.9283350248       11.3487506768       20.7214528508  WZ3       2206            0.0000000000
     16198      5400  TIP3      OH2            19.2409950248       12.2939306768        2.1766528508  WZ3       2207            0.0000000000
     16199      5400  TIP3      H1             18.9674750248       11.8694806768        1.3634828508  WZ3       2207            0.0000000000
     16200      5400  TIP3      H2             19.2804050248       13.2253806768        1.9596928508  WZ3       2207            0.0000000000
     16201      5401  TIP3      OH2             8.4084250248        6.9441206768       17.9067928508  WZ3       2208            0.0000000000
     16202      5401  TIP3      H1              8.5585150248        6.2152506768       17.3047628508  WZ3       2208            0.0000000000
     16203      5401  TIP3      H2              8.4106650248        7.7212906768       17.3480128508  WZ3       2208            0.0000000000
     16204      5402  TIP3      OH2             8.8209950248        5.3137006768       15.3995328508  WZ3       2209            0.0000000000
     16205      5402  TIP3      H1              9.3567450248        5.7653706768       14.7474628508  WZ3       2209            0.0000000000
     16206      5402  TIP3      H2              7.9689550248        5.2056806768       14.9769428508  WZ3       2209            0.0000000000
     16207      5403  TIP3      OH2            10.4028350248       10.7533206768       15.6390528508  WZ3       2210            0.0000000000
     16208      5403  TIP3      H1             11.1533150248       10.5970706768       15.0658328508  WZ3       2210            0.0000000000
     16209      5403  TIP3      H2             10.0636650248       11.6049806768       15.3636028508  WZ3       2210            0.0000000000
     16210      5404  TIP3      OH2            14.8184550248        8.5685006768       20.6675828508  WZ3       2211            0.0000000000
     16211      5404  TIP3      H1             15.0105850248        7.6374406768       20.5560328508  WZ3       2211            0.0000000000
     16212      5404  TIP3      H2             15.6760850248        8.9934506768       20.6571228508  WZ3       2211            0.0000000000
     16213      5405  TIP3      OH2            16.1351750248       11.3570206768       18.7448528508  WZ3       2212            0.0000000000
     16214      5405  TIP3      H1             15.8536750248       12.0664806768       18.1672328508  WZ3       2212            0.0000000000
     16215      5405  TIP3      H2             17.0776050248       11.2843206768       18.5939728508  WZ3       2212            0.0000000000
     16216      5406  TIP3      OH2             6.8870550248        8.1424706768       19.8183528508  WZ3       2213            0.0000000000
     16217      5406  TIP3      H1              6.1199550248        7.6099506768       19.6081128508  WZ3       2213            0.0000000000
     16218      5406  TIP3      H2              7.5659550248        7.8325106768       19.2189828508  WZ3       2213            0.0000000000
     16219      5407  TIP3      OH2             9.6265450248        2.7702706768       15.8308928508  WZ3       2214            0.0000000000
     16220      5407  TIP3      H1              9.5285050248        3.7165906768       15.7255128508  WZ3       2214            0.0000000000
     16221      5407  TIP3      H2              8.8841650248        2.3976506768       15.3552428508  WZ3       2214            0.0000000000
     16222      5408  TIP3      OH2            10.8905950248        7.0918106768       19.3947328508  WZ3       2215            0.0000000000
     16223      5408  TIP3      H1             10.6551350248        6.8724806768       20.2962228508  WZ3       2215            0.0000000000
     16224      5408  TIP3      H2             10.1072850248        6.8849306768       18.8849828508  WZ3       2215            0.0000000000
     16225      5409  TIP3      OH2            13.6062550248        6.2191606768       18.4700828508  WZ3       2216            0.0000000000
     16226      5409  TIP3      H1             12.6587950248        6.2511306768       18.6024128508  WZ3       2216            0.0000000000
     16227      5409  TIP3      H2             13.9189250248        5.5938706768       19.1239028508  WZ3       2216            0.0000000000
     16228      5410  TIP3      OH2            15.2404050248        4.8532706768       20.4752728508  WZ3       2217            0.0000000000
     16229      5410  TIP3      H1             15.1435850248        3.9010006768       20.4694628508  WZ3       2217            0.0000000000
     16230      5410  TIP3      H2             14.9187150248        5.1219506768       21.3358228508  WZ3       2217            0.0000000000
     16231      5411  TIP3      OH2             5.0673350248        6.0628506768       19.5228228508  WZ3       2218            0.0000000000
     16232      5411  TIP3      H1              5.2790750248        5.3564606768       18.9125728508  WZ3       2218            0.0000000000
     16233      5411  TIP3      H2              4.9560850248        5.6254506768       20.3669428508  WZ3       2218            0.0000000000
     16234      5412  TIP3      OH2             9.8483550248        2.0640106768       18.5021728508  WZ3       2219            0.0000000000
     16235      5412  TIP3      H1             10.5601950248        1.4242306768       18.4880828508  WZ3       2219            0.0000000000
     16236      5412  TIP3      H2              9.7473950248        2.3308406768       17.5884828508  WZ3       2219            0.0000000000
     16237      5413  TIP3      OH2            10.2021050248        3.7468506768       20.5558028508  WZ3       2220            0.0000000000
     16238      5413  TIP3      H1             10.0703250248        3.2712306768       19.7356528508  WZ3       2220            0.0000000000
     16239      5413  TIP3      H2              9.6028450248        4.4912106768       20.5005128508  WZ3       2220            0.0000000000
     16240      5414  TIP3      OH2             9.7483350248       20.6298806768        3.7322028508  WZ3       2221            0.0000000000
     16241      5414  TIP3      H1             10.6814050248       20.7877506768        3.8760428508  WZ3       2221            0.0000000000
     16242      5414  TIP3      H2              9.4842150248       21.3051806768        3.1073528508  WZ3       2221            0.0000000000
     16243      5415  TIP3      OH2             3.3168250248       15.2662606768        3.2150128508  WZ3       2222            0.0000000000
     16244      5415  TIP3      H1              4.2307450248       15.3451506768        3.4884028508  WZ3       2222            0.0000000000
     16245      5415  TIP3      H2              3.3241350248       14.5792206768        2.5485728508  WZ3       2222            0.0000000000
     16246      5416  TIP3      OH2             1.9658850248       20.6591106768        8.2924028508  WZ3       2223            0.0000000000
     16247      5416  TIP3      H1              1.3185950248       20.1972806768        7.7595228508  WZ3       2223            0.0000000000
     16248      5416  TIP3      H2              2.3203450248       19.9874406768        8.8750228508  WZ3       2223            0.0000000000
     16249      5417  TIP3      OH2             2.8358050248       18.7398106768       10.0970228508  WZ3       2224            0.0000000000
     16250      5417  TIP3      H1              2.5014850248       17.8595406768       10.2690428508  WZ3       2224            0.0000000000
     16251      5417  TIP3      H2              3.0580450248       19.0853106768       10.9615828508  WZ3       2224            0.0000000000
     16252      5418  TIP3      OH2            20.3842850248       19.5494506768       13.0775028508  WZ3       2225            0.0000000000
     16253      5418  TIP3      H1             20.3629550248       19.7342906768       14.0164428508  WZ3       2225            0.0000000000
     16254      5418  TIP3      H2             21.0749050248       20.1178506768       12.7366428508  WZ3       2225            0.0000000000
     16255      5419  TIP3      OH2            19.9475750248       19.1165606768       15.9994128508  WZ3       2226            0.0000000000
     16256      5419  TIP3      H1             19.4604450248       18.3809706768       15.6281528508  WZ3       2226            0.0000000000
     16257      5419  TIP3      H2             20.4968450248       18.7229506768       16.6773528508  WZ3       2226            0.0000000000
     16258      5420  TIP3      OH2            18.3983050248       14.9063706768       20.6374428508  WZ3       2227            0.0000000000
     16259      5420  TIP3      H1             17.5324150248       14.8013406768       21.0316728508  WZ3       2227            0.0000000000
     16260      5420  TIP3      H2             18.7748950248       15.6647006768       21.0839128508  WZ3       2227            0.0000000000
     16261      5421  TIP3      OH2            19.6992750248       13.1627406768        6.1516928508  WZ3       2228            0.0000000000
     16262      5421  TIP3      H1             20.5494150248       13.5838306768        6.2788528508  WZ3       2228            0.0000000000
     16263      5421  TIP3      H2             19.7047850248       12.4227506768        6.7588328508  WZ3       2228            0.0000000000
     16264      5422  TIP3      OH2            20.0938350248       11.2164806768        7.9752628508  WZ3       2229            0.0000000000
     16265      5422  TIP3      H1             19.3672950248       10.7367406768        8.3730228508  WZ3       2229            0.0000000000
     16266      5422  TIP3      H2             20.6751650248       11.4219506768        8.7074228508  WZ3       2229            0.0000000000
     16267      5423  TIP3      OH2            19.8529550248       14.0012306768       12.9230228508  WZ3       2230            0.0000000000
     16268      5423  TIP3      H1             20.6863750248       13.6232306768       12.6423828508  WZ3       2230            0.0000000000
     16269      5423  TIP3      H2             19.9649850248       14.9443506768       12.8039328508  WZ3       2230            0.0000000000
     16270      5424  TIP3      OH2            18.3391850248       16.8789806768       15.2298628508  WZ3       2231            0.0000000000
     16271      5424  TIP3      H1             17.6917150248       17.2041306768       15.8553828508  WZ3       2231            0.0000000000
     16272      5424  TIP3      H2             17.8215850248       16.4387506768       14.5556928508  WZ3       2231            0.0000000000
     16273      5425  TIP3      OH2            20.3621450248       11.1173306768        4.3663928508  WZ3       2232            0.0000000000
     16274      5425  TIP3      H1             19.8402550248       11.4737406768        3.6474828508  WZ3       2232            0.0000000000
     16275      5425  TIP3      H2             20.3290650248       11.7921106768        5.0444828508  WZ3       2232            0.0000000000
     16276      5426  TIP3      OH2            18.7110450248        8.3568906768        2.9171028508  WZ3       2233            0.0000000000
     16277      5426  TIP3      H1             18.8074850248        9.0235906768        2.2370728508  WZ3       2233            0.0000000000
     16278      5426  TIP3      H2             18.5710050248        7.5415206768        2.4356528508  WZ3       2233            0.0000000000
     16279      5427  TIP3      OH2            17.8805150248        9.7371306768        8.5381328508  WZ3       2234            0.0000000000
     16280      5427  TIP3      H1             17.7303950248        8.7919906768        8.5179128508  WZ3       2234            0.0000000000
     16281      5427  TIP3      H2             17.5269650248       10.0182706768        9.3820428508  WZ3       2234            0.0000000000
     16282      5428  TIP3      OH2             2.9157550248       11.8153506768       12.5485128508  WZ3       2235            0.0000000000
     16283      5428  TIP3      H1              3.1000450248       11.7335206768       11.6128028508  WZ3       2235            0.0000000000
     16284      5428  TIP3      H2              3.7650450248       11.6910506768       12.9721528508  WZ3       2235            0.0000000000
     16285      5429  TIP3      OH2            18.7368050248       11.7074606768       18.1769628508  WZ3       2236            0.0000000000
     16286      5429  TIP3      H1             19.3195350248       10.9726906768       18.3686828508  WZ3       2236            0.0000000000
     16287      5429  TIP3      H2             19.3007350248       12.4794906768       18.2235428508  WZ3       2236            0.0000000000
     16288      5430  TIP3      OH2            20.2335150248        9.6100406768       18.8615028508  WZ3       2237            0.0000000000
     16289      5430  TIP3      H1             19.3701850248        9.2312506768       18.6959728508  WZ3       2237            0.0000000000
     16290      5430  TIP3      H2             20.8378850248        8.8715206768       18.7870828508  WZ3       2237            0.0000000000
     16291      5431  TIP3      OH2            17.9584250248        5.7648706768        2.0346528508  WZ3       2238            0.0000000000
     16292      5431  TIP3      H1             18.5690050248        5.3935506768        2.6714728508  WZ3       2238            0.0000000000
     16293      5431  TIP3      H2             17.1215750248        5.3435606768        2.2306528508  WZ3       2238            0.0000000000
     16294      5432  TIP3      OH2            17.5909950248        7.3197106768        7.0006428508  WZ3       2239            0.0000000000
     16295      5432  TIP3      H1             17.8707050248        6.4127506768        7.1248128508  WZ3       2239            0.0000000000
     16296      5432  TIP3      H2             18.3501650248        7.7538606768        6.6115628508  WZ3       2239            0.0000000000
     16297      5433  TIP3      OH2            18.2028250248        7.9014506768       12.4365328508  WZ3       2240            0.0000000000
     16298      5433  TIP3      H1             19.1356250248        8.1134406768       12.4021328508  WZ3       2240            0.0000000000
     16299      5433  TIP3      H2             17.9675750248        8.0026606768       13.3588328508  WZ3       2240            0.0000000000
     16300      5434  TIP3      OH2            18.2320150248        8.6379806768       15.2124728508  WZ3       2241            0.0000000000
     16301      5434  TIP3      H1             17.3891450248        8.9060206768       15.5784528508  WZ3       2241            0.0000000000
     16302      5434  TIP3      H2             18.6744450248        9.4601706768       15.0015828508  WZ3       2241            0.0000000000
     16303      5435  TIP3      OH2             2.5132350248        7.0858506768       18.6893928508  WZ3       2242            0.0000000000
     16304      5435  TIP3      H1              3.4327250248        6.9636806768       18.9257028508  WZ3       2242            0.0000000000
     16305      5435  TIP3      H2              2.0636850248        6.3358206768       19.0787428508  WZ3       2242            0.0000000000
     16306      5436  TIP3      OH2            20.5151750248        2.6180006768       20.5659728508  WZ3       2243            0.0000000000
     16307      5436  TIP3      H1             20.8648750248        1.9643506768       19.9604428508  WZ3       2243            0.0000000000
     16308      5436  TIP3      H2             20.6621250248        3.4554106768       20.1262328508  WZ3       2243            0.0000000000
     16309      5437  TIP3      OH2            18.2044750248        4.5826406768        7.0488428508  WZ3       2244            0.0000000000
     16310      5437  TIP3      H1             18.3869750248        4.1337906768        7.8743428508  WZ3       2244            0.0000000000
     16311      5437  TIP3      H2             17.6047650248        3.9980806768        6.5853028508  WZ3       2244            0.0000000000
     16312      5438  TIP3      OH2             3.7344850248        5.3980106768       11.5806828508  WZ3       2245            0.0000000000
     16313      5438  TIP3      H1              4.1796450248        4.6062606768       11.8826528508  WZ3       2245            0.0000000000
     16314      5438  TIP3      H2              4.2007850248        6.1145306768       12.0112428508  WZ3       2245            0.0000000000
     16315      5439  TIP3      OH2             2.0385150248        8.3973106768       12.6497028508  WZ3       2246            0.0000000000
     16316      5439  TIP3      H1              2.5304950248        8.1763606768       11.8589028508  WZ3       2246            0.0000000000
     16317      5439  TIP3      H2              2.4006050248        9.2376506768       12.9306528508  WZ3       2246            0.0000000000
     16318      5440  TIP3      OH2            20.0348950248        4.7274606768       18.9151028508  WZ3       2247            0.0000000000
     16319      5440  TIP3      H1             19.1174650248        4.9981706768       18.8794528508  WZ3       2247            0.0000000000
     16320      5440  TIP3      H2             20.1578350248        4.1923006768       18.1310728508  WZ3       2247            0.0000000000
     16321      5441  TIP3      OH2            20.0710950248        4.6504506768        3.5768728508  WZ3       2248            0.0000000000
     16322      5441  TIP3      H1             20.4833550248        3.9290206768        3.1016728508  WZ3       2248            0.0000000000
     16323      5441  TIP3      H2             20.7527450248        5.3199106768        3.6353028508  WZ3       2248            0.0000000000
     16324      5442  TIP3      OH2             2.3521650248        4.6552206768        6.7039428508  WZ3       2249            0.0000000000
     16325      5442  TIP3      H1              1.4270050248        4.8638806768        6.5744928508  WZ3       2249            0.0000000000
     16326      5442  TIP3      H2              2.8061550248        5.1393006768        6.0141728508  WZ3       2249            0.0000000000
     16327      5443  TIP3      OH2            17.1228850248       19.6393906768        8.6496828508  WZ3       2250            0.0000000000
     16328      5443  TIP3      H1             17.7751750248       19.2916006768        8.0415928508  WZ3       2250            0.0000000000
     16329      5443  TIP3      H2             17.6332650248       20.1277106768        9.2956528508  WZ3       2250            0.0000000000
     16330      5444  TIP3      OH2             2.3157050248        3.3931206768       15.0481928508  WZ3       2251            0.0000000000
     16331      5444  TIP3      H1              1.6507550248        3.1471506768       15.6912828508  WZ3       2251            0.0000000000
     16332      5444  TIP3      H2              1.8728350248        4.0151606768       14.4709928508  WZ3       2251            0.0000000000
     16333      5445  TIP3      OH2             4.5076350248       16.5685306768       19.1927728508  WZ3       2252            0.0000000000
     16334      5445  TIP3      H1              3.6868850248       16.7431806768       18.7322428508  WZ3       2252            0.0000000000
     16335      5445  TIP3      H2              4.2554150248       16.4950006768       20.1132128508  WZ3       2252            0.0000000000
     16336      5446  TIP3      OH2             7.4619250248       17.5426506768       15.4511728508  WZ3       2253            0.0000000000
     16337      5446  TIP3      H1              7.0370350248       18.3525006768       15.1686328508  WZ3       2253            0.0000000000
     16338      5446  TIP3      H2              8.3662050248       17.6280606768       15.1491528508  WZ3       2253            0.0000000000
     16339      5447  TIP3      OH2            11.7730650248       18.9416506768       18.4105428508  WZ3       2254            0.0000000000
     16340      5447  TIP3      H1             11.9578150248       18.6082606768       19.2885728508  WZ3       2254            0.0000000000
     16341      5447  TIP3      H2             12.6195150248       19.2515106768       18.0884628508  WZ3       2254            0.0000000000
     16342      5448  TIP3      OH2            14.1181050248       20.2275406768       17.6546828508  WZ3       2255            0.0000000000
     16343      5448  TIP3      H1             14.7949950248       19.5947706768       17.4146028508  WZ3       2255            0.0000000000
     16344      5448  TIP3      H2             14.4399850248       20.6285906768       18.4620128508  WZ3       2255            0.0000000000
     16345      5449  TIP3      OH2            19.0354850248        2.8170906768       16.7341828508  WZ3       2256            0.0000000000
     16346      5449  TIP3      H1             18.2228350248        3.1421206768       16.3466528508  WZ3       2256            0.0000000000
     16347      5449  TIP3      H2             19.2683350248        2.0569406768       16.2010928508  WZ3       2256            0.0000000000
     16348      5450  TIP3      OH2             4.8635950248       20.7990406768       15.4987028508  WZ3       2257            0.0000000000
     16349      5450  TIP3      H1              4.1432350248       21.2391406768       15.0474728508  WZ3       2257            0.0000000000
     16350      5450  TIP3      H2              4.4979950248       20.5485106768       16.3471028508  WZ3       2257            0.0000000000
     16351      5451  TIP3      OH2             7.3308550248       20.3994306768       14.5284228508  WZ3       2258            0.0000000000
     16352      5451  TIP3      H1              6.4660750248       20.4712806768       14.9324328508  WZ3       2258            0.0000000000
     16353      5451  TIP3      H2              7.2757550248       20.9461606768       13.7446728508  WZ3       2258            0.0000000000
     16354      5452  TIP3      OH2            12.0414150248       20.2873206768       13.7040228508  WZ3       2259            0.0000000000
     16355      5452  TIP3      H1             11.5848150248       20.8162906768       13.0498628508  WZ3       2259            0.0000000000
     16356      5452  TIP3      H2             12.2042150248       20.8904606768       14.4292528508  WZ3       2259            0.0000000000
     16357      5453  TIP3      OH2            14.3690450248       19.1652806768       14.6490528508  WZ3       2260            0.0000000000
     16358      5453  TIP3      H1             13.4644150248       19.3303006768       14.3832628508  WZ3       2260            0.0000000000
     16359      5453  TIP3      H2             14.7979050248       20.0185006768       14.5833928508  WZ3       2260            0.0000000000
     16360      5454  TIP3      OH2            16.9732350248       20.7351906768       14.9438328508  WZ3       2261            0.0000000000
     16361      5454  TIP3      H1             16.7914350248       21.6510806768       14.7333228508  WZ3       2261            0.0000000000
     16362      5454  TIP3      H2             17.1500150248       20.3249006768       14.0972928508  WZ3       2261            0.0000000000
     16363      5455  TIP3      OH2             4.2784050248       19.4222906768       12.4088828508  WZ3       2262            0.0000000000
     16364      5455  TIP3      H1              4.2600050248       18.9968006768       13.2661128508  WZ3       2262            0.0000000000
     16365      5455  TIP3      H2              5.0831950248       19.1037906768       12.0001028508  WZ3       2262            0.0000000000
     16366      5456  TIP3      OH2             6.4197150248       18.1321606768       11.0638728508  WZ3       2263            0.0000000000
     16367      5456  TIP3      H1              6.2007850248       17.2159006768       11.2334728508  WZ3       2263            0.0000000000
     16368      5456  TIP3      H2              7.2439350248       18.2722006768       11.5300128508  WZ3       2263            0.0000000000
     16369      5457  TIP3      OH2             8.9569650248       18.6020906768       11.9126728508  WZ3       2264            0.0000000000
     16370      5457  TIP3      H1              9.1695350248       17.7139906768       11.6257628508  WZ3       2264            0.0000000000
     16371      5457  TIP3      H2              9.0214750248       18.5678606768       12.8670728508  WZ3       2264            0.0000000000
     16372      5458  TIP3      OH2            12.4653350248        4.2661506768       11.0570028508  WZ3       2265            0.0000000000
     16373      5458  TIP3      H1             11.7910150248        3.6367106768       11.3125828508  WZ3       2265            0.0000000000
     16374      5458  TIP3      H2             13.0292550248        3.7820406768       10.4537928508  WZ3       2265            0.0000000000
     16375      5459  TIP3      OH2            17.6080550248        2.3735506768       11.1697128508  WZ3       2266            0.0000000000
     16376      5459  TIP3      H1             18.2118150248        2.9210906768       10.6678128508  WZ3       2266            0.0000000000
     16377      5459  TIP3      H2             16.7382550248        2.6925906768       10.9291228508  WZ3       2266            0.0000000000
     16378      5460  TIP3      OH2            19.3350950248        3.5124206768        9.5028028508  WZ3       2267            0.0000000000
     16379      5460  TIP3      H1             19.9468450248        2.9979906768        8.9761628508  WZ3       2267            0.0000000000
     16380      5460  TIP3      H2             19.7174350248        4.3896306768        9.5262428508  WZ3       2267            0.0000000000
     16381      5461  TIP3      OH2             4.7920850248        2.9001806768        8.8789928508  WZ3       2268            0.0000000000
     16382      5461  TIP3      H1              4.0150650248        2.6656706768        8.3715828508  WZ3       2268            0.0000000000
     16383      5461  TIP3      H2              5.3224450248        2.1033906768        8.8877928508  WZ3       2268            0.0000000000
     16384      5462  TIP3      OH2             3.6284250248        2.6979906768        4.6826028508  WZ3       2269            0.0000000000
     16385      5462  TIP3      H1              4.0674950248        3.3090406768        4.0909528508  WZ3       2269            0.0000000000
     16386      5462  TIP3      H2              2.9946650248        3.2364006768        5.1566028508  WZ3       2269            0.0000000000
     16387      5463  TIP3      OH2             9.3713450248        2.8268906768        8.6923028508  WZ3       2270            0.0000000000
     16388      5463  TIP3      H1             10.2456850248        3.2153206768        8.6627328508  WZ3       2270            0.0000000000
     16389      5463  TIP3      H2              9.2354250248        2.6116706768        9.6150228508  WZ3       2270            0.0000000000
     16390      5464  TIP3      OH2            14.9281850248        2.8568706768       10.3414728508  WZ3       2271            0.0000000000
     16391      5464  TIP3      H1             15.0043450248        2.9520306768        9.3920728508  WZ3       2271            0.0000000000
     16392      5464  TIP3      H2             14.6531050248        1.9491606768       10.4703828508  WZ3       2271            0.0000000000
     16393      5465  TIP3      OH2            16.2814450248        2.8826506768        6.0339728508  WZ3       2272            0.0000000000
     16394      5465  TIP3      H1             15.5785550248        3.4975706768        5.8241128508  WZ3       2272            0.0000000000
     16395      5465  TIP3      H2             15.8365850248        2.0453206768        6.1650628508  WZ3       2272            0.0000000000
     16396      5466  TIP3      OH2             3.5293750248       18.6462106768        5.5801128508  WZ3       2273            0.0000000000
     16397      5466  TIP3      H1              2.8443650248       18.6081006768        4.9126228508  WZ3       2273            0.0000000000
     16398      5466  TIP3      H2              3.5330950248       19.5589706768        5.8683228508  WZ3       2273            0.0000000000
     16399      5467  TIP3      OH2             5.4893350248        4.6141406768        3.1250128508  WZ3       2274            0.0000000000
     16400      5467  TIP3      H1              5.9806750248        3.9843806768        2.5975628508  WZ3       2274            0.0000000000
     16401      5467  TIP3      H2              6.1129650248        4.9100806768        3.7881328508  WZ3       2274            0.0000000000
     16402      5468  TIP3      OH2            10.5153450248        4.9072906768        5.5820628508  WZ3       2275            0.0000000000
     16403      5468  TIP3      H1             10.6934750248        4.2606106768        6.2649228508  WZ3       2275            0.0000000000
     16404      5468  TIP3      H2             10.4619650248        5.7410606768        6.0491728508  WZ3       2275            0.0000000000
     16405      5469  TIP3      OH2            12.3937250248       19.8557006768        3.9777328508  WZ3       2276            0.0000000000
     16406      5469  TIP3      H1             13.2597450248       20.2224406768        3.7995528508  WZ3       2276            0.0000000000
     16407      5469  TIP3      H2             12.1470050248       19.4165006768        3.1638128508  WZ3       2276            0.0000000000
     16408      5470  TIP3      OH2            19.1026850248       19.4187306768        6.6568428508  WZ3       2277            0.0000000000
     16409      5470  TIP3      H1             18.9083950248       18.6709406768        6.0918028508  WZ3       2277            0.0000000000
     16410      5470  TIP3      H2             19.0636950248       20.1767406768        6.0736328508  WZ3       2277            0.0000000000
     16411      5471  TIP3      OH2             4.7498850248        3.4143706768       18.3966128508  WZ3       2278            0.0000000000
     16412      5471  TIP3      H1              4.3837050248        2.6486306768       18.8390828508  WZ3       2278            0.0000000000
     16413      5471  TIP3      H2              5.6627350248        3.4433906768       18.6831228508  WZ3       2278            0.0000000000
     16414      5472  TIP3      OH2             6.7229650248        2.7648106768       19.9323228508  WZ3       2279            0.0000000000
     16415      5472  TIP3      H1              7.6213250248        2.4908306768       19.7476628508  WZ3       2279            0.0000000000
     16416      5472  TIP3      H2              6.3362750248        2.0224106768       20.3965828508  WZ3       2279            0.0000000000
     16417      5473  TIP3      OH2             5.3474950248       19.5662906768        2.6053228508  WZ3       2280            0.0000000000
     16418      5473  TIP3      H1              5.0799550248       19.8525806768        3.4786328508  WZ3       2280            0.0000000000
     16419      5473  TIP3      H2              6.1187550248       19.0202106768        2.7575728508  WZ3       2280            0.0000000000
     16420      5474  TIP3      OH2            15.1441950248        2.0973406768       20.1146028508  WZ3       2281            0.0000000000
     16421      5474  TIP3      H1             15.2209150248        1.6714106768       20.9683728508  WZ3       2281            0.0000000000
     16422      5474  TIP3      H2             16.0378550248        2.1108106768       19.7719528508  WZ3       2281            0.0000000000
     16423      5475  TIP3      OH2            18.3203050248       18.1699706768       18.8070228508  WZ3       2282            0.0000000000
     16424      5475  TIP3      H1             17.5384950248       17.9837706768       18.2870828508  WZ3       2282            0.0000000000
     16425      5475  TIP3      H2             18.2482950248       19.0994006768       19.0242728508  WZ3       2282            0.0000000000
     16426      5476  TIP3      OH2            32.7263450248       12.0564106768        8.8377428508  WZ3       2283            0.0000000000
     16427      5476  TIP3      H1             32.8154550248       13.0002306768        8.7054528508  WZ3       2283            0.0000000000
     16428      5476  TIP3      H2             32.0881050248       11.7810506768        8.1796828508  WZ3       2283            0.0000000000
     16429      5477  TIP3      OH2            31.6594750248       11.3114806768       12.2565628508  WZ3       2284            0.0000000000
     16430      5477  TIP3      H1             31.6212250248       10.6651106768       12.9615228508  WZ3       2284            0.0000000000
     16431      5477  TIP3      H2             31.3371250248       10.8449206768       11.4854328508  WZ3       2284            0.0000000000
     16432      5478  TIP3      OH2            24.0279750248       10.9256906768       13.8495528508  WZ3       2285            0.0000000000
     16433      5478  TIP3      H1             24.0691850248       10.3000206768       14.5727928508  WZ3       2285            0.0000000000
     16434      5478  TIP3      H2             24.7307450248       11.5495506768       14.0315928508  WZ3       2285            0.0000000000
     16435      5479  TIP3      OH2            35.3654950248       14.2505206768       10.5580728508  WZ3       2286            0.0000000000
     16436      5479  TIP3      H1             34.9247650248       13.5301206768       11.0086328508  WZ3       2286            0.0000000000
     16437      5479  TIP3      H2             35.3524650248       14.9712406768       11.1878428508  WZ3       2286            0.0000000000
     16438      5480  TIP3      OH2            24.9512850248       15.3755806768       12.3844628508  WZ3       2287            0.0000000000
     16439      5480  TIP3      H1             24.5818050248       14.5736306768       12.0148928508  WZ3       2287            0.0000000000
     16440      5480  TIP3      H2             25.8923950248       15.2070706768       12.4308028508  WZ3       2287            0.0000000000
     16441      5481  TIP3      OH2            21.5613350248        9.0358406768        7.7773428508  WZ3       2288            0.0000000000
     16442      5481  TIP3      H1             21.1136750248        9.8817106768        7.7589928508  WZ3       2288            0.0000000000
     16443      5481  TIP3      H2             21.0004550248        8.4562606768        7.2618528508  WZ3       2288            0.0000000000
     16444      5482  TIP3      OH2            22.2719450248       11.1978006768        9.9031428508  WZ3       2289            0.0000000000
     16445      5482  TIP3      H1             22.4852950248       10.4279606768       10.4304428508  WZ3       2289            0.0000000000
     16446      5482  TIP3      H2             23.0097050248       11.2874706768        9.2999028508  WZ3       2289            0.0000000000
     16447      5483  TIP3      OH2            30.0489150248       13.7436206768       12.6626628508  WZ3       2291            0.0000000000
     16448      5483  TIP3      H1             30.3527050248       13.0577606768       12.0680728508  WZ3       2291            0.0000000000
     16449      5483  TIP3      H2             30.7703150248       13.8624906768       13.2804628508  WZ3       2291            0.0000000000
     16450      5484  TIP3      OH2            33.1896150248        8.1378606768       12.9901428508  WZ3       2292            0.0000000000
     16451      5484  TIP3      H1             33.3322050248        7.1915606768       13.0103028508  WZ3       2292            0.0000000000
     16452      5484  TIP3      H2             33.0835150248        8.3448406768       12.0616328508  WZ3       2292            0.0000000000
     16453      5485  TIP3      OH2            26.3444450248        6.2395006768       10.2626228508  WZ3       2293            0.0000000000
     16454      5485  TIP3      H1             26.3875550248        7.0993506768        9.8442528508  WZ3       2293            0.0000000000
     16455      5485  TIP3      H2             25.8868550248        5.6869706768        9.6289428508  WZ3       2293            0.0000000000
     16456      5486  TIP3      OH2            34.0667150248        6.3700606768        8.6634528508  WZ3       2294            0.0000000000
     16457      5486  TIP3      H1             34.7131450248        6.0413806768        9.2882128508  WZ3       2294            0.0000000000
     16458      5486  TIP3      H2             34.5766550248        6.8879606768        8.0405928508  WZ3       2294            0.0000000000
     16459      5487  TIP3      OH2            22.9645950248        8.6360806768       11.0247628508  WZ3       2295            0.0000000000
     16460      5487  TIP3      H1             23.6182550248        8.0862506768       11.4567728508  WZ3       2295            0.0000000000
     16461      5487  TIP3      H2             22.9885250248        8.3619806768       10.1079628508  WZ3       2295            0.0000000000
     16462      5488  TIP3      OH2            28.1210450248       10.1862106768       10.2399128508  WZ3       2296            0.0000000000
     16463      5488  TIP3      H1             28.7371450248        9.6597506768       10.7493128508  WZ3       2296            0.0000000000
     16464      5488  TIP3      H2             27.5349250248        9.5460806768        9.8362728508  WZ3       2296            0.0000000000
     16465      5489  TIP3      OH2            25.1546350248        5.1573406768       14.3367028508  WZ3       2297            0.0000000000
     16466      5489  TIP3      H1             24.9358050248        5.6874006768       13.5703028508  WZ3       2297            0.0000000000
     16467      5489  TIP3      H2             24.4867250248        5.3838906768       14.9838428508  WZ3       2297            0.0000000000
     16468      5490  TIP3      OH2            32.5236150248       14.6574506768        7.8806128508  WZ3       2298            0.0000000000
     16469      5490  TIP3      H1             32.2281250248       14.3346806768        7.0293028508  WZ3       2298            0.0000000000
     16470      5490  TIP3      H2             32.1993950248       15.5571206768        7.9218728508  WZ3       2298            0.0000000000
     16471      5491  TIP3      OH2            27.7237750248       12.8329106768       14.6240728508  WZ3       2299            0.0000000000
     16472      5491  TIP3      H1             26.9836850248       13.4310606768       14.7275928508  WZ3       2299            0.0000000000
     16473      5491  TIP3      H2             28.4377250248       13.3868706768       14.3084328508  WZ3       2299            0.0000000000
     16474      5492  TIP3      OH2            24.7483650248        7.0495206768       12.2889228508  WZ3       2300            0.0000000000
     16475      5492  TIP3      H1             25.3619950248        7.6822806768       12.6621628508  WZ3       2300            0.0000000000
     16476      5492  TIP3      H2             25.2604350248        6.5770206768       11.6326128508  WZ3       2300            0.0000000000
     16477      5493  TIP3      OH2            26.1312050248       14.7972106768       15.4112228508  WZ3       2301            0.0000000000
     16478      5493  TIP3      H1             26.1259650248       15.6765606768       15.0331528508  WZ3       2301            0.0000000000
     16479      5493  TIP3      H2             25.2776150248       14.7136206768       15.8362128508  WZ3       2301            0.0000000000
     16480      5494  TIP3      OH2            22.2522950248       14.4680006768        6.1931528508  WZ3       2302            0.0000000000
     16481      5494  TIP3      H1             21.9803850248       14.6971006768        5.3044428508  WZ3       2302            0.0000000000
     16482      5494  TIP3      H2             22.2978650248       15.3058806768        6.6536828508  WZ3       2302            0.0000000000
     16483      5495  TIP3      OH2            29.1811050248        2.4628506768       11.7891928508  WZ3       2303            0.0000000000
     16484      5495  TIP3      H1             29.0635250248        1.5144506768       11.7350228508  WZ3       2303            0.0000000000
     16485      5495  TIP3      H2             28.3261150248        2.7954606768       12.0623028508  WZ3       2303            0.0000000000
     16486      5496  TIP3      OH2            31.4475950248       11.3004106768        6.2897728508  WZ3       2306            0.0000000000
     16487      5496  TIP3      H1             30.7361450248       11.8353806768        5.9378228508  WZ3       2306            0.0000000000
     16488      5496  TIP3      H2             32.1385550248       11.3556206768        5.6296628508  WZ3       2306            0.0000000000
     16489      5497  TIP3      OH2            31.5015150248        9.7578406768        3.3282728508  WZ3       2307            0.0000000000
     16490      5497  TIP3      H1             32.2025050248        9.7805306768        3.9796728508  WZ3       2307            0.0000000000
     16491      5497  TIP3      H2             31.8038050248        9.1298106768        2.6722028508  WZ3       2307            0.0000000000
     16492      5498  TIP3      OH2            34.8533650248       11.5097406768        7.2413628508  WZ3       2308            0.0000000000
     16493      5498  TIP3      H1             34.1214650248       11.7381106768        7.8144228508  WZ3       2308            0.0000000000
     16494      5498  TIP3      H2             35.3005850248       10.7960106768        7.6961128508  WZ3       2308            0.0000000000
     16495      5499  TIP3      OH2            26.4987350248       12.1403606768        9.1238628508  WZ3       2310            0.0000000000
     16496      5499  TIP3      H1             26.1682550248       11.7697006768        8.3055628508  WZ3       2310            0.0000000000
     16497      5499  TIP3      H2             27.0871450248       11.4697606768        9.4706928508  WZ3       2310            0.0000000000
     16498      5500  TIP3      OH2            27.8654850248       15.5684206768       11.8050828508  WZ3       2311            0.0000000000
     16499      5500  TIP3      H1             27.7706150248       14.9897306768       11.0485428508  WZ3       2311            0.0000000000
     16500      5500  TIP3      H2             28.5948450248       15.1969906768       12.3013628508  WZ3       2311            0.0000000000
     16501      5501  TIP3      OH2            26.8652850248       10.9089206768       12.7573628508  WZ3       2312            0.0000000000
     16502      5501  TIP3      H1             27.4305350248       11.0303406768       11.9944828508  WZ3       2312            0.0000000000
     16503      5501  TIP3      H2             27.1841750248       11.5464206768       13.3962128508  WZ3       2312            0.0000000000
     16504      5502  TIP3      OH2            33.1745050248       16.4121106768       13.4914128508  WZ3       2313            0.0000000000
     16505      5502  TIP3      H1             32.9341650248       17.0744206768       14.1393328508  WZ3       2313            0.0000000000
     16506      5502  TIP3      H2             32.9763250248       15.5776306768       13.9163728508  WZ3       2313            0.0000000000
     16507      5503  TIP3      OH2            27.7453550248       15.3081906768       17.4745528508  WZ3       2314            0.0000000000
     16508      5503  TIP3      H1             27.4341050248       16.0905106768       17.9298728508  WZ3       2314            0.0000000000
     16509      5503  TIP3      H2             27.0953750248       15.1551006768       16.7887528508  WZ3       2314            0.0000000000
     16510      5504  TIP3      OH2            33.7243150248       10.6720306768        4.9264828508  WZ3       2315            0.0000000000
     16511      5504  TIP3      H1             34.3038650248       10.8220606768        5.6733728508  WZ3       2315            0.0000000000
     16512      5504  TIP3      H2             34.1383150248       11.1427706768        4.2031228508  WZ3       2315            0.0000000000
     16513      5505  TIP3      OH2            24.6653450248       11.5063006768       16.7031228508  WZ3       2316            0.0000000000
     16514      5505  TIP3      H1             24.7356650248       12.1569806768       17.4016228508  WZ3       2316            0.0000000000
     16515      5505  TIP3      H2             23.7745650248       11.6090506768       16.3682128508  WZ3       2316            0.0000000000
     16516      5506  TIP3      OH2            31.4508050248       17.4088806768        8.3617928508  WZ3       2317            0.0000000000
     16517      5506  TIP3      H1             31.9245650248       17.7045106768        9.1392128508  WZ3       2317            0.0000000000
     16518      5506  TIP3      H2             30.8877350248       18.1470406768        8.1287528508  WZ3       2317            0.0000000000
     16519      5507  TIP3      OH2            25.9849450248       17.3796906768       18.2379328508  WZ3       2318            0.0000000000
     16520      5507  TIP3      H1             25.9924750248       17.2436606768       17.2904828508  WZ3       2318            0.0000000000
     16521      5507  TIP3      H2             25.0689850248       17.2625006768       18.4899328508  WZ3       2318            0.0000000000
     16522      5508  TIP3      OH2            25.4890050248       11.2097906768        6.7131428508  WZ3       2319            0.0000000000
     16523      5508  TIP3      H1             25.1971350248       11.9779606768        6.2222728508  WZ3       2319            0.0000000000
     16524      5508  TIP3      H2             24.8145250248       10.5504106768        6.5502828508  WZ3       2319            0.0000000000
     16525      5509  TIP3      OH2            21.5820150248       13.5727106768       15.5281228508  WZ3       2320            0.0000000000
     16526      5509  TIP3      H1             21.0808550248       13.5446506768       14.7130928508  WZ3       2320            0.0000000000
     16527      5509  TIP3      H2             21.5873850248       12.6670306768       15.8378528508  WZ3       2320            0.0000000000
     16528      5510  TIP3      OH2            21.3322850248       16.3530906768       12.4121428508  WZ3       2321            0.0000000000
     16529      5510  TIP3      H1             22.2783450248       16.2087906768       12.3930928508  WZ3       2321            0.0000000000
     16530      5510  TIP3      H2             21.2199150248       17.1373706768       12.9492628508  WZ3       2321            0.0000000000
     16531      5511  TIP3      OH2            30.9231150248       20.3653506768        6.7767128508  WZ3       2323            0.0000000000
     16532      5511  TIP3      H1             30.8477150248       20.2440706768        5.8302328508  WZ3       2323            0.0000000000
     16533      5511  TIP3      H2             30.9559850248       21.3146206768        6.8951728508  WZ3       2323            0.0000000000
     16534      5512  TIP3      OH2            24.5764950248       19.1540506768        8.5576128508  WZ3       2324            0.0000000000
     16535      5512  TIP3      H1             24.7285350248       18.8060906768        9.4362628508  WZ3       2324            0.0000000000
     16536      5512  TIP3      H2             23.7255350248       18.7977806768        8.3023328508  WZ3       2324            0.0000000000
     16537      5513  TIP3      OH2            23.8310650248       14.8962506768       16.5714028508  WZ3       2327            0.0000000000
     16538      5513  TIP3      H1             24.0471950248       14.5348106768       17.4309828508  WZ3       2327            0.0000000000
     16539      5513  TIP3      H2             22.9755350248       14.5216306768       16.3617528508  WZ3       2327            0.0000000000
     16540      5514  TIP3      OH2            26.4498650248        3.3663006768       12.5668228508  WZ3       2328            0.0000000000
     16541      5514  TIP3      H1             25.5882350248        3.2791206768       12.1591128508  WZ3       2328            0.0000000000
     16542      5514  TIP3      H2             26.4274350248        4.2223106768       12.9945828508  WZ3       2328            0.0000000000
     16543      5515  TIP3      OH2            31.1126450248        3.0883406768       15.9415228508  WZ3       2329            0.0000000000
     16544      5515  TIP3      H1             31.5329550248        2.6730506768       16.6945828508  WZ3       2329            0.0000000000
     16545      5515  TIP3      H2             30.1796050248        2.9096706768       16.0587228508  WZ3       2329            0.0000000000
     16546      5516  TIP3      OH2            35.2016250248       11.7048606768        2.5562728508  WZ3       2331            0.0000000000
     16547      5516  TIP3      H1             35.2437050248       11.4822506768        1.6262728508  WZ3       2331            0.0000000000
     16548      5516  TIP3      H2             36.0508350248       12.1035706768        2.7462628508  WZ3       2331            0.0000000000
     16549      5517  TIP3      OH2            30.7743750248        5.5806806768        3.2266028508  WZ3       2332            0.0000000000
     16550      5517  TIP3      H1             30.5208550248        5.5998406768        4.1494128508  WZ3       2332            0.0000000000
     16551      5517  TIP3      H2             30.5175850248        4.7092206768        2.9252228508  WZ3       2332            0.0000000000
     16552      5518  TIP3      OH2            26.5408750248        8.3317506768       13.6618428508  WZ3       2333            0.0000000000
     16553      5518  TIP3      H1             25.8990850248        8.2914806768       14.3708528508  WZ3       2333            0.0000000000
     16554      5518  TIP3      H2             26.5780750248        9.2582206768       13.4241428508  WZ3       2333            0.0000000000
     16555      5519  TIP3      OH2            26.5377850248        8.5527606768        8.5738428508  WZ3       2334            0.0000000000
     16556      5519  TIP3      H1             25.6450750248        8.2123706768        8.5152228508  WZ3       2334            0.0000000000
     16557      5519  TIP3      H2             26.9884450248        8.1758506768        7.8181628508  WZ3       2334            0.0000000000
     16558      5520  TIP3      OH2            32.0733350248        8.9687906768        7.3909228508  WZ3       2335            0.0000000000
     16559      5520  TIP3      H1             31.6643650248        9.7836506768        7.0994028508  WZ3       2335            0.0000000000
     16560      5520  TIP3      H2             32.7939550248        8.8288006768        6.7766328508  WZ3       2335            0.0000000000
     16561      5521  TIP3      OH2            33.0781050248        8.4148306768       10.2048928508  WZ3       2337            0.0000000000
     16562      5521  TIP3      H1             32.8825550248        9.0205106768        9.4899528508  WZ3       2337            0.0000000000
     16563      5521  TIP3      H2             33.2593650248        7.5813506768        9.7705228508  WZ3       2337            0.0000000000
     16564      5522  TIP3      OH2            24.2909250248        8.6521006768       15.5290428508  WZ3       2338            0.0000000000
     16565      5522  TIP3      H1             24.2528650248        9.0522606768       16.3977528508  WZ3       2338            0.0000000000
     16566      5522  TIP3      H2             23.8000350248        7.8353406768       15.6193328508  WZ3       2338            0.0000000000
     16567      5523  TIP3      OH2            27.6566650248        6.0263306768        2.3276428508  WZ3       2339            0.0000000000
     16568      5523  TIP3      H1             27.2257350248        5.5813406768        3.0573828508  WZ3       2339            0.0000000000
     16569      5523  TIP3      H2             26.9385350248        6.3979606768        1.8153928508  WZ3       2339            0.0000000000
     16570      5524  TIP3      OH2            20.8990050248        5.7682806768        9.3795128508  WZ3       2340            0.0000000000
     16571      5524  TIP3      H1             21.5297750248        5.7394906768       10.0989028508  WZ3       2340            0.0000000000
     16572      5524  TIP3      H2             21.3484350248        5.3431506768        8.6491028508  WZ3       2340            0.0000000000
     16573      5525  TIP3      OH2            22.1732150248        6.5144806768        4.8035528508  WZ3       2341            0.0000000000
     16574      5525  TIP3      H1             22.6473850248        7.1054706768        4.2186428508  WZ3       2341            0.0000000000
     16575      5525  TIP3      H2             21.4558550248        7.0447706768        5.1505628508  WZ3       2341            0.0000000000
     16576      5526  TIP3      OH2            32.3420250248       10.0529606768       14.8761328508  WZ3       2342            0.0000000000
     16577      5526  TIP3      H1             32.6655050248        9.4219306768       14.2331828508  WZ3       2342            0.0000000000
     16578      5526  TIP3      H2             31.9019550248        9.5181806768       15.5368728508  WZ3       2342            0.0000000000
     16579      5527  TIP3      OH2            29.1193150248        5.9805106768        9.6602528508  WZ3       2343            0.0000000000
     16580      5527  TIP3      H1             28.2084250248        6.0371906768        9.9488528508  WZ3       2343            0.0000000000
     16581      5527  TIP3      H2             29.6246050248        5.9200606768       10.4709728508  WZ3       2343            0.0000000000
     16582      5528  TIP3      OH2            23.9476550248        7.6091406768        8.4870128508  WZ3       2344            0.0000000000
     16583      5528  TIP3      H1             23.0584550248        7.7086906768        8.1469728508  WZ3       2344            0.0000000000
     16584      5528  TIP3      H2             24.2441450248        6.7674406768        8.1408028508  WZ3       2344            0.0000000000
     16585      5529  TIP3      OH2            27.6008350248        7.6094006768        6.1434728508  WZ3       2345            0.0000000000
     16586      5529  TIP3      H1             28.5323850248        7.7384006768        6.3217828508  WZ3       2345            0.0000000000
     16587      5529  TIP3      H2             27.3858650248        8.2788306768        5.4939428508  WZ3       2345            0.0000000000
     16588      5530  TIP3      OH2            33.5245050248        5.2151406768       12.9244328508  WZ3       2346            0.0000000000
     16589      5530  TIP3      H1             32.8476650248        5.3464506768       13.5884028508  WZ3       2346            0.0000000000
     16590      5530  TIP3      H2             33.0389950248        5.0600906768       12.1142028508  WZ3       2346            0.0000000000
     16591      5531  TIP3      OH2            26.2748550248        8.8036206768        3.7100828508  WZ3       2347            0.0000000000
     16592      5531  TIP3      H1             25.7323650248        8.4240006768        3.0188428508  WZ3       2347            0.0000000000
     16593      5531  TIP3      H2             27.1083450248        8.9980906768        3.2814928508  WZ3       2347            0.0000000000
     16594      5532  TIP3      OH2            24.4099950248       13.3608106768       18.8092428508  WZ3       2348            0.0000000000
     16595      5532  TIP3      H1             25.1422350248       13.6154006768       19.3706928508  WZ3       2348            0.0000000000
     16596      5532  TIP3      H2             23.6298650248       13.5653506768       19.3247828508  WZ3       2348            0.0000000000
     16597      5533  TIP3      OH2            30.4392850248        8.7678106768       11.5472128508  WZ3       2349            0.0000000000
     16598      5533  TIP3      H1             31.0036250248        8.2214706768       11.0001728508  WZ3       2349            0.0000000000
     16599      5533  TIP3      H2             30.2916250248        8.2460006768       12.3359728508  WZ3       2349            0.0000000000
     16600      5534  TIP3      OH2            25.4412550248        4.9044206768        7.9656928508  WZ3       2350            0.0000000000
     16601      5534  TIP3      H1             25.1242050248        4.0019506768        7.9302328508  WZ3       2350            0.0000000000
     16602      5534  TIP3      H2             26.2226650248        4.9061606768        7.4128528508  WZ3       2350            0.0000000000
     16603      5535  TIP3      OH2            29.0658750248        7.1564206768       13.9612528508  WZ3       2351            0.0000000000
     16604      5535  TIP3      H1             28.2304050248        7.6103706768       14.0714928508  WZ3       2351            0.0000000000
     16605      5535  TIP3      H2             29.5899350248        7.4322706768       14.7132428508  WZ3       2351            0.0000000000
     16606      5536  TIP3      OH2            29.6101350248       13.3691906768        5.6458928508  WZ3       2352            0.0000000000
     16607      5536  TIP3      H1             28.8652350248       12.8617206768        5.3236828508  WZ3       2352            0.0000000000
     16608      5536  TIP3      H2             29.4758550248       13.4179906768        6.5923728508  WZ3       2352            0.0000000000
     16609      5537  TIP3      OH2            33.5078150248        6.1831806768        3.8451528508  WZ3       2353            0.0000000000
     16610      5537  TIP3      H1             32.5692350248        6.2947406768        3.6940328508  WZ3       2353            0.0000000000
     16611      5537  TIP3      H2             33.8050250248        7.0398706768        4.1517228508  WZ3       2353            0.0000000000
     16612      5538  TIP3      OH2            34.2261650248        8.0504506768        5.5058928508  WZ3       2355            0.0000000000
     16613      5538  TIP3      H1             35.1180650248        7.9129506768        5.8250128508  WZ3       2355            0.0000000000
     16614      5538  TIP3      H2             34.2825250248        8.8410606768        4.9692428508  WZ3       2355            0.0000000000
     16615      5539  TIP3      OH2            24.7349650248       12.6641906768       11.4156828508  WZ3       2356            0.0000000000
     16616      5539  TIP3      H1             25.4796850248       12.6617606768       10.8143328508  WZ3       2356            0.0000000000
     16617      5539  TIP3      H2             24.8126250248       11.8405706768       11.8971928508  WZ3       2356            0.0000000000
     16618      5540  TIP3      OH2            31.7355450248       14.8276206768        4.6713528508  WZ3       2357            0.0000000000
     16619      5540  TIP3      H1             31.4403850248       15.6544106768        5.0528328508  WZ3       2357            0.0000000000
     16620      5540  TIP3      H2             31.0325450248       14.2083106768        4.8674928508  WZ3       2357            0.0000000000
     16621      5541  TIP3      OH2            21.7429350248       11.1248806768       16.7305328508  WZ3       2358            0.0000000000
     16622      5541  TIP3      H1             21.9657950248       10.7068406768       17.5622828508  WZ3       2358            0.0000000000
     16623      5541  TIP3      H2             21.1409450248       10.5123806768       16.3078128508  WZ3       2358            0.0000000000
     16624      5542  TIP3      OH2            28.7594250248       10.6418706768       18.9435028508  WZ3       2359            0.0000000000
     16625      5542  TIP3      H1             28.4635050248       10.4761706768       18.0484128508  WZ3       2359            0.0000000000
     16626      5542  TIP3      H2             29.6909450248       10.4219006768       18.9328928508  WZ3       2359            0.0000000000
     16627      5543  TIP3      OH2            34.5665950248       11.8538506768       12.6869628508  WZ3       2361            0.0000000000
     16628      5543  TIP3      H1             33.6382850248       11.6220406768       12.6598928508  WZ3       2361            0.0000000000
     16629      5543  TIP3      H2             35.0177050248       11.0768306768       12.3568428508  WZ3       2361            0.0000000000
     16630      5544  TIP3      OH2            27.1099050248       16.1820106768        8.8198328508  WZ3       2362            0.0000000000
     16631      5544  TIP3      H1             27.6371250248       16.9554506768        8.6197128508  WZ3       2362            0.0000000000
     16632      5544  TIP3      H2             26.2297550248       16.4069306768        8.5182328508  WZ3       2362            0.0000000000
     16633      5545  TIP3      OH2            22.8646750248       11.0444206768        3.4070728508  WZ3       2363            0.0000000000
     16634      5545  TIP3      H1             23.4806650248       11.6711406768        3.7865528508  WZ3       2363            0.0000000000
     16635      5545  TIP3      H2             22.0029350248       11.3604006768        3.6787228508  WZ3       2363            0.0000000000
     16636      5546  TIP3      OH2            28.5371350248       13.8450006768        8.3962628508  WZ3       2364            0.0000000000
     16637      5546  TIP3      H1             28.2961350248       14.7704406768        8.4377928508  WZ3       2364            0.0000000000
     16638      5546  TIP3      H2             27.7964950248       13.3861306768        8.7926528508  WZ3       2364            0.0000000000
     16639      5547  TIP3      OH2            29.0517950248       17.9943606768       14.7113728508  WZ3       2365            0.0000000000
     16640      5547  TIP3      H1             29.4142650248       18.8489206768       14.4778128508  WZ3       2365            0.0000000000
     16641      5547  TIP3      H2             29.5833150248       17.7025206768       15.4520028508  WZ3       2365            0.0000000000
     16642      5548  TIP3      OH2            27.2202150248       18.8667606768        7.9414828508  WZ3       2366            0.0000000000
     16643      5548  TIP3      H1             26.2702650248       18.9725006768        7.9928128508  WZ3       2366            0.0000000000
     16644      5548  TIP3      H2             27.5720250248       19.6875006768        8.2862328508  WZ3       2366            0.0000000000
     16645      5549  TIP3      OH2            32.5958750248       14.0934306768       14.4119328508  WZ3       2367            0.0000000000
     16646      5549  TIP3      H1             32.1700050248       13.8656006768       15.2383328508  WZ3       2367            0.0000000000
     16647      5549  TIP3      H2             33.1764550248       13.3546106768       14.2294628508  WZ3       2367            0.0000000000
     16648      5550  TIP3      OH2            34.7987650248       15.0224806768        3.4858328508  WZ3       2368            0.0000000000
     16649      5550  TIP3      H1             35.1520750248       14.6424606768        4.2901828508  WZ3       2368            0.0000000000
     16650      5550  TIP3      H2             33.8501150248       14.9289606768        3.5727628508  WZ3       2368            0.0000000000
     16651      5551  TIP3      OH2            23.3768850248        5.8781506768       16.2886728508  WZ3       2370            0.0000000000
     16652      5551  TIP3      H1             22.4841150248        6.2166906768       16.2210728508  WZ3       2370            0.0000000000
     16653      5551  TIP3      H2             23.2781650248        5.0227606768       16.7067528508  WZ3       2370            0.0000000000
     16654      5552  TIP3      OH2            35.6646950248       13.6946806768        5.7126228508  WZ3       2371            0.0000000000
     16655      5552  TIP3      H1             35.3874550248       12.9666106768        6.2687328508  WZ3       2371            0.0000000000
     16656      5552  TIP3      H2             36.5919950248       13.8138806768        5.9178828508  WZ3       2371            0.0000000000
     16657      5553  TIP3      OH2            23.0280850248       17.6825906768       14.7236128508  WZ3       2372            0.0000000000
     16658      5553  TIP3      H1             23.2451150248       16.7508306768       14.6925828508  WZ3       2372            0.0000000000
     16659      5553  TIP3      H2             23.2744350248       17.9570906768       15.6068928508  WZ3       2372            0.0000000000
     16660      5554  TIP3      OH2            28.8895450248       16.1340906768        1.9328328508  WZ3       2373            0.0000000000
     16661      5554  TIP3      H1             29.1285250248       15.3859006768        1.3857228508  WZ3       2373            0.0000000000
     16662      5554  TIP3      H2             28.6206750248       15.7462606768        2.7656128508  WZ3       2373            0.0000000000
     16663      5555  TIP3      OH2            27.8266050248       15.7044706768        4.3890928508  WZ3       2374            0.0000000000
     16664      5555  TIP3      H1             27.9734050248       15.1844506768        5.1791828508  WZ3       2374            0.0000000000
     16665      5555  TIP3      H2             27.8237750248       16.6112306768        4.6956828508  WZ3       2374            0.0000000000
     16666      5556  TIP3      OH2            24.2797150248       12.9568006768        4.8996328508  WZ3       2375            0.0000000000
     16667      5556  TIP3      H1             23.5936450248       13.3090506768        5.4666028508  WZ3       2375            0.0000000000
     16668      5556  TIP3      H2             24.8025050248       13.7197606768        4.6530628508  WZ3       2375            0.0000000000
     16669      5557  TIP3      OH2            32.1112250248        5.6191806768       15.1785328508  WZ3       2376            0.0000000000
     16670      5557  TIP3      H1             32.8100150248        5.6930506768       15.8285028508  WZ3       2376            0.0000000000
     16671      5557  TIP3      H2             31.7303650248        4.7546806768       15.3328228508  WZ3       2376            0.0000000000
     16672      5558  TIP3      OH2            32.8957150248        5.2713506768        6.2757628508  WZ3       2377            0.0000000000
     16673      5558  TIP3      H1             33.1155450248        5.7428906768        5.4723028508  WZ3       2377            0.0000000000
     16674      5558  TIP3      H2             33.4541150248        5.6656106768        6.9458228508  WZ3       2377            0.0000000000
     16675      5559  TIP3      OH2            30.5643250248       17.4018306768        5.1385128508  WZ3       2378            0.0000000000
     16676      5559  TIP3      H1             29.7479350248       17.8988006768        5.1909428508  WZ3       2378            0.0000000000
     16677      5559  TIP3      H2             31.0939550248       17.8771806768        4.4983928508  WZ3       2378            0.0000000000
     16678      5560  TIP3      OH2            30.0957050248        6.9992306768        7.1106028508  WZ3       2379            0.0000000000
     16679      5560  TIP3      H1             30.9079650248        7.5035506768        7.1567728508  WZ3       2379            0.0000000000
     16680      5560  TIP3      H2             29.8510050248        6.8542006768        8.0245628508  WZ3       2379            0.0000000000
     16681      5561  TIP3      OH2            30.6313450248        7.9855006768       16.2952628508  WZ3       2380            0.0000000000
     16682      5561  TIP3      H1             30.7503750248        8.5590406768       17.0523028508  WZ3       2380            0.0000000000
     16683      5561  TIP3      H2             31.2868050248        7.2974406768       16.4100428508  WZ3       2380            0.0000000000
     16684      5562  TIP3      OH2            30.9793750248        4.0805306768        8.0487128508  WZ3       2381            0.0000000000
     16685      5562  TIP3      H1             30.6327250248        4.6975906768        8.6931428508  WZ3       2381            0.0000000000
     16686      5562  TIP3      H2             31.6380650248        4.5811006768        7.5672628508  WZ3       2381            0.0000000000
     16687      5563  TIP3      OH2            27.9026350248       18.4455506768        5.1202028508  WZ3       2382            0.0000000000
     16688      5563  TIP3      H1             28.0635050248       19.2453006768        4.6194628508  WZ3       2382            0.0000000000
     16689      5563  TIP3      H2             27.7054150248       18.7521506768        6.0052628508  WZ3       2382            0.0000000000
     16690      5564  TIP3      OH2            26.6370750248        5.1434706768        4.7359628508  WZ3       2383            0.0000000000
     16691      5564  TIP3      H1             26.5535550248        6.0317806768        5.0826028508  WZ3       2383            0.0000000000
     16692      5564  TIP3      H2             27.5271050248        4.8781406768        4.9676428508  WZ3       2383            0.0000000000
     16693      5565  TIP3      OH2            35.4380250248        9.6426306768       11.2259628508  WZ3       2384            0.0000000000
     16694      5565  TIP3      H1             34.6404650248        9.2276506768       10.8974628508  WZ3       2384            0.0000000000
     16695      5565  TIP3      H2             35.8831350248        8.9520006768       11.7170128508  WZ3       2384            0.0000000000
     16696      5566  TIP3      OH2            24.8956050248       15.5706906768        3.7964128508  WZ3       2385            0.0000000000
     16697      5566  TIP3      H1             25.4877550248       16.2701706768        4.0726528508  WZ3       2385            0.0000000000
     16698      5566  TIP3      H2             25.3549050248       15.1376406768        3.0768728508  WZ3       2385            0.0000000000
     16699      5567  TIP3      OH2            23.2115250248        8.2349906768        2.9123528508  WZ3       2386            0.0000000000
     16700      5567  TIP3      H1             23.1667850248        9.1743006768        3.0910528508  WZ3       2386            0.0000000000
     16701      5567  TIP3      H2             22.3238450248        7.9994806768        2.6425628508  WZ3       2386            0.0000000000
     16702      5568  TIP3      OH2            24.0197250248        3.0166506768       11.5854528508  WZ3       2387            0.0000000000
     16703      5568  TIP3      H1             23.7907050248        3.0759006768       10.6579528508  WZ3       2387            0.0000000000
     16704      5568  TIP3      H2             23.5770650248        2.2252006768       11.8918628508  WZ3       2387            0.0000000000
     16705      5569  TIP3      OH2            22.9500550248       16.9573606768        7.7460328508  WZ3       2388            0.0000000000
     16706      5569  TIP3      H1             22.1179150248       17.4296306768        7.7731728508  WZ3       2388            0.0000000000
     16707      5569  TIP3      H2             23.4958850248       17.4671206768        7.1473428508  WZ3       2388            0.0000000000
     16708      5570  TIP3      OH2            30.9277250248       17.9972306768        2.0714328508  WZ3       2391            0.0000000000
     16709      5570  TIP3      H1             30.2838250248       17.3660906768        2.3928028508  WZ3       2391            0.0000000000
     16710      5570  TIP3      H2             31.6895550248       17.4660306768        1.8397828508  WZ3       2391            0.0000000000
     16711      5571  TIP3      OH2            22.1453750248       13.3801406768       20.0302628508  WZ3       2394            0.0000000000
     16712      5571  TIP3      H1             22.2894250248       12.4782106768       19.7439328508  WZ3       2394            0.0000000000
     16713      5571  TIP3      H2             21.3731150248       13.6663506768       19.5424928508  WZ3       2394            0.0000000000
     16714      5572  TIP3      OH2            26.4867450248       13.7237106768        2.1627228508  WZ3       2395            0.0000000000
     16715      5572  TIP3      H1             26.5511550248       12.9296706768        2.6933628508  WZ3       2395            0.0000000000
     16716      5572  TIP3      H2             27.1396650248       13.6049906768        1.4729228508  WZ3       2395            0.0000000000
     16717      5573  TIP3      OH2            31.8390850248       14.7708806768        1.8985228508  WZ3       2397            0.0000000000
     16718      5573  TIP3      H1             31.5704950248       14.9510906768        2.7994128508  WZ3       2397            0.0000000000
     16719      5573  TIP3      H2             31.6326450248       13.8455006768        1.7671028508  WZ3       2397            0.0000000000
     16720      5574  TIP3      OH2            22.9780250248       10.5804706768       19.4501928508  WZ3       2399            0.0000000000
     16721      5574  TIP3      H1             23.3861450248        9.7231306768       19.3292528508  WZ3       2399            0.0000000000
     16722      5574  TIP3      H2             22.7177850248       10.5946006768       20.3712228508  WZ3       2399            0.0000000000
     16723      5575  TIP3      OH2            27.6361250248       11.6963306768        4.4685228508  WZ3       2400            0.0000000000
     16724      5575  TIP3      H1             27.1763250248       11.2121606768        5.1543728508  WZ3       2400            0.0000000000
     16725      5575  TIP3      H2             27.8909950248       11.0278706768        3.8325728508  WZ3       2400            0.0000000000
     16726      5576  TIP3      OH2            26.9250550248        9.5890406768       16.8244828508  WZ3       2401            0.0000000000
     16727      5576  TIP3      H1             26.3066650248       10.2637006768       17.1049528508  WZ3       2401            0.0000000000
     16728      5576  TIP3      H2             27.2691750248        9.9104306768       15.9911028508  WZ3       2401            0.0000000000
     16729      5577  TIP3      OH2            28.7071650248        9.9395106768        2.7308428508  WZ3       2402            0.0000000000
     16730      5577  TIP3      H1             28.5266650248        9.7846306768        1.8036728508  WZ3       2402            0.0000000000
     16731      5577  TIP3      H2             29.6572150248       10.0473806768        2.7756328508  WZ3       2402            0.0000000000
     16732      5578  TIP3      OH2            27.2644250248        6.9441206768       17.9067928508  WZ3       2404            0.0000000000
     16733      5578  TIP3      H1             27.4145150248        6.2152506768       17.3047628508  WZ3       2404            0.0000000000
     16734      5578  TIP3      H2             27.2666650248        7.7212906768       17.3480128508  WZ3       2404            0.0000000000
     16735      5579  TIP3      OH2            27.6769950248        5.3137006768       15.3995328508  WZ3       2405            0.0000000000
     16736      5579  TIP3      H1             28.2127450248        5.7653706768       14.7474628508  WZ3       2405            0.0000000000
     16737      5579  TIP3      H2             26.8249550248        5.2056806768       14.9769428508  WZ3       2405            0.0000000000
     16738      5580  TIP3      OH2            29.2588350248       10.7533206768       15.6390528508  WZ3       2406            0.0000000000
     16739      5580  TIP3      H1             30.0093150248       10.5970706768       15.0658328508  WZ3       2406            0.0000000000
     16740      5580  TIP3      H2             28.9196650248       11.6049806768       15.3636028508  WZ3       2406            0.0000000000
     16741      5581  TIP3      OH2            25.7430550248        8.1424706768       19.8183528508  WZ3       2409            0.0000000000
     16742      5581  TIP3      H1             24.9759550248        7.6099506768       19.6081128508  WZ3       2409            0.0000000000
     16743      5581  TIP3      H2             26.4219550248        7.8325106768       19.2189828508  WZ3       2409            0.0000000000
     16744      5582  TIP3      OH2            28.4825450248        2.7702706768       15.8308928508  WZ3       2410            0.0000000000
     16745      5582  TIP3      H1             28.3845050248        3.7165906768       15.7255128508  WZ3       2410            0.0000000000
     16746      5582  TIP3      H2             27.7401650248        2.3976506768       15.3552428508  WZ3       2410            0.0000000000
     16747      5583  TIP3      OH2            29.7465950248        7.0918106768       19.3947328508  WZ3       2411            0.0000000000
     16748      5583  TIP3      H1             29.5111350248        6.8724806768       20.2962228508  WZ3       2411            0.0000000000
     16749      5583  TIP3      H2             28.9632850248        6.8849306768       18.8849828508  WZ3       2411            0.0000000000
     16750      5584  TIP3      OH2            32.4622550248        6.2191606768       18.4700828508  WZ3       2412            0.0000000000
     16751      5584  TIP3      H1             31.5147950248        6.2511306768       18.6024128508  WZ3       2412            0.0000000000
     16752      5584  TIP3      H2             32.7749250248        5.5938706768       19.1239028508  WZ3       2412            0.0000000000
     16753      5585  TIP3      OH2            23.9233350248        6.0628506768       19.5228228508  WZ3       2414            0.0000000000
     16754      5585  TIP3      H1             24.1350750248        5.3564606768       18.9125728508  WZ3       2414            0.0000000000
     16755      5585  TIP3      H2             23.8120850248        5.6254506768       20.3669428508  WZ3       2414            0.0000000000
     16756      5586  TIP3      OH2            28.7043550248        2.0640106768       18.5021728508  WZ3       2415            0.0000000000
     16757      5586  TIP3      H1             29.4161950248        1.4242306768       18.4880828508  WZ3       2415            0.0000000000
     16758      5586  TIP3      H2             28.6033950248        2.3308406768       17.5884828508  WZ3       2415            0.0000000000
     16759      5587  TIP3      OH2            29.0581050248        3.7468506768       20.5558028508  WZ3       2416            0.0000000000
     16760      5587  TIP3      H1             28.9263250248        3.2712306768       19.7356528508  WZ3       2416            0.0000000000
     16761      5587  TIP3      H2             28.4588450248        4.4912106768       20.5005128508  WZ3       2416            0.0000000000
     16762      5588  TIP3      OH2            28.6043350248       20.6298806768        3.7322028508  WZ3       2417            0.0000000000
     16763      5588  TIP3      H1             29.5374050248       20.7877506768        3.8760428508  WZ3       2417            0.0000000000
     16764      5588  TIP3      H2             28.3402150248       21.3051806768        3.1073528508  WZ3       2417            0.0000000000
     16765      5589  TIP3      OH2            22.1728250248       15.2662606768        3.2150128508  WZ3       2418            0.0000000000
     16766      5589  TIP3      H1             23.0867450248       15.3451506768        3.4884028508  WZ3       2418            0.0000000000
     16767      5589  TIP3      H2             22.1801350248       14.5792206768        2.5485728508  WZ3       2418            0.0000000000
     16768      5590  TIP3      OH2            20.8218850248       20.6591106768        8.2924028508  WZ3       2419            0.0000000000
     16769      5590  TIP3      H1             20.1745950248       20.1972806768        7.7595228508  WZ3       2419            0.0000000000
     16770      5590  TIP3      H2             21.1763450248       19.9874406768        8.8750228508  WZ3       2419            0.0000000000
     16771      5591  TIP3      OH2            21.6918050248       18.7398106768       10.0970228508  WZ3       2420            0.0000000000
     16772      5591  TIP3      H1             21.3574850248       17.8595406768       10.2690428508  WZ3       2420            0.0000000000
     16773      5591  TIP3      H2             21.9140450248       19.0853106768       10.9615828508  WZ3       2420            0.0000000000
     16774      5592  TIP3      OH2            21.7717550248       11.8153506768       12.5485128508  WZ3       2421            0.0000000000
     16775      5592  TIP3      H1             21.9560450248       11.7335206768       11.6128028508  WZ3       2421            0.0000000000
     16776      5592  TIP3      H2             22.6210450248       11.6910506768       12.9721528508  WZ3       2421            0.0000000000
     16777      5593  TIP3      OH2            21.3692350248        7.0858506768       18.6893928508  WZ3       2422            0.0000000000
     16778      5593  TIP3      H1             22.2887250248        6.9636806768       18.9257028508  WZ3       2422            0.0000000000
     16779      5593  TIP3      H2             20.9196850248        6.3358206768       19.0787428508  WZ3       2422            0.0000000000
     16780      5594  TIP3      OH2            22.5904850248        5.3980106768       11.5806828508  WZ3       2423            0.0000000000
     16781      5594  TIP3      H1             23.0356450248        4.6062606768       11.8826528508  WZ3       2423            0.0000000000
     16782      5594  TIP3      H2             23.0567850248        6.1145306768       12.0112428508  WZ3       2423            0.0000000000
     16783      5595  TIP3      OH2            20.8945150248        8.3973106768       12.6497028508  WZ3       2424            0.0000000000
     16784      5595  TIP3      H1             21.3864950248        8.1763606768       11.8589028508  WZ3       2424            0.0000000000
     16785      5595  TIP3      H2             21.2566050248        9.2376506768       12.9306528508  WZ3       2424            0.0000000000
     16786      5596  TIP3      OH2            21.2081650248        4.6552206768        6.7039428508  WZ3       2425            0.0000000000
     16787      5596  TIP3      H1             20.2830050248        4.8638806768        6.5744928508  WZ3       2425            0.0000000000
     16788      5596  TIP3      H2             21.6621550248        5.1393006768        6.0141728508  WZ3       2425            0.0000000000
     16789      5597  TIP3      OH2            21.1717050248        3.3931206768       15.0481928508  WZ3       2426            0.0000000000
     16790      5597  TIP3      H1             20.5067550248        3.1471506768       15.6912828508  WZ3       2426            0.0000000000
     16791      5597  TIP3      H2             20.7288350248        4.0151606768       14.4709928508  WZ3       2426            0.0000000000
     16792      5598  TIP3      OH2            23.3636350248       16.5685306768       19.1927728508  WZ3       2427            0.0000000000
     16793      5598  TIP3      H1             22.5428850248       16.7431806768       18.7322428508  WZ3       2427            0.0000000000
     16794      5598  TIP3      H2             23.1114150248       16.4950006768       20.1132128508  WZ3       2427            0.0000000000
     16795      5599  TIP3      OH2            26.3179250248       17.5426506768       15.4511728508  WZ3       2428            0.0000000000
     16796      5599  TIP3      H1             25.8930350248       18.3525006768       15.1686328508  WZ3       2428            0.0000000000
     16797      5599  TIP3      H2             27.2222050248       17.6280606768       15.1491528508  WZ3       2428            0.0000000000
     16798      5600  TIP3      OH2            23.7195950248       20.7990406768       15.4987028508  WZ3       2431            0.0000000000
     16799      5600  TIP3      H1             22.9992350248       21.2391406768       15.0474728508  WZ3       2431            0.0000000000
     16800      5600  TIP3      H2             23.3539950248       20.5485106768       16.3471028508  WZ3       2431            0.0000000000
     16801      5601  TIP3      OH2            26.1868550248       20.3994306768       14.5284228508  WZ3       2432            0.0000000000
     16802      5601  TIP3      H1             25.3220750248       20.4712806768       14.9324328508  WZ3       2432            0.0000000000
     16803      5601  TIP3      H2             26.1317550248       20.9461606768       13.7446728508  WZ3       2432            0.0000000000
     16804      5602  TIP3      OH2            23.1344050248       19.4222906768       12.4088828508  WZ3       2435            0.0000000000
     16805      5602  TIP3      H1             23.1160050248       18.9968006768       13.2661128508  WZ3       2435            0.0000000000
     16806      5602  TIP3      H2             23.9391950248       19.1037906768       12.0001028508  WZ3       2435            0.0000000000
     16807      5603  TIP3      OH2            25.2757150248       18.1321606768       11.0638728508  WZ3       2436            0.0000000000
     16808      5603  TIP3      H1             25.0567850248       17.2159006768       11.2334728508  WZ3       2436            0.0000000000
     16809      5603  TIP3      H2             26.0999350248       18.2722006768       11.5300128508  WZ3       2436            0.0000000000
     16810      5604  TIP3      OH2            27.8129650248       18.6020906768       11.9126728508  WZ3       2437            0.0000000000
     16811      5604  TIP3      H1             28.0255350248       17.7139906768       11.6257628508  WZ3       2437            0.0000000000
     16812      5604  TIP3      H2             27.8774750248       18.5678606768       12.8670728508  WZ3       2437            0.0000000000
     16813      5605  TIP3      OH2            31.3213350248        4.2661506768       11.0570028508  WZ3       2438            0.0000000000
     16814      5605  TIP3      H1             30.6470150248        3.6367106768       11.3125828508  WZ3       2438            0.0000000000
     16815      5605  TIP3      H2             31.8852550248        3.7820406768       10.4537928508  WZ3       2438            0.0000000000
     16816      5606  TIP3      OH2            23.6480850248        2.9001806768        8.8789928508  WZ3       2439            0.0000000000
     16817      5606  TIP3      H1             22.8710650248        2.6656706768        8.3715828508  WZ3       2439            0.0000000000
     16818      5606  TIP3      H2             24.1784450248        2.1033906768        8.8877928508  WZ3       2439            0.0000000000
     16819      5607  TIP3      OH2            22.4844250248        2.6979906768        4.6826028508  WZ3       2440            0.0000000000
     16820      5607  TIP3      H1             22.9234950248        3.3090406768        4.0909528508  WZ3       2440            0.0000000000
     16821      5607  TIP3      H2             21.8506650248        3.2364006768        5.1566028508  WZ3       2440            0.0000000000
     16822      5608  TIP3      OH2            28.2273450248        2.8268906768        8.6923028508  WZ3       2441            0.0000000000
     16823      5608  TIP3      H1             29.1016850248        3.2153206768        8.6627328508  WZ3       2441            0.0000000000
     16824      5608  TIP3      H2             28.0914250248        2.6116706768        9.6150228508  WZ3       2441            0.0000000000
     16825      5609  TIP3      OH2            33.7841850248        2.8568706768       10.3414728508  WZ3       2442            0.0000000000
     16826      5609  TIP3      H1             33.8603450248        2.9520306768        9.3920728508  WZ3       2442            0.0000000000
     16827      5609  TIP3      H2             33.5091050248        1.9491606768       10.4703828508  WZ3       2442            0.0000000000
     16828      5610  TIP3      OH2            35.1374450248        2.8826506768        6.0339728508  WZ3       2443            0.0000000000
     16829      5610  TIP3      H1             34.4345550248        3.4975706768        5.8241128508  WZ3       2443            0.0000000000
     16830      5610  TIP3      H2             34.6925850248        2.0453206768        6.1650628508  WZ3       2443            0.0000000000
     16831      5611  TIP3      OH2            22.3853750248       18.6462106768        5.5801128508  WZ3       2444            0.0000000000
     16832      5611  TIP3      H1             21.7003650248       18.6081006768        4.9126228508  WZ3       2444            0.0000000000
     16833      5611  TIP3      H2             22.3890950248       19.5589706768        5.8683228508  WZ3       2444            0.0000000000
     16834      5612  TIP3      OH2            24.3453350248        4.6141406768        3.1250128508  WZ3       2445            0.0000000000
     16835      5612  TIP3      H1             24.8366750248        3.9843806768        2.5975628508  WZ3       2445            0.0000000000
     16836      5612  TIP3      H2             24.9689650248        4.9100806768        3.7881328508  WZ3       2445            0.0000000000
     16837      5613  TIP3      OH2            29.3713450248        4.9072906768        5.5820628508  WZ3       2446            0.0000000000
     16838      5613  TIP3      H1             29.5494750248        4.2606106768        6.2649228508  WZ3       2446            0.0000000000
     16839      5613  TIP3      H2             29.3179650248        5.7410606768        6.0491728508  WZ3       2446            0.0000000000
     16840      5614  TIP3      OH2            31.2497250248       19.8557006768        3.9777328508  WZ3       2447            0.0000000000
     16841      5614  TIP3      H1             32.1157450248       20.2224406768        3.7995528508  WZ3       2447            0.0000000000
     16842      5614  TIP3      H2             31.0030050248       19.4165006768        3.1638128508  WZ3       2447            0.0000000000
     16843      5615  TIP3      OH2            23.6058850248        3.4143706768       18.3966128508  WZ3       2448            0.0000000000
     16844      5615  TIP3      H1             23.2397050248        2.6486306768       18.8390828508  WZ3       2448            0.0000000000
     16845      5615  TIP3      H2             24.5187350248        3.4433906768       18.6831228508  WZ3       2448            0.0000000000
     16846      5616  TIP3      OH2            25.5789650248        2.7648106768       19.9323228508  WZ3       2449            0.0000000000
     16847      5616  TIP3      H1             26.4773250248        2.4908306768       19.7476628508  WZ3       2449            0.0000000000
     16848      5616  TIP3      H2             25.1922750248        2.0224106768       20.3965828508  WZ3       2449            0.0000000000
     16849      5617  TIP3      OH2            24.2034950248       19.5662906768        2.6053228508  WZ3       2450            0.0000000000
     16850      5617  TIP3      H1             23.9359550248       19.8525806768        3.4786328508  WZ3       2450            0.0000000000
     16851      5617  TIP3      H2             24.9747550248       19.0202106768        2.7575728508  WZ3       2450            0.0000000000
     16852      5618  TIP3      OH2           -17.8561049752       24.2011506768       13.5232828508  WZ3       2460            0.0000000000
     16853      5618  TIP3      H1            -17.8068849752       24.8112706768       14.2591928508  WZ3       2460            0.0000000000
     16854      5618  TIP3      H2            -17.4305949752       24.6622406768       12.8003928508  WZ3       2460            0.0000000000
     16855      5619  TIP3      OH2           -23.3783849752       26.9938606768       12.9901428508  WZ3       2461            0.0000000000
     16856      5619  TIP3      H1            -23.2357949752       26.0475606768       13.0103028508  WZ3       2461            0.0000000000
     16857      5619  TIP3      H2            -23.4844849752       27.2008406768       12.0616328508  WZ3       2461            0.0000000000
     16858      5620  TIP3      OH2           -22.5012849752       25.2260606768        8.6634528508  WZ3       2463            0.0000000000
     16859      5620  TIP3      H1            -21.8548549752       24.8973806768        9.2882128508  WZ3       2463            0.0000000000
     16860      5620  TIP3      H2            -21.9913449752       25.7439606768        8.0405928508  WZ3       2463            0.0000000000
     16861      5621  TIP3      OH2           -17.4646449752       25.6790706768       15.7592628508  WZ3       2466            0.0000000000
     16862      5621  TIP3      H1            -18.1531849752       26.3371406768       15.6639228508  WZ3       2466            0.0000000000
     16863      5621  TIP3      H2            -17.4491849752       25.4818606768       16.6958028508  WZ3       2466            0.0000000000
     16864      5622  TIP3      OH2           -20.7374449752       24.5169906768       10.6440428508  WZ3       2470            0.0000000000
     16865      5622  TIP3      H1            -20.9526449752       23.7513306768       11.1766428508  WZ3       2470            0.0000000000
     16866      5622  TIP3      H2            -20.0817049752       24.9894506768       11.1568928508  WZ3       2470            0.0000000000
     16867      5623  TIP3      OH2           -20.3900349752       23.2321206768       14.3233928508  WZ3       2475            0.0000000000
     16868      5623  TIP3      H1            -21.1261149752       23.8428306768       14.2855228508  WZ3       2475            0.0000000000
     16869      5623  TIP3      H2            -19.7066349752       23.6470206768       13.7970328508  WZ3       2475            0.0000000000
     16870      5624  TIP3      OH2           -17.7510149752       29.5342606768       14.5832128508  WZ3       2481            0.0000000000
     16871      5624  TIP3      H1            -18.4036049752       30.2288206768       14.6723028508  WZ3       2481            0.0000000000
     16872      5624  TIP3      H2            -17.2859849752       29.7443506768       13.7733728508  WZ3       2481            0.0000000000
     16873      5625  TIP3      OH2           -21.7146349752       30.3657406768        7.2413628508  WZ3       2482            0.0000000000
     16874      5625  TIP3      H1            -22.4465349752       30.5941106768        7.8144228508  WZ3       2482            0.0000000000
     16875      5625  TIP3      H2            -21.2674149752       29.6520106768        7.6961128508  WZ3       2482            0.0000000000
     16876      5626  TIP3      OH2           -21.8172849752       28.5400006768       16.3090628508  WZ3       2483            0.0000000000
     16877      5626  TIP3      H1            -21.7373749752       29.3034406768       16.8809128508  WZ3       2483            0.0000000000
     16878      5626  TIP3      H2            -22.4185149752       28.8192406768       15.6185728508  WZ3       2483            0.0000000000
     16879      5627  TIP3      OH2           -22.8436849752       29.5280306768        4.9264828508  WZ3       2489            0.0000000000
     16880      5627  TIP3      H1            -22.2641349752       29.6780606768        5.6733728508  WZ3       2489            0.0000000000
     16881      5627  TIP3      H2            -22.4296849752       29.9987706768        4.2031228508  WZ3       2489            0.0000000000
     16882      5628  TIP3      OH2           -19.1448449752       21.2780706768        4.7394528508  WZ3       2491            0.0000000000
     16883      5628  TIP3      H1            -20.0447749752       21.4169706768        5.0345128508  WZ3       2491            0.0000000000
     16884      5628  TIP3      H2            -18.8930049752       22.1095306768        4.3376228508  WZ3       2491            0.0000000000
     16885      5629  TIP3      OH2           -19.8858849752       27.3683106768       18.5747328508  WZ3       2497            0.0000000000
     16886      5629  TIP3      H1            -20.2932049752       27.8488706768       17.8540628508  WZ3       2497            0.0000000000
     16887      5629  TIP3      H2            -19.8453149752       26.4629106768       18.2668128508  WZ3       2497            0.0000000000
     16888      5630  TIP3      OH2           -25.4553549752       21.9443406768       15.9415228508  WZ3       2500            0.0000000000
     16889      5630  TIP3      H1            -25.0350449752       21.5290506768       16.6945828508  WZ3       2500            0.0000000000
     16890      5630  TIP3      H2            -26.3883949752       21.7656706768       16.0587228508  WZ3       2500            0.0000000000
     16891      5631  TIP3      OH2           -22.1288649752       25.6998606768       16.7949728508  WZ3       2501            0.0000000000
     16892      5631  TIP3      H1            -22.6429149752       25.5740806768       17.5925728508  WZ3       2501            0.0000000000
     16893      5631  TIP3      H2            -22.2843949752       26.6121706768       16.5505928508  WZ3       2501            0.0000000000
     16894      5632  TIP3      OH2           -21.3663749752       30.5608606768        2.5562728508  WZ3       2502            0.0000000000
     16895      5632  TIP3      H1            -21.3242949752       30.3382506768        1.6262728508  WZ3       2502            0.0000000000
     16896      5632  TIP3      H2            -20.5171649752       30.9595706768        2.7462628508  WZ3       2502            0.0000000000
     16897      5633  TIP3      OH2           -24.4946649752       27.8247906768        7.3909228508  WZ3       2506            0.0000000000
     16898      5633  TIP3      H1            -24.9036349752       28.6396506768        7.0994028508  WZ3       2506            0.0000000000
     16899      5633  TIP3      H2            -23.7740449752       27.6848006768        6.7766328508  WZ3       2506            0.0000000000
     16900      5634  TIP3      OH2           -23.4898949752       27.2708306768       10.2048928508  WZ3       2508            0.0000000000
     16901      5634  TIP3      H1            -23.6854449752       27.8765106768        9.4899528508  WZ3       2508            0.0000000000
     16902      5634  TIP3      H2            -23.3086349752       26.4373506768        9.7705228508  WZ3       2508            0.0000000000
     16903      5635  TIP3      OH2           -24.2259749752       28.9089606768       14.8761328508  WZ3       2513            0.0000000000
     16904      5635  TIP3      H1            -23.9024949752       28.2779306768       14.2331828508  WZ3       2513            0.0000000000
     16905      5635  TIP3      H2            -24.6660449752       28.3741806768       15.5368728508  WZ3       2513            0.0000000000
     16906      5636  TIP3      OH2           -23.0434949752       24.0711406768       12.9244328508  WZ3       2517            0.0000000000
     16907      5636  TIP3      H1            -23.7203349752       24.2024506768       13.5884028508  WZ3       2517            0.0000000000
     16908      5636  TIP3      H2            -23.5290049752       23.9160906768       12.1142028508  WZ3       2517            0.0000000000
     16909      5637  TIP3      OH2           -19.8079749752       31.3580106768       14.4326528508  WZ3       2524            0.0000000000
     16910      5637  TIP3      H1            -19.1660949752       31.8146406768       13.8888728508  WZ3       2524            0.0000000000
     16911      5637  TIP3      H2            -20.6382849752       31.4712506768       13.9700628508  WZ3       2524            0.0000000000
     16912      5638  TIP3      OH2           -23.0601849752       25.0391806768        3.8451528508  WZ3       2525            0.0000000000
     16913      5638  TIP3      H1            -23.9987649752       25.1507406768        3.6940328508  WZ3       2525            0.0000000000
     16914      5638  TIP3      H2            -22.7629749752       25.8958706768        4.1517228508  WZ3       2525            0.0000000000
     16915      5639  TIP3      OH2           -22.3418349752       26.9064506768        5.5058928508  WZ3       2527            0.0000000000
     16916      5639  TIP3      H1            -21.4499349752       26.7689506768        5.8250128508  WZ3       2527            0.0000000000
     16917      5639  TIP3      H2            -22.2854749752       27.6970606768        4.9692428508  WZ3       2527            0.0000000000
     16918      5640  TIP3      OH2           -17.4569649752       27.1158606768        5.2005628508  WZ3       2533            0.0000000000
     16919      5640  TIP3      H1            -18.0113349752       26.7196606768        4.5283128508  WZ3       2533            0.0000000000
     16920      5640  TIP3      H2            -17.3566049752       28.0263806768        4.9228928508  WZ3       2533            0.0000000000
     16921      5641  TIP3      OH2           -22.0014049752       30.7098506768       12.6869628508  WZ3       2535            0.0000000000
     16922      5641  TIP3      H1            -22.9297149752       30.4780406768       12.6598928508  WZ3       2535            0.0000000000
     16923      5641  TIP3      H2            -21.5502949752       29.9328306768       12.3568428508  WZ3       2535            0.0000000000
     16924      5642  TIP3      OH2           -20.9033049752       32.5506806768        5.7126228508  WZ3       2542            0.0000000000
     16925      5642  TIP3      H1            -21.1805449752       31.8226106768        6.2687328508  WZ3       2542            0.0000000000
     16926      5642  TIP3      H2            -19.9760049752       32.6698806768        5.9178828508  WZ3       2542            0.0000000000
     16927      5643  TIP3      OH2           -24.4567749752       24.4751806768       15.1785328508  WZ3       2546            0.0000000000
     16928      5643  TIP3      H1            -23.7579849752       24.5490506768       15.8285028508  WZ3       2546            0.0000000000
     16929      5643  TIP3      H2            -24.8376349752       23.6106806768       15.3328228508  WZ3       2546            0.0000000000
     16930      5644  TIP3      OH2           -23.6722849752       24.1273506768        6.2757628508  WZ3       2547            0.0000000000
     16931      5644  TIP3      H1            -23.4524549752       24.5988906768        5.4723028508  WZ3       2547            0.0000000000
     16932      5644  TIP3      H2            -23.1138849752       24.5216106768        6.9458228508  WZ3       2547            0.0000000000
     16933      5645  TIP3      OH2           -25.5886249752       22.9365306768        8.0487128508  WZ3       2550            0.0000000000
     16934      5645  TIP3      H1            -25.9352749752       23.5535906768        8.6931428508  WZ3       2550            0.0000000000
     16935      5645  TIP3      H2            -24.9299349752       23.4371006768        7.5672628508  WZ3       2550            0.0000000000
     16936      5646  TIP3      OH2           -19.7320749752       24.7485306768       17.1302328508  WZ3       2552            0.0000000000
     16937      5646  TIP3      H1            -20.6484949752       25.0107006768       17.0426028508  WZ3       2552            0.0000000000
     16938      5646  TIP3      H2            -19.3965749752       24.7454306768       16.2337628508  WZ3       2552            0.0000000000
     16939      5647  TIP3      OH2           -21.1299749752       28.4986306768       11.2259628508  WZ3       2553            0.0000000000
     16940      5647  TIP3      H1            -21.9275349752       28.0836506768       10.8974628508  WZ3       2553            0.0000000000
     16941      5647  TIP3      H2            -20.6848649752       27.8080006768       11.7170128508  WZ3       2553            0.0000000000
     16942      5648  TIP3      OH2           -18.4710049752       31.1499306768        2.1766528508  WZ3       2569            0.0000000000
     16943      5648  TIP3      H1            -18.7445249752       30.7254806768        1.3634828508  WZ3       2569            0.0000000000
     16944      5648  TIP3      H2            -18.4315949752       32.0813806768        1.9596928508  WZ3       2569            0.0000000000
     16945      5649  TIP3      OH2           -24.1057449752       25.0751606768       18.4700828508  WZ3       2578            0.0000000000
     16946      5649  TIP3      H1            -25.0532049752       25.1071306768       18.6024128508  WZ3       2578            0.0000000000
     16947      5649  TIP3      H2            -23.7930749752       24.4498706768       19.1239028508  WZ3       2578            0.0000000000
     16948      5650  TIP3      OH2           -22.4715949752       23.7092706768       20.4752728508  WZ3       2579            0.0000000000
     16949      5650  TIP3      H1            -22.5684149752       22.7570006768       20.4694628508  WZ3       2579            0.0000000000
     16950      5650  TIP3      H2            -22.7932849752       23.9779506768       21.3358228508  WZ3       2579            0.0000000000
     16951      5651  TIP3      OH2           -18.0127249752       32.0187406768        6.1516928508  WZ3       2585            0.0000000000
     16952      5651  TIP3      H1            -17.1625849752       32.4398306768        6.2788528508  WZ3       2585            0.0000000000
     16953      5651  TIP3      H2            -18.0072149752       31.2787506768        6.7588328508  WZ3       2585            0.0000000000
     16954      5652  TIP3      OH2           -17.6181649752       30.0724806768        7.9752628508  WZ3       2586            0.0000000000
     16955      5652  TIP3      H1            -18.3447049752       29.5927406768        8.3730228508  WZ3       2586            0.0000000000
     16956      5652  TIP3      H2            -17.0368349752       30.2779506768        8.7074228508  WZ3       2586            0.0000000000
     16957      5653  TIP3      OH2           -17.3498549752       29.9733306768        4.3663928508  WZ3       2589            0.0000000000
     16958      5653  TIP3      H1            -17.8717449752       30.3297406768        3.6474828508  WZ3       2589            0.0000000000
     16959      5653  TIP3      H2            -17.3829349752       30.6481106768        5.0444828508  WZ3       2589            0.0000000000
     16960      5654  TIP3      OH2           -19.0009549752       27.2128906768        2.9171028508  WZ3       2590            0.0000000000
     16961      5654  TIP3      H1            -18.9045149752       27.8795906768        2.2370728508  WZ3       2590            0.0000000000
     16962      5654  TIP3      H2            -19.1409949752       26.3975206768        2.4356528508  WZ3       2590            0.0000000000
     16963      5655  TIP3      OH2           -19.8314849752       28.5931306768        8.5381328508  WZ3       2591            0.0000000000
     16964      5655  TIP3      H1            -19.9816049752       27.6479906768        8.5179128508  WZ3       2591            0.0000000000
     16965      5655  TIP3      H2            -20.1850349752       28.8742706768        9.3820428508  WZ3       2591            0.0000000000
     16966      5656  TIP3      OH2           -17.4784849752       28.4660406768       18.8615028508  WZ3       2594            0.0000000000
     16967      5656  TIP3      H1            -18.3418149752       28.0872506768       18.6959728508  WZ3       2594            0.0000000000
     16968      5656  TIP3      H2            -16.8741149752       27.7275206768       18.7870828508  WZ3       2594            0.0000000000
     16969      5657  TIP3      OH2           -19.7535749752       24.6208706768        2.0346528508  WZ3       2595            0.0000000000
     16970      5657  TIP3      H1            -19.1429949752       24.2495506768        2.6714728508  WZ3       2595            0.0000000000
     16971      5657  TIP3      H2            -20.5904249752       24.1995606768        2.2306528508  WZ3       2595            0.0000000000
     16972      5658  TIP3      OH2           -20.1210049752       26.1757106768        7.0006428508  WZ3       2596            0.0000000000
     16973      5658  TIP3      H1            -19.8412949752       25.2687506768        7.1248128508  WZ3       2596            0.0000000000
     16974      5658  TIP3      H2            -19.3618349752       26.6098606768        6.6115628508  WZ3       2596            0.0000000000
     16975      5659  TIP3      OH2           -19.5091749752       26.7574506768       12.4365328508  WZ3       2597            0.0000000000
     16976      5659  TIP3      H1            -18.5763749752       26.9694406768       12.4021328508  WZ3       2597            0.0000000000
     16977      5659  TIP3      H2            -19.7444249752       26.8586606768       13.3588328508  WZ3       2597            0.0000000000
     16978      5660  TIP3      OH2           -19.4799849752       27.4939806768       15.2124728508  WZ3       2598            0.0000000000
     16979      5660  TIP3      H1            -20.3228549752       27.7620206768       15.5784528508  WZ3       2598            0.0000000000
     16980      5660  TIP3      H2            -19.0375549752       28.3161706768       15.0015828508  WZ3       2598            0.0000000000
     16981      5661  TIP3      OH2           -17.1968249752       21.4740006768       20.5659728508  WZ3       2600            0.0000000000
     16982      5661  TIP3      H1            -16.8471249752       20.8203506768       19.9604428508  WZ3       2600            0.0000000000
     16983      5661  TIP3      H2            -17.0498749752       22.3114106768       20.1262328508  WZ3       2600            0.0000000000
     16984      5662  TIP3      OH2           -19.5075249752       23.4386406768        7.0488428508  WZ3       2601            0.0000000000
     16985      5662  TIP3      H1            -19.3250249752       22.9897906768        7.8743428508  WZ3       2601            0.0000000000
     16986      5662  TIP3      H2            -20.1072349752       22.8540806768        6.5853028508  WZ3       2601            0.0000000000
     16987      5663  TIP3      OH2           -17.6771049752       23.5834606768       18.9151028508  WZ3       2604            0.0000000000
     16988      5663  TIP3      H1            -18.5945349752       23.8541706768       18.8794528508  WZ3       2604            0.0000000000
     16989      5663  TIP3      H2            -17.5541649752       23.0483006768       18.1310728508  WZ3       2604            0.0000000000
     16990      5664  TIP3      OH2           -17.6409049752       23.5064506768        3.5768728508  WZ3       2605            0.0000000000
     16991      5664  TIP3      H1            -17.2286449752       22.7850206768        3.1016728508  WZ3       2605            0.0000000000
     16992      5664  TIP3      H2            -16.9592549752       24.1759106768        3.6353028508  WZ3       2605            0.0000000000
     16993      5665  TIP3      OH2           -18.6765149752       21.6730906768       16.7341828508  WZ3       2609            0.0000000000
     16994      5665  TIP3      H1            -19.4891649752       21.9981206768       16.3466528508  WZ3       2609            0.0000000000
     16995      5665  TIP3      H2            -18.4436649752       20.9129406768       16.2010928508  WZ3       2609            0.0000000000
     16996      5666  TIP3      OH2           -25.2466649752       23.1221506768       11.0570028508  WZ3       2610            0.0000000000
     16997      5666  TIP3      H1            -25.9209849752       22.4927106768       11.3125828508  WZ3       2610            0.0000000000
     16998      5666  TIP3      H2            -24.6827449752       22.6380406768       10.4537928508  WZ3       2610            0.0000000000
     16999      5667  TIP3      OH2           -20.1039449752       21.2295506768       11.1697128508  WZ3       2611            0.0000000000
     17000      5667  TIP3      H1            -19.5001849752       21.7770906768       10.6678128508  WZ3       2611            0.0000000000
     17001      5667  TIP3      H2            -20.9737449752       21.5485906768       10.9291228508  WZ3       2611            0.0000000000
     17002      5668  TIP3      OH2           -18.3769049752       22.3684206768        9.5028028508  WZ3       2612            0.0000000000
     17003      5668  TIP3      H1            -17.7651549752       21.8539906768        8.9761628508  WZ3       2612            0.0000000000
     17004      5668  TIP3      H2            -17.9945649752       23.2456306768        9.5262428508  WZ3       2612            0.0000000000
     17005      5669  TIP3      OH2           -22.7838149752       21.7128706768       10.3414728508  WZ3       2616            0.0000000000
     17006      5669  TIP3      H1            -22.7076549752       21.8080306768        9.3920728508  WZ3       2616            0.0000000000
     17007      5669  TIP3      H2            -23.0588949752       20.8051606768       10.4703828508  WZ3       2616            0.0000000000
     17008      5670  TIP3      OH2           -21.4305549752       21.7386506768        6.0339728508  WZ3       2617            0.0000000000
     17009      5670  TIP3      H1            -22.1334449752       22.3535706768        5.8241128508  WZ3       2617            0.0000000000
     17010      5670  TIP3      H2            -21.8754149752       20.9013206768        6.1650628508  WZ3       2617            0.0000000000
     17011      5671  TIP3      OH2           -22.5678049752       20.9533406768       20.1146028508  WZ3       2622            0.0000000000
     17012      5671  TIP3      H1            -22.4910849752       20.5274106768       20.9683728508  WZ3       2622            0.0000000000
     17013      5671  TIP3      H2            -21.6741449752       20.9668106768       19.7719528508  WZ3       2622            0.0000000000
     17014      5672  TIP3      OH2            -4.9856549752       30.9124106768        8.8377428508  WZ3       2623            0.0000000000
     17015      5672  TIP3      H1             -4.8965449752       31.8562306768        8.7054528508  WZ3       2623            0.0000000000
     17016      5672  TIP3      H2             -5.6238949752       30.6370506768        8.1796828508  WZ3       2623            0.0000000000
     17017      5673  TIP3      OH2            -6.0525249752       30.1674806768       12.2565628508  WZ3       2624            0.0000000000
     17018      5673  TIP3      H1             -6.0907749752       29.5211106768       12.9615228508  WZ3       2624            0.0000000000
     17019      5673  TIP3      H2             -6.3748749752       29.7009206768       11.4854328508  WZ3       2624            0.0000000000
     17020      5674  TIP3      OH2           -13.6840249752       29.7816906768       13.8495528508  WZ3       2625            0.0000000000
     17021      5674  TIP3      H1            -13.6428149752       29.1560206768       14.5727928508  WZ3       2625            0.0000000000
     17022      5674  TIP3      H2            -12.9812549752       30.4055506768       14.0315928508  WZ3       2625            0.0000000000
     17023      5675  TIP3      OH2           -16.1506649752       27.8918406768        7.7773428508  WZ3       2628            0.0000000000
     17024      5675  TIP3      H1            -16.5983249752       28.7377106768        7.7589928508  WZ3       2628            0.0000000000
     17025      5675  TIP3      H2            -16.7115449752       27.3122606768        7.2618528508  WZ3       2628            0.0000000000
     17026      5676  TIP3      OH2           -15.4400549752       30.0538006768        9.9031428508  WZ3       2629            0.0000000000
     17027      5676  TIP3      H1            -15.2267049752       29.2839606768       10.4304428508  WZ3       2629            0.0000000000
     17028      5676  TIP3      H2            -14.7022949752       30.1434706768        9.2999028508  WZ3       2629            0.0000000000
     17029      5677  TIP3      OH2            -7.6630849752       32.5996206768       12.6626628508  WZ3       2630            0.0000000000
     17030      5677  TIP3      H1             -7.3592949752       31.9137606768       12.0680728508  WZ3       2630            0.0000000000
     17031      5677  TIP3      H2             -6.9416849752       32.7184906768       13.2804628508  WZ3       2630            0.0000000000
     17032      5678  TIP3      OH2             0.9998950248       24.2011506768       13.5232828508  WZ3       2631            0.0000000000
     17033      5678  TIP3      H1              1.0491150248       24.8112706768       14.2591928508  WZ3       2631            0.0000000000
     17034      5678  TIP3      H2              1.4254050248       24.6622406768       12.8003928508  WZ3       2631            0.0000000000
     17035      5679  TIP3      OH2            -4.5223849752       26.9938606768       12.9901428508  WZ3       2632            0.0000000000
     17036      5679  TIP3      H1             -4.3797949752       26.0475606768       13.0103028508  WZ3       2632            0.0000000000
     17037      5679  TIP3      H2             -4.6284849752       27.2008406768       12.0616328508  WZ3       2632            0.0000000000
     17038      5680  TIP3      OH2           -11.3675549752       25.0955006768       10.2626228508  WZ3       2633            0.0000000000
     17039      5680  TIP3      H1            -11.3244449752       25.9553506768        9.8442528508  WZ3       2633            0.0000000000
     17040      5680  TIP3      H2            -11.8251449752       24.5429706768        9.6289428508  WZ3       2633            0.0000000000
     17041      5681  TIP3      OH2            -3.6452849752       25.2260606768        8.6634528508  WZ3       2634            0.0000000000
     17042      5681  TIP3      H1             -2.9988549752       24.8973806768        9.2882128508  WZ3       2634            0.0000000000
     17043      5681  TIP3      H2             -3.1353449752       25.7439606768        8.0405928508  WZ3       2634            0.0000000000
     17044      5682  TIP3      OH2           -14.7474049752       27.4920806768       11.0247628508  WZ3       2635            0.0000000000
     17045      5682  TIP3      H1            -14.0937449752       26.9422506768       11.4567728508  WZ3       2635            0.0000000000
     17046      5682  TIP3      H2            -14.7234749752       27.2179806768       10.1079628508  WZ3       2635            0.0000000000
     17047      5683  TIP3      OH2            -9.5909549752       29.0422106768       10.2399128508  WZ3       2636            0.0000000000
     17048      5683  TIP3      H1             -8.9748549752       28.5157506768       10.7493128508  WZ3       2636            0.0000000000
     17049      5683  TIP3      H2            -10.1770749752       28.4020806768        9.8362728508  WZ3       2636            0.0000000000
     17050      5684  TIP3      OH2             1.3913550248       25.6790706768       15.7592628508  WZ3       2637            0.0000000000
     17051      5684  TIP3      H1              0.7028150248       26.3371406768       15.6639228508  WZ3       2637            0.0000000000
     17052      5684  TIP3      H2              1.4068150248       25.4818606768       16.6958028508  WZ3       2637            0.0000000000
     17053      5685  TIP3      OH2           -12.5573649752       24.0133406768       14.3367028508  WZ3       2638            0.0000000000
     17054      5685  TIP3      H1            -12.7761949752       24.5434006768       13.5703028508  WZ3       2638            0.0000000000
     17055      5685  TIP3      H2            -13.2252749752       24.2398906768       14.9838428508  WZ3       2638            0.0000000000
     17056      5686  TIP3      OH2            -9.9882249752       31.6889106768       14.6240728508  WZ3       2640            0.0000000000
     17057      5686  TIP3      H1            -10.7283149752       32.2870606768       14.7275928508  WZ3       2640            0.0000000000
     17058      5686  TIP3      H2             -9.2742749752       32.2428706768       14.3084328508  WZ3       2640            0.0000000000
     17059      5687  TIP3      OH2            -1.8814449752       24.5169906768       10.6440428508  WZ3       2641            0.0000000000
     17060      5687  TIP3      H1             -2.0966449752       23.7513306768       11.1766428508  WZ3       2641            0.0000000000
     17061      5687  TIP3      H2             -1.2257049752       24.9894506768       11.1568928508  WZ3       2641            0.0000000000
     17062      5688  TIP3      OH2           -12.9636349752       25.9055206768       12.2889228508  WZ3       2642            0.0000000000
     17063      5688  TIP3      H1            -12.3500049752       26.5382806768       12.6621628508  WZ3       2642            0.0000000000
     17064      5688  TIP3      H2            -12.4515649752       25.4330206768       11.6326128508  WZ3       2642            0.0000000000
     17065      5689  TIP3      OH2            -1.5340349752       23.2321206768       14.3233928508  WZ3       2646            0.0000000000
     17066      5689  TIP3      H1             -2.2701149752       23.8428306768       14.2855228508  WZ3       2646            0.0000000000
     17067      5689  TIP3      H2             -0.8506349752       23.6470206768       13.7970328508  WZ3       2646            0.0000000000
     17068      5690  TIP3      OH2            -8.5308949752       21.3188506768       11.7891928508  WZ3       2647            0.0000000000
     17069      5690  TIP3      H1             -8.6484749752       20.3704506768       11.7350228508  WZ3       2647            0.0000000000
     17070      5690  TIP3      H2             -9.3858849752       21.6514606768       12.0623028508  WZ3       2647            0.0000000000
     17071      5691  TIP3      OH2            -6.2644049752       30.1564106768        6.2897728508  WZ3       2650            0.0000000000
     17072      5691  TIP3      H1             -6.9758549752       30.6913806768        5.9378228508  WZ3       2650            0.0000000000
     17073      5691  TIP3      H2             -5.5734449752       30.2116206768        5.6296628508  WZ3       2650            0.0000000000
     17074      5692  TIP3      OH2            -6.2104849752       28.6138406768        3.3282728508  WZ3       2651            0.0000000000
     17075      5692  TIP3      H1             -5.5094949752       28.6365306768        3.9796728508  WZ3       2651            0.0000000000
     17076      5692  TIP3      H2             -5.9081949752       27.9858106768        2.6722028508  WZ3       2651            0.0000000000
     17077      5693  TIP3      OH2             1.1049850248       29.5342606768       14.5832128508  WZ3       2652            0.0000000000
     17078      5693  TIP3      H1              0.4523950248       30.2288206768       14.6723028508  WZ3       2652            0.0000000000
     17079      5693  TIP3      H2              1.5700150248       29.7443506768       13.7733728508  WZ3       2652            0.0000000000
     17080      5694  TIP3      OH2            -2.8586349752       30.3657406768        7.2413628508  WZ3       2653            0.0000000000
     17081      5694  TIP3      H1             -3.5905349752       30.5941106768        7.8144228508  WZ3       2653            0.0000000000
     17082      5694  TIP3      H2             -2.4114149752       29.6520106768        7.6961128508  WZ3       2653            0.0000000000
     17083      5695  TIP3      OH2            -2.9612849752       28.5400006768       16.3090628508  WZ3       2654            0.0000000000
     17084      5695  TIP3      H1             -2.8813749752       29.3034406768       16.8809128508  WZ3       2654            0.0000000000
     17085      5695  TIP3      H2             -3.5625149752       28.8192406768       15.6185728508  WZ3       2654            0.0000000000
     17086      5696  TIP3      OH2           -11.2132649752       30.9963606768        9.1238628508  WZ3       2655            0.0000000000
     17087      5696  TIP3      H1            -11.5437449752       30.6257006768        8.3055628508  WZ3       2655            0.0000000000
     17088      5696  TIP3      H2            -10.6248549752       30.3257606768        9.4706928508  WZ3       2655            0.0000000000
     17089      5697  TIP3      OH2           -10.8467149752       29.7649206768       12.7573628508  WZ3       2657            0.0000000000
     17090      5697  TIP3      H1            -10.2814649752       29.8863406768       11.9944828508  WZ3       2657            0.0000000000
     17091      5697  TIP3      H2            -10.5278249752       30.4024206768       13.3962128508  WZ3       2657            0.0000000000
     17092      5698  TIP3      OH2            -3.9876849752       29.5280306768        4.9264828508  WZ3       2660            0.0000000000
     17093      5698  TIP3      H1             -3.4081349752       29.6780606768        5.6733728508  WZ3       2660            0.0000000000
     17094      5698  TIP3      H2             -3.5736849752       29.9987706768        4.2031228508  WZ3       2660            0.0000000000
     17095      5699  TIP3      OH2           -13.0466549752       30.3623006768       16.7031228508  WZ3       2661            0.0000000000
     17096      5699  TIP3      H1            -12.9763349752       31.0129806768       17.4016228508  WZ3       2661            0.0000000000
     17097      5699  TIP3      H2            -13.9374349752       30.4650506768       16.3682128508  WZ3       2661            0.0000000000
     17098      5700  TIP3      OH2            -0.2888449752       21.2780706768        4.7394528508  WZ3       2662            0.0000000000
     17099      5700  TIP3      H1             -1.1887749752       21.4169706768        5.0345128508  WZ3       2662            0.0000000000
     17100      5700  TIP3      H2             -0.0370049752       22.1095306768        4.3376228508  WZ3       2662            0.0000000000
     17101      5701  TIP3      OH2           -12.2229949752       30.0657906768        6.7131428508  WZ3       2663            0.0000000000
     17102      5701  TIP3      H1            -12.5148649752       30.8339606768        6.2222728508  WZ3       2663            0.0000000000
     17103      5701  TIP3      H2            -12.8974749752       29.4064106768        6.5502828508  WZ3       2663            0.0000000000
     17104      5702  TIP3      OH2           -16.1299849752       32.4287106768       15.5281228508  WZ3       2665            0.0000000000
     17105      5702  TIP3      H1            -16.6311449752       32.4006506768       14.7130928508  WZ3       2665            0.0000000000
     17106      5702  TIP3      H2            -16.1246149752       31.5230306768       15.8378528508  WZ3       2665            0.0000000000
     17107      5703  TIP3      OH2            -1.0298849752       27.3683106768       18.5747328508  WZ3       2668            0.0000000000
     17108      5703  TIP3      H1             -1.4372049752       27.8488706768       17.8540628508  WZ3       2668            0.0000000000
     17109      5703  TIP3      H2             -0.9893149752       26.4629106768       18.2668128508  WZ3       2668            0.0000000000
     17110      5704  TIP3      OH2           -11.2621349752       22.2223006768       12.5668228508  WZ3       2670            0.0000000000
     17111      5704  TIP3      H1            -12.1237649752       22.1351206768       12.1591128508  WZ3       2670            0.0000000000
     17112      5704  TIP3      H2            -11.2845649752       23.0783106768       12.9945828508  WZ3       2670            0.0000000000
     17113      5705  TIP3      OH2            -6.5993549752       21.9443406768       15.9415228508  WZ3       2671            0.0000000000
     17114      5705  TIP3      H1             -6.1790449752       21.5290506768       16.6945828508  WZ3       2671            0.0000000000
     17115      5705  TIP3      H2             -7.5323949752       21.7656706768       16.0587228508  WZ3       2671            0.0000000000
     17116      5706  TIP3      OH2            -3.2728649752       25.6998606768       16.7949728508  WZ3       2672            0.0000000000
     17117      5706  TIP3      H1             -3.7869149752       25.5740806768       17.5925728508  WZ3       2672            0.0000000000
     17118      5706  TIP3      H2             -3.4283949752       26.6121706768       16.5505928508  WZ3       2672            0.0000000000
     17119      5707  TIP3      OH2            -2.5103749752       30.5608606768        2.5562728508  WZ3       2673            0.0000000000
     17120      5707  TIP3      H1             -2.4682949752       30.3382506768        1.6262728508  WZ3       2673            0.0000000000
     17121      5707  TIP3      H2             -1.6611649752       30.9595706768        2.7462628508  WZ3       2673            0.0000000000
     17122      5708  TIP3      OH2            -6.9376249752       24.4366806768        3.2266028508  WZ3       2674            0.0000000000
     17123      5708  TIP3      H1             -7.1911449752       24.4558406768        4.1494128508  WZ3       2674            0.0000000000
     17124      5708  TIP3      H2             -7.1944149752       23.5652206768        2.9252228508  WZ3       2674            0.0000000000
     17125      5709  TIP3      OH2           -11.1711249752       27.1877506768       13.6618428508  WZ3       2675            0.0000000000
     17126      5709  TIP3      H1            -11.8129149752       27.1474806768       14.3708528508  WZ3       2675            0.0000000000
     17127      5709  TIP3      H2            -11.1339249752       28.1142206768       13.4241428508  WZ3       2675            0.0000000000
     17128      5710  TIP3      OH2           -11.1742149752       27.4087606768        8.5738428508  WZ3       2676            0.0000000000
     17129      5710  TIP3      H1            -12.0669249752       27.0683706768        8.5152228508  WZ3       2676            0.0000000000
     17130      5710  TIP3      H2            -10.7235549752       27.0318506768        7.8181628508  WZ3       2676            0.0000000000
     17131      5711  TIP3      OH2            -5.6386649752       27.8247906768        7.3909228508  WZ3       2677            0.0000000000
     17132      5711  TIP3      H1             -6.0476349752       28.6396506768        7.0994028508  WZ3       2677            0.0000000000
     17133      5711  TIP3      H2             -4.9180449752       27.6848006768        6.7766328508  WZ3       2677            0.0000000000
     17134      5712  TIP3      OH2            -6.5365049752       28.0004306768       18.8789928508  WZ3       2678            0.0000000000
     17135      5712  TIP3      H1             -7.0991249752       27.2955906768       19.1997728508  WZ3       2678            0.0000000000
     17136      5712  TIP3      H2             -5.7101649752       27.8796206768       19.3467528508  WZ3       2678            0.0000000000
     17137      5713  TIP3      OH2            -4.6338949752       27.2708306768       10.2048928508  WZ3       2679            0.0000000000
     17138      5713  TIP3      H1             -4.8294449752       27.8765106768        9.4899528508  WZ3       2679            0.0000000000
     17139      5713  TIP3      H2             -4.4526349752       26.4373506768        9.7705228508  WZ3       2679            0.0000000000
     17140      5714  TIP3      OH2           -13.4210749752       27.5081006768       15.5290428508  WZ3       2680            0.0000000000
     17141      5714  TIP3      H1            -13.4591349752       27.9082606768       16.3977528508  WZ3       2680            0.0000000000
     17142      5714  TIP3      H2            -13.9119649752       26.6913406768       15.6193328508  WZ3       2680            0.0000000000
     17143      5715  TIP3      OH2           -10.0553349752       24.8823306768        2.3276428508  WZ3       2681            0.0000000000
     17144      5715  TIP3      H1            -10.4862649752       24.4373406768        3.0573828508  WZ3       2681            0.0000000000
     17145      5715  TIP3      H2            -10.7734649752       25.2539606768        1.8153928508  WZ3       2681            0.0000000000
     17146      5716  TIP3      OH2           -16.8129949752       24.6242806768        9.3795128508  WZ3       2682            0.0000000000
     17147      5716  TIP3      H1            -16.1822249752       24.5954906768       10.0989028508  WZ3       2682            0.0000000000
     17148      5716  TIP3      H2            -16.3635649752       24.1991506768        8.6491028508  WZ3       2682            0.0000000000
     17149      5717  TIP3      OH2           -15.5387849752       25.3704806768        4.8035528508  WZ3       2683            0.0000000000
     17150      5717  TIP3      H1            -15.0646149752       25.9614706768        4.2186428508  WZ3       2683            0.0000000000
     17151      5717  TIP3      H2            -16.2561449752       25.9007706768        5.1505628508  WZ3       2683            0.0000000000
     17152      5718  TIP3      OH2            -5.3699749752       28.9089606768       14.8761328508  WZ3       2684            0.0000000000
     17153      5718  TIP3      H1             -5.0464949752       28.2779306768       14.2331828508  WZ3       2684            0.0000000000
     17154      5718  TIP3      H2             -5.8100449752       28.3741806768       15.5368728508  WZ3       2684            0.0000000000
     17155      5719  TIP3      OH2            -8.5926849752       24.8365106768        9.6602528508  WZ3       2685            0.0000000000
     17156      5719  TIP3      H1             -9.5035749752       24.8931906768        9.9488528508  WZ3       2685            0.0000000000
     17157      5719  TIP3      H2             -8.0873949752       24.7760606768       10.4709728508  WZ3       2685            0.0000000000
     17158      5720  TIP3      OH2           -13.7643449752       26.4651406768        8.4870128508  WZ3       2686            0.0000000000
     17159      5720  TIP3      H1            -14.6535449752       26.5646906768        8.1469728508  WZ3       2686            0.0000000000
     17160      5720  TIP3      H2            -13.4678549752       25.6234406768        8.1408028508  WZ3       2686            0.0000000000
     17161      5721  TIP3      OH2           -10.1111649752       26.4654006768        6.1434728508  WZ3       2687            0.0000000000
     17162      5721  TIP3      H1             -9.1796149752       26.5944006768        6.3217828508  WZ3       2687            0.0000000000
     17163      5721  TIP3      H2            -10.3261349752       27.1348306768        5.4939428508  WZ3       2687            0.0000000000
     17164      5722  TIP3      OH2            -4.1874949752       24.0711406768       12.9244328508  WZ3       2688            0.0000000000
     17165      5722  TIP3      H1             -4.8643349752       24.2024506768       13.5884028508  WZ3       2688            0.0000000000
     17166      5722  TIP3      H2             -4.6730049752       23.9160906768       12.1142028508  WZ3       2688            0.0000000000
     17167      5723  TIP3      OH2           -11.4371449752       27.6596206768        3.7100828508  WZ3       2689            0.0000000000
     17168      5723  TIP3      H1            -11.9796349752       27.2800006768        3.0188428508  WZ3       2689            0.0000000000
     17169      5723  TIP3      H2            -10.6036549752       27.8540906768        3.2814928508  WZ3       2689            0.0000000000
     17170      5724  TIP3      OH2            -7.2727149752       27.6238106768       11.5472128508  WZ3       2691            0.0000000000
     17171      5724  TIP3      H1             -6.7083749752       27.0774706768       11.0001728508  WZ3       2691            0.0000000000
     17172      5724  TIP3      H2             -7.4203749752       27.1020006768       12.3359728508  WZ3       2691            0.0000000000
     17173      5725  TIP3      OH2           -12.2707449752       23.7604206768        7.9656928508  WZ3       2692            0.0000000000
     17174      5725  TIP3      H1            -12.5877949752       22.8579506768        7.9302328508  WZ3       2692            0.0000000000
     17175      5725  TIP3      H2            -11.4893349752       23.7621606768        7.4128528508  WZ3       2692            0.0000000000
     17176      5726  TIP3      OH2            -8.6461249752       26.0124206768       13.9612528508  WZ3       2693            0.0000000000
     17177      5726  TIP3      H1             -9.4815949752       26.4663706768       14.0714928508  WZ3       2693            0.0000000000
     17178      5726  TIP3      H2             -8.1220649752       26.2882706768       14.7132428508  WZ3       2693            0.0000000000
     17179      5727  TIP3      OH2            -8.1018649752       32.2251906768        5.6458928508  WZ3       2694            0.0000000000
     17180      5727  TIP3      H1             -8.8467649752       31.7177206768        5.3236828508  WZ3       2694            0.0000000000
     17181      5727  TIP3      H2             -8.2361449752       32.2739906768        6.5923728508  WZ3       2694            0.0000000000
     17182      5728  TIP3      OH2            -0.9519749752       31.3580106768       14.4326528508  WZ3       2695            0.0000000000
     17183      5728  TIP3      H1             -0.3100949752       31.8146406768       13.8888728508  WZ3       2695            0.0000000000
     17184      5728  TIP3      H2             -1.7822849752       31.4712506768       13.9700628508  WZ3       2695            0.0000000000
     17185      5729  TIP3      OH2            -4.2041849752       25.0391806768        3.8451528508  WZ3       2696            0.0000000000
     17186      5729  TIP3      H1             -5.1427649752       25.1507406768        3.6940328508  WZ3       2696            0.0000000000
     17187      5729  TIP3      H2             -3.9069749752       25.8958706768        4.1517228508  WZ3       2696            0.0000000000
     17188      5730  TIP3      OH2            -3.4858349752       26.9064506768        5.5058928508  WZ3       2698            0.0000000000
     17189      5730  TIP3      H1             -2.5939349752       26.7689506768        5.8250128508  WZ3       2698            0.0000000000
     17190      5730  TIP3      H2             -3.4294749752       27.6970606768        4.9692428508  WZ3       2698            0.0000000000
     17191      5731  TIP3      OH2           -12.9770349752       31.5201906768       11.4156828508  WZ3       2699            0.0000000000
     17192      5731  TIP3      H1            -12.2323149752       31.5177606768       10.8143328508  WZ3       2699            0.0000000000
     17193      5731  TIP3      H2            -12.8993749752       30.6965706768       11.8971928508  WZ3       2699            0.0000000000
     17194      5732  TIP3      OH2           -15.9690649752       29.9808806768       16.7305328508  WZ3       2701            0.0000000000
     17195      5732  TIP3      H1            -15.7462049752       29.5628406768       17.5622828508  WZ3       2701            0.0000000000
     17196      5732  TIP3      H2            -16.5710549752       29.3683806768       16.3078128508  WZ3       2701            0.0000000000
     17197      5733  TIP3      OH2            -8.9525749752       29.4978706768       18.9435028508  WZ3       2702            0.0000000000
     17198      5733  TIP3      H1             -9.2484949752       29.3321706768       18.0484128508  WZ3       2702            0.0000000000
     17199      5733  TIP3      H2             -8.0210549752       29.2779006768       18.9328928508  WZ3       2702            0.0000000000
     17200      5734  TIP3      OH2             1.3990350248       27.1158606768        5.2005628508  WZ3       2704            0.0000000000
     17201      5734  TIP3      H1              0.8446650248       26.7196606768        4.5283128508  WZ3       2704            0.0000000000
     17202      5734  TIP3      H2              1.4993950248       28.0263806768        4.9228928508  WZ3       2704            0.0000000000
     17203      5735  TIP3      OH2            -3.1454049752       30.7098506768       12.6869628508  WZ3       2706            0.0000000000
     17204      5735  TIP3      H1             -4.0737149752       30.4780406768       12.6598928508  WZ3       2706            0.0000000000
     17205      5735  TIP3      H2             -2.6942949752       29.9328306768       12.3568428508  WZ3       2706            0.0000000000
     17206      5736  TIP3      OH2           -14.8473249752       29.9004206768        3.4070728508  WZ3       2708            0.0000000000
     17207      5736  TIP3      H1            -14.2313349752       30.5271406768        3.7865528508  WZ3       2708            0.0000000000
     17208      5736  TIP3      H2            -15.7090649752       30.2164006768        3.6787228508  WZ3       2708            0.0000000000
     17209      5737  TIP3      OH2           -14.3351149752       24.7341506768       16.2886728508  WZ3       2712            0.0000000000
     17210      5737  TIP3      H1            -15.2278849752       25.0726906768       16.2210728508  WZ3       2712            0.0000000000
     17211      5737  TIP3      H2            -14.4338349752       23.8787606768       16.7067528508  WZ3       2712            0.0000000000
     17212      5738  TIP3      OH2            -2.0473049752       32.5506806768        5.7126228508  WZ3       2713            0.0000000000
     17213      5738  TIP3      H1             -2.3245449752       31.8226106768        6.2687328508  WZ3       2713            0.0000000000
     17214      5738  TIP3      H2             -1.1200049752       32.6698806768        5.9178828508  WZ3       2713            0.0000000000
     17215      5739  TIP3      OH2           -13.4322849752       31.8128006768        4.8996328508  WZ3       2716            0.0000000000
     17216      5739  TIP3      H1            -14.1183549752       32.1650506768        5.4666028508  WZ3       2716            0.0000000000
     17217      5739  TIP3      H2            -12.9094949752       32.5757606768        4.6530628508  WZ3       2716            0.0000000000
     17218      5740  TIP3      OH2            -5.6007749752       24.4751806768       15.1785328508  WZ3       2717            0.0000000000
     17219      5740  TIP3      H1             -4.9019849752       24.5490506768       15.8285028508  WZ3       2717            0.0000000000
     17220      5740  TIP3      H2             -5.9816349752       23.6106806768       15.3328228508  WZ3       2717            0.0000000000
     17221      5741  TIP3      OH2            -4.8162849752       24.1273506768        6.2757628508  WZ3       2718            0.0000000000
     17222      5741  TIP3      H1             -4.5964549752       24.5988906768        5.4723028508  WZ3       2718            0.0000000000
     17223      5741  TIP3      H2             -4.2578849752       24.5216106768        6.9458228508  WZ3       2718            0.0000000000
     17224      5742  TIP3      OH2            -7.6162949752       25.8552306768        7.1106028508  WZ3       2719            0.0000000000
     17225      5742  TIP3      H1             -6.8040349752       26.3595506768        7.1567728508  WZ3       2719            0.0000000000
     17226      5742  TIP3      H2             -7.8609949752       25.7102006768        8.0245628508  WZ3       2719            0.0000000000
     17227      5743  TIP3      OH2            -7.0806549752       26.8415006768       16.2952628508  WZ3       2720            0.0000000000
     17228      5743  TIP3      H1             -6.9616249752       27.4150406768       17.0523028508  WZ3       2720            0.0000000000
     17229      5743  TIP3      H2             -6.4251949752       26.1534406768       16.4100428508  WZ3       2720            0.0000000000
     17230      5744  TIP3      OH2            -6.7326249752       22.9365306768        8.0487128508  WZ3       2721            0.0000000000
     17231      5744  TIP3      H1             -7.0792749752       23.5535906768        8.6931428508  WZ3       2721            0.0000000000
     17232      5744  TIP3      H2             -6.0739349752       23.4371006768        7.5672628508  WZ3       2721            0.0000000000
     17233      5745  TIP3      OH2           -11.0749249752       23.9994706768        4.7359628508  WZ3       2722            0.0000000000
     17234      5745  TIP3      H1            -11.1584449752       24.8877806768        5.0826028508  WZ3       2722            0.0000000000
     17235      5745  TIP3      H2            -10.1848949752       23.7341406768        4.9676428508  WZ3       2722            0.0000000000
     17236      5746  TIP3      OH2            -0.8760749752       24.7485306768       17.1302328508  WZ3       2723            0.0000000000
     17237      5746  TIP3      H1             -1.7924949752       25.0107006768       17.0426028508  WZ3       2723            0.0000000000
     17238      5746  TIP3      H2             -0.5405749752       24.7454306768       16.2337628508  WZ3       2723            0.0000000000
     17239      5747  TIP3      OH2            -2.2739749752       28.4986306768       11.2259628508  WZ3       2724            0.0000000000
     17240      5747  TIP3      H1             -3.0715349752       28.0836506768       10.8974628508  WZ3       2724            0.0000000000
     17241      5747  TIP3      H2             -1.8288649752       27.8080006768       11.7170128508  WZ3       2724            0.0000000000
     17242      5748  TIP3      OH2           -14.5004749752       27.0909906768        2.9123528508  WZ3       2726            0.0000000000
     17243      5748  TIP3      H1            -14.5452149752       28.0303006768        3.0910528508  WZ3       2726            0.0000000000
     17244      5748  TIP3      H2            -15.3881549752       26.8554806768        2.6425628508  WZ3       2726            0.0000000000
     17245      5749  TIP3      OH2           -13.6922749752       21.8726506768       11.5854528508  WZ3       2727            0.0000000000
     17246      5749  TIP3      H1            -13.9212949752       21.9319006768       10.6579528508  WZ3       2727            0.0000000000
     17247      5749  TIP3      H2            -14.1349349752       21.0812006768       11.8918628508  WZ3       2727            0.0000000000
     17248      5750  TIP3      OH2           -11.2252549752       32.5797106768        2.1627228508  WZ3       2731            0.0000000000
     17249      5750  TIP3      H1            -11.1608449752       31.7856706768        2.6933628508  WZ3       2731            0.0000000000
     17250      5750  TIP3      H2            -10.5723349752       32.4609906768        1.4729228508  WZ3       2731            0.0000000000
     17251      5751  TIP3      OH2            -8.9110149752       32.2059506768       19.4629028508  WZ3       2732            0.0000000000
     17252      5751  TIP3      H1             -9.2396349752       32.4767606768       18.6056428508  WZ3       2732            0.0000000000
     17253      5751  TIP3      H2             -8.7591949752       31.2649306768       19.3754028508  WZ3       2732            0.0000000000
     17254      5752  TIP3      OH2            -3.1764949752       32.1216806768       16.8461328508  WZ3       2734            0.0000000000
     17255      5752  TIP3      H1             -2.4310149752       32.7100506768       16.7265328508  WZ3       2734            0.0000000000
     17256      5752  TIP3      H2             -3.9338149752       32.7036506768       16.9094428508  WZ3       2734            0.0000000000
     17257      5753  TIP3      OH2           -14.7339749752       29.4364706768       19.4501928508  WZ3       2735            0.0000000000
     17258      5753  TIP3      H1            -14.3258549752       28.5791306768       19.3292528508  WZ3       2735            0.0000000000
     17259      5753  TIP3      H2            -14.9942149752       29.4506006768       20.3712228508  WZ3       2735            0.0000000000
     17260      5754  TIP3      OH2           -10.0758749752       30.5523306768        4.4685228508  WZ3       2736            0.0000000000
     17261      5754  TIP3      H1            -10.5356749752       30.0681606768        5.1543728508  WZ3       2736            0.0000000000
     17262      5754  TIP3      H2             -9.8210049752       29.8838706768        3.8325728508  WZ3       2736            0.0000000000
     17263      5755  TIP3      OH2           -10.7869449752       28.4450406768       16.8244828508  WZ3       2737            0.0000000000
     17264      5755  TIP3      H1            -11.4053349752       29.1197006768       17.1049528508  WZ3       2737            0.0000000000
     17265      5755  TIP3      H2            -10.4428249752       28.7664306768       15.9911028508  WZ3       2737            0.0000000000
     17266      5756  TIP3      OH2            -9.0048349752       28.7955106768        2.7308428508  WZ3       2738            0.0000000000
     17267      5756  TIP3      H1             -9.1853349752       28.6406306768        1.8036728508  WZ3       2738            0.0000000000
     17268      5756  TIP3      H2             -8.0547849752       28.9033806768        2.7756328508  WZ3       2738            0.0000000000
     17269      5757  TIP3      OH2            -5.7671249752       30.9165706768       20.1019628508  WZ3       2739            0.0000000000
     17270      5757  TIP3      H1             -4.8140049752       31.0004806768       20.0745628508  WZ3       2739            0.0000000000
     17271      5757  TIP3      H2             -5.9276649752       30.2047506768       20.7214528508  WZ3       2739            0.0000000000
     17272      5758  TIP3      OH2             0.3849950248       31.1499306768        2.1766528508  WZ3       2740            0.0000000000
     17273      5758  TIP3      H1              0.1114750248       30.7254806768        1.3634828508  WZ3       2740            0.0000000000
     17274      5758  TIP3      H2              0.4244050248       32.0813806768        1.9596928508  WZ3       2740            0.0000000000
     17275      5759  TIP3      OH2           -10.4475749752       25.8001206768       17.9067928508  WZ3       2741            0.0000000000
     17276      5759  TIP3      H1            -10.2974849752       25.0712506768       17.3047628508  WZ3       2741            0.0000000000
     17277      5759  TIP3      H2            -10.4453349752       26.5772906768       17.3480128508  WZ3       2741            0.0000000000
     17278      5760  TIP3      OH2           -10.0350049752       24.1697006768       15.3995328508  WZ3       2742            0.0000000000
     17279      5760  TIP3      H1             -9.4992549752       24.6213706768       14.7474628508  WZ3       2742            0.0000000000
     17280      5760  TIP3      H2            -10.8870449752       24.0616806768       14.9769428508  WZ3       2742            0.0000000000
     17281      5761  TIP3      OH2            -8.4531649752       29.6093206768       15.6390528508  WZ3       2743            0.0000000000
     17282      5761  TIP3      H1             -7.7026849752       29.4530706768       15.0658328508  WZ3       2743            0.0000000000
     17283      5761  TIP3      H2             -8.7923349752       30.4609806768       15.3636028508  WZ3       2743            0.0000000000
     17284      5762  TIP3      OH2            -4.0375449752       27.4245006768       20.6675828508  WZ3       2744            0.0000000000
     17285      5762  TIP3      H1             -3.8454149752       26.4934406768       20.5560328508  WZ3       2744            0.0000000000
     17286      5762  TIP3      H2             -3.1799149752       27.8494506768       20.6571228508  WZ3       2744            0.0000000000
     17287      5763  TIP3      OH2            -2.7208249752       30.2130206768       18.7448528508  WZ3       2745            0.0000000000
     17288      5763  TIP3      H1             -3.0023249752       30.9224806768       18.1672328508  WZ3       2745            0.0000000000
     17289      5763  TIP3      H2             -1.7783949752       30.1403206768       18.5939728508  WZ3       2745            0.0000000000
     17290      5764  TIP3      OH2           -11.9689449752       26.9984706768       19.8183528508  WZ3       2746            0.0000000000
     17291      5764  TIP3      H1            -12.7360449752       26.4659506768       19.6081128508  WZ3       2746            0.0000000000
     17292      5764  TIP3      H2            -11.2900449752       26.6885106768       19.2189828508  WZ3       2746            0.0000000000
     17293      5765  TIP3      OH2            -9.2294549752       21.6262706768       15.8308928508  WZ3       2747            0.0000000000
     17294      5765  TIP3      H1             -9.3274949752       22.5725906768       15.7255128508  WZ3       2747            0.0000000000
     17295      5765  TIP3      H2             -9.9718349752       21.2536506768       15.3552428508  WZ3       2747            0.0000000000
     17296      5766  TIP3      OH2            -7.9654049752       25.9478106768       19.3947328508  WZ3       2748            0.0000000000
     17297      5766  TIP3      H1             -8.2008649752       25.7284806768       20.2962228508  WZ3       2748            0.0000000000
     17298      5766  TIP3      H2             -8.7487149752       25.7409306768       18.8849828508  WZ3       2748            0.0000000000
     17299      5767  TIP3      OH2            -5.2497449752       25.0751606768       18.4700828508  WZ3       2749            0.0000000000
     17300      5767  TIP3      H1             -6.1972049752       25.1071306768       18.6024128508  WZ3       2749            0.0000000000
     17301      5767  TIP3      H2             -4.9370749752       24.4498706768       19.1239028508  WZ3       2749            0.0000000000
     17302      5768  TIP3      OH2            -3.6155949752       23.7092706768       20.4752728508  WZ3       2750            0.0000000000
     17303      5768  TIP3      H1             -3.7124149752       22.7570006768       20.4694628508  WZ3       2750            0.0000000000
     17304      5768  TIP3      H2             -3.9372849752       23.9779506768       21.3358228508  WZ3       2750            0.0000000000
     17305      5769  TIP3      OH2           -13.7886649752       24.9188506768       19.5228228508  WZ3       2751            0.0000000000
     17306      5769  TIP3      H1            -13.5769249752       24.2124606768       18.9125728508  WZ3       2751            0.0000000000
     17307      5769  TIP3      H2            -13.8999149752       24.4814506768       20.3669428508  WZ3       2751            0.0000000000
     17308      5770  TIP3      OH2            -9.0076449752       20.9200106768       18.5021728508  WZ3       2752            0.0000000000
     17309      5770  TIP3      H1             -8.2958049752       20.2802306768       18.4880828508  WZ3       2752            0.0000000000
     17310      5770  TIP3      H2             -9.1086049752       21.1868406768       17.5884828508  WZ3       2752            0.0000000000
     17311      5771  TIP3      OH2            -8.6538949752       22.6028506768       20.5558028508  WZ3       2753            0.0000000000
     17312      5771  TIP3      H1             -8.7856749752       22.1272306768       19.7356528508  WZ3       2753            0.0000000000
     17313      5771  TIP3      H2             -9.2531549752       23.3472106768       20.5005128508  WZ3       2753            0.0000000000
     17314      5772  TIP3      OH2             0.8432750248       32.0187406768        6.1516928508  WZ3       2756            0.0000000000
     17315      5772  TIP3      H1              1.6934150248       32.4398306768        6.2788528508  WZ3       2756            0.0000000000
     17316      5772  TIP3      H2              0.8487850248       31.2787506768        6.7588328508  WZ3       2756            0.0000000000
     17317      5773  TIP3      OH2             1.2378350248       30.0724806768        7.9752628508  WZ3       2757            0.0000000000
     17318      5773  TIP3      H1              0.5112950248       29.5927406768        8.3730228508  WZ3       2757            0.0000000000
     17319      5773  TIP3      H2              1.8191650248       30.2779506768        8.7074228508  WZ3       2757            0.0000000000
     17320      5774  TIP3      OH2             1.5061450248       29.9733306768        4.3663928508  WZ3       2760            0.0000000000
     17321      5774  TIP3      H1              0.9842550248       30.3297406768        3.6474828508  WZ3       2760            0.0000000000
     17322      5774  TIP3      H2              1.4730650248       30.6481106768        5.0444828508  WZ3       2760            0.0000000000
     17323      5775  TIP3      OH2            -0.1449549752       27.2128906768        2.9171028508  WZ3       2761            0.0000000000
     17324      5775  TIP3      H1             -0.0485149752       27.8795906768        2.2370728508  WZ3       2761            0.0000000000
     17325      5775  TIP3      H2             -0.2849949752       26.3975206768        2.4356528508  WZ3       2761            0.0000000000
     17326      5776  TIP3      OH2            -0.9754849752       28.5931306768        8.5381328508  WZ3       2762            0.0000000000
     17327      5776  TIP3      H1             -1.1256049752       27.6479906768        8.5179128508  WZ3       2762            0.0000000000
     17328      5776  TIP3      H2             -1.3290349752       28.8742706768        9.3820428508  WZ3       2762            0.0000000000
     17329      5777  TIP3      OH2           -15.9402449752       30.6713506768       12.5485128508  WZ3       2763            0.0000000000
     17330      5777  TIP3      H1            -15.7559549752       30.5895206768       11.6128028508  WZ3       2763            0.0000000000
     17331      5777  TIP3      H2            -15.0909549752       30.5470506768       12.9721528508  WZ3       2763            0.0000000000
     17332      5778  TIP3      OH2            -0.1191949752       30.5634606768       18.1769628508  WZ3       2764            0.0000000000
     17333      5778  TIP3      H1              0.4635350248       29.8286906768       18.3686828508  WZ3       2764            0.0000000000
     17334      5778  TIP3      H2              0.4447350248       31.3354906768       18.2235428508  WZ3       2764            0.0000000000
     17335      5779  TIP3      OH2             1.3775150248       28.4660406768       18.8615028508  WZ3       2765            0.0000000000
     17336      5779  TIP3      H1              0.5141850248       28.0872506768       18.6959728508  WZ3       2765            0.0000000000
     17337      5779  TIP3      H2              1.9818850248       27.7275206768       18.7870828508  WZ3       2765            0.0000000000
     17338      5780  TIP3      OH2            -0.8975749752       24.6208706768        2.0346528508  WZ3       2766            0.0000000000
     17339      5780  TIP3      H1             -0.2869949752       24.2495506768        2.6714728508  WZ3       2766            0.0000000000
     17340      5780  TIP3      H2             -1.7344249752       24.1995606768        2.2306528508  WZ3       2766            0.0000000000
     17341      5781  TIP3      OH2            -1.2650049752       26.1757106768        7.0006428508  WZ3       2767            0.0000000000
     17342      5781  TIP3      H1             -0.9852949752       25.2687506768        7.1248128508  WZ3       2767            0.0000000000
     17343      5781  TIP3      H2             -0.5058349752       26.6098606768        6.6115628508  WZ3       2767            0.0000000000
     17344      5782  TIP3      OH2            -0.6531749752       26.7574506768       12.4365328508  WZ3       2768            0.0000000000
     17345      5782  TIP3      H1              0.2796250248       26.9694406768       12.4021328508  WZ3       2768            0.0000000000
     17346      5782  TIP3      H2             -0.8884249752       26.8586606768       13.3588328508  WZ3       2768            0.0000000000
     17347      5783  TIP3      OH2            -0.6239849752       27.4939806768       15.2124728508  WZ3       2769            0.0000000000
     17348      5783  TIP3      H1             -1.4668549752       27.7620206768       15.5784528508  WZ3       2769            0.0000000000
     17349      5783  TIP3      H2             -0.1815549752       28.3161706768       15.0015828508  WZ3       2769            0.0000000000
     17350      5784  TIP3      OH2           -16.3427649752       25.9418506768       18.6893928508  WZ3       2770            0.0000000000
     17351      5784  TIP3      H1            -15.4232749752       25.8196806768       18.9257028508  WZ3       2770            0.0000000000
     17352      5784  TIP3      H2            -16.7923149752       25.1918206768       19.0787428508  WZ3       2770            0.0000000000
     17353      5785  TIP3      OH2             1.6591750248       21.4740006768       20.5659728508  WZ3       2771            0.0000000000
     17354      5785  TIP3      H1              2.0088750248       20.8203506768       19.9604428508  WZ3       2771            0.0000000000
     17355      5785  TIP3      H2              1.8061250248       22.3114106768       20.1262328508  WZ3       2771            0.0000000000
     17356      5786  TIP3      OH2            -0.6515249752       23.4386406768        7.0488428508  WZ3       2772            0.0000000000
     17357      5786  TIP3      H1             -0.4690249752       22.9897906768        7.8743428508  WZ3       2772            0.0000000000
     17358      5786  TIP3      H2             -1.2512349752       22.8540806768        6.5853028508  WZ3       2772            0.0000000000
     17359      5787  TIP3      OH2           -15.1215149752       24.2540106768       11.5806828508  WZ3       2773            0.0000000000
     17360      5787  TIP3      H1            -14.6763549752       23.4622606768       11.8826528508  WZ3       2773            0.0000000000
     17361      5787  TIP3      H2            -14.6552149752       24.9705306768       12.0112428508  WZ3       2773            0.0000000000
     17362      5788  TIP3      OH2           -16.8174849752       27.2533106768       12.6497028508  WZ3       2774            0.0000000000
     17363      5788  TIP3      H1            -16.3255049752       27.0323606768       11.8589028508  WZ3       2774            0.0000000000
     17364      5788  TIP3      H2            -16.4553949752       28.0936506768       12.9306528508  WZ3       2774            0.0000000000
     17365      5789  TIP3      OH2             1.1788950248       23.5834606768       18.9151028508  WZ3       2775            0.0000000000
     17366      5789  TIP3      H1              0.2614650248       23.8541706768       18.8794528508  WZ3       2775            0.0000000000
     17367      5789  TIP3      H2              1.3018350248       23.0483006768       18.1310728508  WZ3       2775            0.0000000000
     17368      5790  TIP3      OH2             1.2150950248       23.5064506768        3.5768728508  WZ3       2776            0.0000000000
     17369      5790  TIP3      H1              1.6273550248       22.7850206768        3.1016728508  WZ3       2776            0.0000000000
     17370      5790  TIP3      H2              1.8967450248       24.1759106768        3.6353028508  WZ3       2776            0.0000000000
     17371      5791  TIP3      OH2           -16.5038349752       23.5112206768        6.7039428508  WZ3       2777            0.0000000000
     17372      5791  TIP3      H1            -17.4289949752       23.7198806768        6.5744928508  WZ3       2777            0.0000000000
     17373      5791  TIP3      H2            -16.0498449752       23.9953006768        6.0141728508  WZ3       2777            0.0000000000
     17374      5792  TIP3      OH2           -16.5402949752       22.2491206768       15.0481928508  WZ3       2778            0.0000000000
     17375      5792  TIP3      H1            -17.2052449752       22.0031506768       15.6912828508  WZ3       2778            0.0000000000
     17376      5792  TIP3      H2            -16.9831649752       22.8711606768       14.4709928508  WZ3       2778            0.0000000000
     17377      5793  TIP3      OH2             0.1794850248       21.6730906768       16.7341828508  WZ3       2780            0.0000000000
     17378      5793  TIP3      H1             -0.6331649752       21.9981206768       16.3466528508  WZ3       2780            0.0000000000
     17379      5793  TIP3      H2              0.4123350248       20.9129406768       16.2010928508  WZ3       2780            0.0000000000
     17380      5794  TIP3      OH2            -6.3906649752       23.1221506768       11.0570028508  WZ3       2781            0.0000000000
     17381      5794  TIP3      H1             -7.0649849752       22.4927106768       11.3125828508  WZ3       2781            0.0000000000
     17382      5794  TIP3      H2             -5.8267449752       22.6380406768       10.4537928508  WZ3       2781            0.0000000000
     17383      5795  TIP3      OH2            -1.2479449752       21.2295506768       11.1697128508  WZ3       2782            0.0000000000
     17384      5795  TIP3      H1             -0.6441849752       21.7770906768       10.6678128508  WZ3       2782            0.0000000000
     17385      5795  TIP3      H2             -2.1177449752       21.5485906768       10.9291228508  WZ3       2782            0.0000000000
     17386      5796  TIP3      OH2             0.4790950248       22.3684206768        9.5028028508  WZ3       2783            0.0000000000
     17387      5796  TIP3      H1              1.0908450248       21.8539906768        8.9761628508  WZ3       2783            0.0000000000
     17388      5796  TIP3      H2              0.8614350248       23.2456306768        9.5262428508  WZ3       2783            0.0000000000
     17389      5797  TIP3      OH2           -14.0639149752       21.7561806768        8.8789928508  WZ3       2784            0.0000000000
     17390      5797  TIP3      H1            -14.8409349752       21.5216706768        8.3715828508  WZ3       2784            0.0000000000
     17391      5797  TIP3      H2            -13.5335549752       20.9593906768        8.8877928508  WZ3       2784            0.0000000000
     17392      5798  TIP3      OH2           -15.2275749752       21.5539906768        4.6826028508  WZ3       2785            0.0000000000
     17393      5798  TIP3      H1            -14.7885049752       22.1650406768        4.0909528508  WZ3       2785            0.0000000000
     17394      5798  TIP3      H2            -15.8613349752       22.0924006768        5.1566028508  WZ3       2785            0.0000000000
     17395      5799  TIP3      OH2            -9.4846549752       21.6828906768        8.6923028508  WZ3       2786            0.0000000000
     17396      5799  TIP3      H1             -8.6103149752       22.0713206768        8.6627328508  WZ3       2786            0.0000000000
     17397      5799  TIP3      H2             -9.6205749752       21.4676706768        9.6150228508  WZ3       2786            0.0000000000
     17398      5800  TIP3      OH2            -3.9278149752       21.7128706768       10.3414728508  WZ3       2787            0.0000000000
     17399      5800  TIP3      H1             -3.8516549752       21.8080306768        9.3920728508  WZ3       2787            0.0000000000
     17400      5800  TIP3      H2             -4.2028949752       20.8051606768       10.4703828508  WZ3       2787            0.0000000000
     17401      5801  TIP3      OH2            -2.5745549752       21.7386506768        6.0339728508  WZ3       2788            0.0000000000
     17402      5801  TIP3      H1             -3.2774449752       22.3535706768        5.8241128508  WZ3       2788            0.0000000000
     17403      5801  TIP3      H2             -3.0194149752       20.9013206768        6.1650628508  WZ3       2788            0.0000000000
     17404      5802  TIP3      OH2           -13.3666649752       23.4701406768        3.1250128508  WZ3       2789            0.0000000000
     17405      5802  TIP3      H1            -12.8753249752       22.8403806768        2.5975628508  WZ3       2789            0.0000000000
     17406      5802  TIP3      H2            -12.7430349752       23.7660806768        3.7881328508  WZ3       2789            0.0000000000
     17407      5803  TIP3      OH2            -8.3406549752       23.7632906768        5.5820628508  WZ3       2790            0.0000000000
     17408      5803  TIP3      H1             -8.1625249752       23.1166106768        6.2649228508  WZ3       2790            0.0000000000
     17409      5803  TIP3      H2             -8.3940349752       24.5970606768        6.0491728508  WZ3       2790            0.0000000000
     17410      5804  TIP3      OH2           -14.1061149752       22.2703706768       18.3966128508  WZ3       2791            0.0000000000
     17411      5804  TIP3      H1            -14.4722949752       21.5046306768       18.8390828508  WZ3       2791            0.0000000000
     17412      5804  TIP3      H2            -13.1932649752       22.2993906768       18.6831228508  WZ3       2791            0.0000000000
     17413      5805  TIP3      OH2           -12.1330349752       21.6208106768       19.9323228508  WZ3       2792            0.0000000000
     17414      5805  TIP3      H1            -11.2346749752       21.3468306768       19.7476628508  WZ3       2792            0.0000000000
     17415      5805  TIP3      H2            -12.5197249752       20.8784106768       20.3965828508  WZ3       2792            0.0000000000
     17416      5806  TIP3      OH2            -3.7118049752       20.9533406768       20.1146028508  WZ3       2793            0.0000000000
     17417      5806  TIP3      H1             -3.6350849752       20.5274106768       20.9683728508  WZ3       2793            0.0000000000
     17418      5806  TIP3      H2             -2.8181449752       20.9668106768       19.7719528508  WZ3       2793            0.0000000000
     17419      5807  TIP3      OH2            13.8703450248       30.9124106768        8.8377428508  WZ3       2794            0.0000000000
     17420      5807  TIP3      H1             13.9594550248       31.8562306768        8.7054528508  WZ3       2794            0.0000000000
     17421      5807  TIP3      H2             13.2321050248       30.6370506768        8.1796828508  WZ3       2794            0.0000000000
     17422      5808  TIP3      OH2            12.8034750248       30.1674806768       12.2565628508  WZ3       2795            0.0000000000
     17423      5808  TIP3      H1             12.7652250248       29.5211106768       12.9615228508  WZ3       2795            0.0000000000
     17424      5808  TIP3      H2             12.4811250248       29.7009206768       11.4854328508  WZ3       2795            0.0000000000
     17425      5809  TIP3      OH2             5.1719750248       29.7816906768       13.8495528508  WZ3       2796            0.0000000000
     17426      5809  TIP3      H1              5.2131850248       29.1560206768       14.5727928508  WZ3       2796            0.0000000000
     17427      5809  TIP3      H2              5.8747450248       30.4055506768       14.0315928508  WZ3       2796            0.0000000000
     17428      5810  TIP3      OH2             2.7053350248       27.8918406768        7.7773428508  WZ3       2799            0.0000000000
     17429      5810  TIP3      H1              2.2576750248       28.7377106768        7.7589928508  WZ3       2799            0.0000000000
     17430      5810  TIP3      H2              2.1444550248       27.3122606768        7.2618528508  WZ3       2799            0.0000000000
     17431      5811  TIP3      OH2             3.4159450248       30.0538006768        9.9031428508  WZ3       2800            0.0000000000
     17432      5811  TIP3      H1              3.6292950248       29.2839606768       10.4304428508  WZ3       2800            0.0000000000
     17433      5811  TIP3      H2              4.1537050248       30.1434706768        9.2999028508  WZ3       2800            0.0000000000
     17434      5812  TIP3      OH2            11.1929150248       32.5996206768       12.6626628508  WZ3       2801            0.0000000000
     17435      5812  TIP3      H1             11.4967050248       31.9137606768       12.0680728508  WZ3       2801            0.0000000000
     17436      5812  TIP3      H2             11.9143150248       32.7184906768       13.2804628508  WZ3       2801            0.0000000000
     17437      5813  TIP3      OH2            19.8558950248       24.2011506768       13.5232828508  WZ3       2802            0.0000000000
     17438      5813  TIP3      H1             19.9051150248       24.8112706768       14.2591928508  WZ3       2802            0.0000000000
     17439      5813  TIP3      H2             20.2814050248       24.6622406768       12.8003928508  WZ3       2802            0.0000000000
     17440      5814  TIP3      OH2            14.3336150248       26.9938606768       12.9901428508  WZ3       2803            0.0000000000
     17441      5814  TIP3      H1             14.4762050248       26.0475606768       13.0103028508  WZ3       2803            0.0000000000
     17442      5814  TIP3      H2             14.2275150248       27.2008406768       12.0616328508  WZ3       2803            0.0000000000
     17443      5815  TIP3      OH2             7.4884450248       25.0955006768       10.2626228508  WZ3       2804            0.0000000000
     17444      5815  TIP3      H1              7.5315550248       25.9553506768        9.8442528508  WZ3       2804            0.0000000000
     17445      5815  TIP3      H2              7.0308550248       24.5429706768        9.6289428508  WZ3       2804            0.0000000000
     17446      5816  TIP3      OH2            15.2107150248       25.2260606768        8.6634528508  WZ3       2805            0.0000000000
     17447      5816  TIP3      H1             15.8571450248       24.8973806768        9.2882128508  WZ3       2805            0.0000000000
     17448      5816  TIP3      H2             15.7206550248       25.7439606768        8.0405928508  WZ3       2805            0.0000000000
     17449      5817  TIP3      OH2             4.1085950248       27.4920806768       11.0247628508  WZ3       2806            0.0000000000
     17450      5817  TIP3      H1              4.7622550248       26.9422506768       11.4567728508  WZ3       2806            0.0000000000
     17451      5817  TIP3      H2              4.1325250248       27.2179806768       10.1079628508  WZ3       2806            0.0000000000
     17452      5818  TIP3      OH2             9.2650450248       29.0422106768       10.2399128508  WZ3       2807            0.0000000000
     17453      5818  TIP3      H1              9.8811450248       28.5157506768       10.7493128508  WZ3       2807            0.0000000000
     17454      5818  TIP3      H2              8.6789250248       28.4020806768        9.8362728508  WZ3       2807            0.0000000000
     17455      5819  TIP3      OH2            20.2473550248       25.6790706768       15.7592628508  WZ3       2808            0.0000000000
     17456      5819  TIP3      H1             19.5588150248       26.3371406768       15.6639228508  WZ3       2808            0.0000000000
     17457      5819  TIP3      H2             20.2628150248       25.4818606768       16.6958028508  WZ3       2808            0.0000000000
     17458      5820  TIP3      OH2             6.2986350248       24.0133406768       14.3367028508  WZ3       2809            0.0000000000
     17459      5820  TIP3      H1              6.0798050248       24.5434006768       13.5703028508  WZ3       2809            0.0000000000
     17460      5820  TIP3      H2              5.6307250248       24.2398906768       14.9838428508  WZ3       2809            0.0000000000
     17461      5821  TIP3      OH2             8.8677750248       31.6889106768       14.6240728508  WZ3       2811            0.0000000000
     17462      5821  TIP3      H1              8.1276850248       32.2870606768       14.7275928508  WZ3       2811            0.0000000000
     17463      5821  TIP3      H2              9.5817250248       32.2428706768       14.3084328508  WZ3       2811            0.0000000000
     17464      5822  TIP3      OH2            16.9745550248       24.5169906768       10.6440428508  WZ3       2812            0.0000000000
     17465      5822  TIP3      H1             16.7593550248       23.7513306768       11.1766428508  WZ3       2812            0.0000000000
     17466      5822  TIP3      H2             17.6302950248       24.9894506768       11.1568928508  WZ3       2812            0.0000000000
     17467      5823  TIP3      OH2             5.8923650248       25.9055206768       12.2889228508  WZ3       2813            0.0000000000
     17468      5823  TIP3      H1              6.5059950248       26.5382806768       12.6621628508  WZ3       2813            0.0000000000
     17469      5823  TIP3      H2              6.4044350248       25.4330206768       11.6326128508  WZ3       2813            0.0000000000
     17470      5824  TIP3      OH2            17.3219650248       23.2321206768       14.3233928508  WZ3       2817            0.0000000000
     17471      5824  TIP3      H1             16.5858850248       23.8428306768       14.2855228508  WZ3       2817            0.0000000000
     17472      5824  TIP3      H2             18.0053650248       23.6470206768       13.7970328508  WZ3       2817            0.0000000000
     17473      5825  TIP3      OH2            10.3251050248       21.3188506768       11.7891928508  WZ3       2818            0.0000000000
     17474      5825  TIP3      H1             10.2075250248       20.3704506768       11.7350228508  WZ3       2818            0.0000000000
     17475      5825  TIP3      H2              9.4701150248       21.6514606768       12.0623028508  WZ3       2818            0.0000000000
     17476      5826  TIP3      OH2            12.5915950248       30.1564106768        6.2897728508  WZ3       2821            0.0000000000
     17477      5826  TIP3      H1             11.8801450248       30.6913806768        5.9378228508  WZ3       2821            0.0000000000
     17478      5826  TIP3      H2             13.2825550248       30.2116206768        5.6296628508  WZ3       2821            0.0000000000
     17479      5827  TIP3      OH2            12.6455150248       28.6138406768        3.3282728508  WZ3       2822            0.0000000000
     17480      5827  TIP3      H1             13.3465050248       28.6365306768        3.9796728508  WZ3       2822            0.0000000000
     17481      5827  TIP3      H2             12.9478050248       27.9858106768        2.6722028508  WZ3       2822            0.0000000000
     17482      5828  TIP3      OH2            19.9609850248       29.5342606768       14.5832128508  WZ3       2823            0.0000000000
     17483      5828  TIP3      H1             19.3083950248       30.2288206768       14.6723028508  WZ3       2823            0.0000000000
     17484      5828  TIP3      H2             20.4260150248       29.7443506768       13.7733728508  WZ3       2823            0.0000000000
     17485      5829  TIP3      OH2            15.9973650248       30.3657406768        7.2413628508  WZ3       2824            0.0000000000
     17486      5829  TIP3      H1             15.2654650248       30.5941106768        7.8144228508  WZ3       2824            0.0000000000
     17487      5829  TIP3      H2             16.4445850248       29.6520106768        7.6961128508  WZ3       2824            0.0000000000
     17488      5830  TIP3      OH2            15.8947150248       28.5400006768       16.3090628508  WZ3       2825            0.0000000000
     17489      5830  TIP3      H1             15.9746250248       29.3034406768       16.8809128508  WZ3       2825            0.0000000000
     17490      5830  TIP3      H2             15.2934850248       28.8192406768       15.6185728508  WZ3       2825            0.0000000000
     17491      5831  TIP3      OH2             7.6427350248       30.9963606768        9.1238628508  WZ3       2826            0.0000000000
     17492      5831  TIP3      H1              7.3122550248       30.6257006768        8.3055628508  WZ3       2826            0.0000000000
     17493      5831  TIP3      H2              8.2311450248       30.3257606768        9.4706928508  WZ3       2826            0.0000000000
     17494      5832  TIP3      OH2             8.0092850248       29.7649206768       12.7573628508  WZ3       2828            0.0000000000
     17495      5832  TIP3      H1              8.5745350248       29.8863406768       11.9944828508  WZ3       2828            0.0000000000
     17496      5832  TIP3      H2              8.3281750248       30.4024206768       13.3962128508  WZ3       2828            0.0000000000
     17497      5833  TIP3      OH2            14.8683150248       29.5280306768        4.9264828508  WZ3       2831            0.0000000000
     17498      5833  TIP3      H1             15.4478650248       29.6780606768        5.6733728508  WZ3       2831            0.0000000000
     17499      5833  TIP3      H2             15.2823150248       29.9987706768        4.2031228508  WZ3       2831            0.0000000000
     17500      5834  TIP3      OH2             5.8093450248       30.3623006768       16.7031228508  WZ3       2832            0.0000000000
     17501      5834  TIP3      H1              5.8796650248       31.0129806768       17.4016228508  WZ3       2832            0.0000000000
     17502      5834  TIP3      H2              4.9185650248       30.4650506768       16.3682128508  WZ3       2832            0.0000000000
     17503      5835  TIP3      OH2            18.5671550248       21.2780706768        4.7394528508  WZ3       2833            0.0000000000
     17504      5835  TIP3      H1             17.6672250248       21.4169706768        5.0345128508  WZ3       2833            0.0000000000
     17505      5835  TIP3      H2             18.8189950248       22.1095306768        4.3376228508  WZ3       2833            0.0000000000
     17506      5836  TIP3      OH2             6.6330050248       30.0657906768        6.7131428508  WZ3       2834            0.0000000000
     17507      5836  TIP3      H1              6.3411350248       30.8339606768        6.2222728508  WZ3       2834            0.0000000000
     17508      5836  TIP3      H2              5.9585250248       29.4064106768        6.5502828508  WZ3       2834            0.0000000000
     17509      5837  TIP3      OH2             2.7260150248       32.4287106768       15.5281228508  WZ3       2836            0.0000000000
     17510      5837  TIP3      H1              2.2248550248       32.4006506768       14.7130928508  WZ3       2836            0.0000000000
     17511      5837  TIP3      H2              2.7313850248       31.5230306768       15.8378528508  WZ3       2836            0.0000000000
     17512      5838  TIP3      OH2            17.8261150248       27.3683106768       18.5747328508  WZ3       2839            0.0000000000
     17513      5838  TIP3      H1             17.4187950248       27.8488706768       17.8540628508  WZ3       2839            0.0000000000
     17514      5838  TIP3      H2             17.8666850248       26.4629106768       18.2668128508  WZ3       2839            0.0000000000
     17515      5839  TIP3      OH2             7.5938650248       22.2223006768       12.5668228508  WZ3       2841            0.0000000000
     17516      5839  TIP3      H1              6.7322350248       22.1351206768       12.1591128508  WZ3       2841            0.0000000000
     17517      5839  TIP3      H2              7.5714350248       23.0783106768       12.9945828508  WZ3       2841            0.0000000000
     17518      5840  TIP3      OH2            12.2566450248       21.9443406768       15.9415228508  WZ3       2842            0.0000000000
     17519      5840  TIP3      H1             12.6769550248       21.5290506768       16.6945828508  WZ3       2842            0.0000000000
     17520      5840  TIP3      H2             11.3236050248       21.7656706768       16.0587228508  WZ3       2842            0.0000000000
     17521      5841  TIP3      OH2            15.5831350248       25.6998606768       16.7949728508  WZ3       2843            0.0000000000
     17522      5841  TIP3      H1             15.0690850248       25.5740806768       17.5925728508  WZ3       2843            0.0000000000
     17523      5841  TIP3      H2             15.4276050248       26.6121706768       16.5505928508  WZ3       2843            0.0000000000
     17524      5842  TIP3      OH2            16.3456250248       30.5608606768        2.5562728508  WZ3       2844            0.0000000000
     17525      5842  TIP3      H1             16.3877050248       30.3382506768        1.6262728508  WZ3       2844            0.0000000000
     17526      5842  TIP3      H2             17.1948350248       30.9595706768        2.7462628508  WZ3       2844            0.0000000000
     17527      5843  TIP3      OH2            11.9183750248       24.4366806768        3.2266028508  WZ3       2845            0.0000000000
     17528      5843  TIP3      H1             11.6648550248       24.4558406768        4.1494128508  WZ3       2845            0.0000000000
     17529      5843  TIP3      H2             11.6615850248       23.5652206768        2.9252228508  WZ3       2845            0.0000000000
     17530      5844  TIP3      OH2             7.6848750248       27.1877506768       13.6618428508  WZ3       2846            0.0000000000
     17531      5844  TIP3      H1              7.0430850248       27.1474806768       14.3708528508  WZ3       2846            0.0000000000
     17532      5844  TIP3      H2              7.7220750248       28.1142206768       13.4241428508  WZ3       2846            0.0000000000
     17533      5845  TIP3      OH2             7.6817850248       27.4087606768        8.5738428508  WZ3       2847            0.0000000000
     17534      5845  TIP3      H1              6.7890750248       27.0683706768        8.5152228508  WZ3       2847            0.0000000000
     17535      5845  TIP3      H2              8.1324450248       27.0318506768        7.8181628508  WZ3       2847            0.0000000000
     17536      5846  TIP3      OH2            13.2173350248       27.8247906768        7.3909228508  WZ3       2848            0.0000000000
     17537      5846  TIP3      H1             12.8083650248       28.6396506768        7.0994028508  WZ3       2848            0.0000000000
     17538      5846  TIP3      H2             13.9379550248       27.6848006768        6.7766328508  WZ3       2848            0.0000000000
     17539      5847  TIP3      OH2            12.3194950248       28.0004306768       18.8789928508  WZ3       2849            0.0000000000
     17540      5847  TIP3      H1             11.7568750248       27.2955906768       19.1997728508  WZ3       2849            0.0000000000
     17541      5847  TIP3      H2             13.1458350248       27.8796206768       19.3467528508  WZ3       2849            0.0000000000
     17542      5848  TIP3      OH2            14.2221050248       27.2708306768       10.2048928508  WZ3       2850            0.0000000000
     17543      5848  TIP3      H1             14.0265550248       27.8765106768        9.4899528508  WZ3       2850            0.0000000000
     17544      5848  TIP3      H2             14.4033650248       26.4373506768        9.7705228508  WZ3       2850            0.0000000000
     17545      5849  TIP3      OH2             5.4349250248       27.5081006768       15.5290428508  WZ3       2851            0.0000000000
     17546      5849  TIP3      H1              5.3968650248       27.9082606768       16.3977528508  WZ3       2851            0.0000000000
     17547      5849  TIP3      H2              4.9440350248       26.6913406768       15.6193328508  WZ3       2851            0.0000000000
     17548      5850  TIP3      OH2             8.8006650248       24.8823306768        2.3276428508  WZ3       2852            0.0000000000
     17549      5850  TIP3      H1              8.3697350248       24.4373406768        3.0573828508  WZ3       2852            0.0000000000
     17550      5850  TIP3      H2              8.0825350248       25.2539606768        1.8153928508  WZ3       2852            0.0000000000
     17551      5851  TIP3      OH2             2.0430050248       24.6242806768        9.3795128508  WZ3       2853            0.0000000000
     17552      5851  TIP3      H1              2.6737750248       24.5954906768       10.0989028508  WZ3       2853            0.0000000000
     17553      5851  TIP3      H2              2.4924350248       24.1991506768        8.6491028508  WZ3       2853            0.0000000000
     17554      5852  TIP3      OH2             3.3172150248       25.3704806768        4.8035528508  WZ3       2854            0.0000000000
     17555      5852  TIP3      H1              3.7913850248       25.9614706768        4.2186428508  WZ3       2854            0.0000000000
     17556      5852  TIP3      H2              2.5998550248       25.9007706768        5.1505628508  WZ3       2854            0.0000000000
     17557      5853  TIP3      OH2            13.4860250248       28.9089606768       14.8761328508  WZ3       2855            0.0000000000
     17558      5853  TIP3      H1             13.8095050248       28.2779306768       14.2331828508  WZ3       2855            0.0000000000
     17559      5853  TIP3      H2             13.0459550248       28.3741806768       15.5368728508  WZ3       2855            0.0000000000
     17560      5854  TIP3      OH2            10.2633150248       24.8365106768        9.6602528508  WZ3       2856            0.0000000000
     17561      5854  TIP3      H1              9.3524250248       24.8931906768        9.9488528508  WZ3       2856            0.0000000000
     17562      5854  TIP3      H2             10.7686050248       24.7760606768       10.4709728508  WZ3       2856            0.0000000000
     17563      5855  TIP3      OH2             5.0916550248       26.4651406768        8.4870128508  WZ3       2857            0.0000000000
     17564      5855  TIP3      H1              4.2024550248       26.5646906768        8.1469728508  WZ3       2857            0.0000000000
     17565      5855  TIP3      H2              5.3881450248       25.6234406768        8.1408028508  WZ3       2857            0.0000000000
     17566      5856  TIP3      OH2             8.7448350248       26.4654006768        6.1434728508  WZ3       2858            0.0000000000
     17567      5856  TIP3      H1              9.6763850248       26.5944006768        6.3217828508  WZ3       2858            0.0000000000
     17568      5856  TIP3      H2              8.5298650248       27.1348306768        5.4939428508  WZ3       2858            0.0000000000
     17569      5857  TIP3      OH2            14.6685050248       24.0711406768       12.9244328508  WZ3       2859            0.0000000000
     17570      5857  TIP3      H1             13.9916650248       24.2024506768       13.5884028508  WZ3       2859            0.0000000000
     17571      5857  TIP3      H2             14.1829950248       23.9160906768       12.1142028508  WZ3       2859            0.0000000000
     17572      5858  TIP3      OH2             7.4188550248       27.6596206768        3.7100828508  WZ3       2860            0.0000000000
     17573      5858  TIP3      H1              6.8763650248       27.2800006768        3.0188428508  WZ3       2860            0.0000000000
     17574      5858  TIP3      H2              8.2523450248       27.8540906768        3.2814928508  WZ3       2860            0.0000000000
     17575      5859  TIP3      OH2             5.5539950248       32.2168106768       18.8092428508  WZ3       2861            0.0000000000
     17576      5859  TIP3      H1              6.2862350248       32.4714006768       19.3706928508  WZ3       2861            0.0000000000
     17577      5859  TIP3      H2              4.7738650248       32.4213506768       19.3247828508  WZ3       2861            0.0000000000
     17578      5860  TIP3      OH2            11.5832850248       27.6238106768       11.5472128508  WZ3       2862            0.0000000000
     17579      5860  TIP3      H1             12.1476250248       27.0774706768       11.0001728508  WZ3       2862            0.0000000000
     17580      5860  TIP3      H2             11.4356250248       27.1020006768       12.3359728508  WZ3       2862            0.0000000000
     17581      5861  TIP3      OH2             6.5852550248       23.7604206768        7.9656928508  WZ3       2863            0.0000000000
     17582      5861  TIP3      H1              6.2682050248       22.8579506768        7.9302328508  WZ3       2863            0.0000000000
     17583      5861  TIP3      H2              7.3666650248       23.7621606768        7.4128528508  WZ3       2863            0.0000000000
     17584      5862  TIP3      OH2            10.2098750248       26.0124206768       13.9612528508  WZ3       2864            0.0000000000
     17585      5862  TIP3      H1              9.3744050248       26.4663706768       14.0714928508  WZ3       2864            0.0000000000
     17586      5862  TIP3      H2             10.7339350248       26.2882706768       14.7132428508  WZ3       2864            0.0000000000
     17587      5863  TIP3      OH2            10.7541350248       32.2251906768        5.6458928508  WZ3       2865            0.0000000000
     17588      5863  TIP3      H1             10.0092350248       31.7177206768        5.3236828508  WZ3       2865            0.0000000000
     17589      5863  TIP3      H2             10.6198550248       32.2739906768        6.5923728508  WZ3       2865            0.0000000000
     17590      5864  TIP3      OH2            17.9040250248       31.3580106768       14.4326528508  WZ3       2866            0.0000000000
     17591      5864  TIP3      H1             18.5459050248       31.8146406768       13.8888728508  WZ3       2866            0.0000000000
     17592      5864  TIP3      H2             17.0737150248       31.4712506768       13.9700628508  WZ3       2866            0.0000000000
     17593      5865  TIP3      OH2            14.6518150248       25.0391806768        3.8451528508  WZ3       2867            0.0000000000
     17594      5865  TIP3      H1             13.7132350248       25.1507406768        3.6940328508  WZ3       2867            0.0000000000
     17595      5865  TIP3      H2             14.9490250248       25.8958706768        4.1517228508  WZ3       2867            0.0000000000
     17596      5866  TIP3      OH2            15.3701650248       26.9064506768        5.5058928508  WZ3       2869            0.0000000000
     17597      5866  TIP3      H1             16.2620650248       26.7689506768        5.8250128508  WZ3       2869            0.0000000000
     17598      5866  TIP3      H2             15.4265250248       27.6970606768        4.9692428508  WZ3       2869            0.0000000000
     17599      5867  TIP3      OH2             5.8789650248       31.5201906768       11.4156828508  WZ3       2870            0.0000000000
     17600      5867  TIP3      H1              6.6236850248       31.5177606768       10.8143328508  WZ3       2870            0.0000000000
     17601      5867  TIP3      H2              5.9566250248       30.6965706768       11.8971928508  WZ3       2870            0.0000000000
     17602      5868  TIP3      OH2             2.8869350248       29.9808806768       16.7305328508  WZ3       2872            0.0000000000
     17603      5868  TIP3      H1              3.1097950248       29.5628406768       17.5622828508  WZ3       2872            0.0000000000
     17604      5868  TIP3      H2              2.2849450248       29.3683806768       16.3078128508  WZ3       2872            0.0000000000
     17605      5869  TIP3      OH2             9.9034250248       29.4978706768       18.9435028508  WZ3       2873            0.0000000000
     17606      5869  TIP3      H1              9.6075050248       29.3321706768       18.0484128508  WZ3       2873            0.0000000000
     17607      5869  TIP3      H2             10.8349450248       29.2779006768       18.9328928508  WZ3       2873            0.0000000000
     17608      5870  TIP3      OH2            20.2550350248       27.1158606768        5.2005628508  WZ3       2875            0.0000000000
     17609      5870  TIP3      H1             19.7006650248       26.7196606768        4.5283128508  WZ3       2875            0.0000000000
     17610      5870  TIP3      H2             20.3553950248       28.0263806768        4.9228928508  WZ3       2875            0.0000000000
     17611      5871  TIP3      OH2            15.7105950248       30.7098506768       12.6869628508  WZ3       2877            0.0000000000
     17612      5871  TIP3      H1             14.7822850248       30.4780406768       12.6598928508  WZ3       2877            0.0000000000
     17613      5871  TIP3      H2             16.1617050248       29.9328306768       12.3568428508  WZ3       2877            0.0000000000
     17614      5872  TIP3      OH2             4.0086750248       29.9004206768        3.4070728508  WZ3       2879            0.0000000000
     17615      5872  TIP3      H1              4.6246650248       30.5271406768        3.7865528508  WZ3       2879            0.0000000000
     17616      5872  TIP3      H2              3.1469350248       30.2164006768        3.6787228508  WZ3       2879            0.0000000000
     17617      5873  TIP3      OH2             4.5208850248       24.7341506768       16.2886728508  WZ3       2883            0.0000000000
     17618      5873  TIP3      H1              3.6281150248       25.0726906768       16.2210728508  WZ3       2883            0.0000000000
     17619      5873  TIP3      H2              4.4221650248       23.8787606768       16.7067528508  WZ3       2883            0.0000000000
     17620      5874  TIP3      OH2            16.8086950248       32.5506806768        5.7126228508  WZ3       2884            0.0000000000
     17621      5874  TIP3      H1             16.5314550248       31.8226106768        6.2687328508  WZ3       2884            0.0000000000
     17622      5874  TIP3      H2             17.7359950248       32.6698806768        5.9178828508  WZ3       2884            0.0000000000
     17623      5875  TIP3      OH2             5.4237150248       31.8128006768        4.8996328508  WZ3       2887            0.0000000000
     17624      5875  TIP3      H1              4.7376450248       32.1650506768        5.4666028508  WZ3       2887            0.0000000000
     17625      5875  TIP3      H2              5.9465050248       32.5757606768        4.6530628508  WZ3       2887            0.0000000000
     17626      5876  TIP3      OH2            13.2552250248       24.4751806768       15.1785328508  WZ3       2888            0.0000000000
     17627      5876  TIP3      H1             13.9540150248       24.5490506768       15.8285028508  WZ3       2888            0.0000000000
     17628      5876  TIP3      H2             12.8743650248       23.6106806768       15.3328228508  WZ3       2888            0.0000000000
     17629      5877  TIP3      OH2            14.0397150248       24.1273506768        6.2757628508  WZ3       2889            0.0000000000
     17630      5877  TIP3      H1             14.2595450248       24.5988906768        5.4723028508  WZ3       2889            0.0000000000
     17631      5877  TIP3      H2             14.5981150248       24.5216106768        6.9458228508  WZ3       2889            0.0000000000
     17632      5878  TIP3      OH2            11.2397050248       25.8552306768        7.1106028508  WZ3       2890            0.0000000000
     17633      5878  TIP3      H1             12.0519650248       26.3595506768        7.1567728508  WZ3       2890            0.0000000000
     17634      5878  TIP3      H2             10.9950050248       25.7102006768        8.0245628508  WZ3       2890            0.0000000000
     17635      5879  TIP3      OH2            11.7753450248       26.8415006768       16.2952628508  WZ3       2891            0.0000000000
     17636      5879  TIP3      H1             11.8943750248       27.4150406768       17.0523028508  WZ3       2891            0.0000000000
     17637      5879  TIP3      H2             12.4308050248       26.1534406768       16.4100428508  WZ3       2891            0.0000000000
     17638      5880  TIP3      OH2            12.1233750248       22.9365306768        8.0487128508  WZ3       2892            0.0000000000
     17639      5880  TIP3      H1             11.7767250248       23.5535906768        8.6931428508  WZ3       2892            0.0000000000
     17640      5880  TIP3      H2             12.7820650248       23.4371006768        7.5672628508  WZ3       2892            0.0000000000
     17641      5881  TIP3      OH2             7.7810750248       23.9994706768        4.7359628508  WZ3       2893            0.0000000000
     17642      5881  TIP3      H1              7.6975550248       24.8877806768        5.0826028508  WZ3       2893            0.0000000000
     17643      5881  TIP3      H2              8.6711050248       23.7341406768        4.9676428508  WZ3       2893            0.0000000000
     17644      5882  TIP3      OH2            17.9799250248       24.7485306768       17.1302328508  WZ3       2894            0.0000000000
     17645      5882  TIP3      H1             17.0635050248       25.0107006768       17.0426028508  WZ3       2894            0.0000000000
     17646      5882  TIP3      H2             18.3154250248       24.7454306768       16.2337628508  WZ3       2894            0.0000000000
     17647      5883  TIP3      OH2            16.5820250248       28.4986306768       11.2259628508  WZ3       2895            0.0000000000
     17648      5883  TIP3      H1             15.7844650248       28.0836506768       10.8974628508  WZ3       2895            0.0000000000
     17649      5883  TIP3      H2             17.0271350248       27.8080006768       11.7170128508  WZ3       2895            0.0000000000
     17650      5884  TIP3      OH2             4.3555250248       27.0909906768        2.9123528508  WZ3       2897            0.0000000000
     17651      5884  TIP3      H1              4.3107850248       28.0303006768        3.0910528508  WZ3       2897            0.0000000000
     17652      5884  TIP3      H2              3.4678450248       26.8554806768        2.6425628508  WZ3       2897            0.0000000000
     17653      5885  TIP3      OH2             5.1637250248       21.8726506768       11.5854528508  WZ3       2898            0.0000000000
     17654      5885  TIP3      H1              4.9347050248       21.9319006768       10.6579528508  WZ3       2898            0.0000000000
     17655      5885  TIP3      H2              4.7210650248       21.0812006768       11.8918628508  WZ3       2898            0.0000000000
     17656      5886  TIP3      OH2             3.2893750248       32.2361406768       20.0302628508  WZ3       2901            0.0000000000
     17657      5886  TIP3      H1              3.4334250248       31.3342106768       19.7439328508  WZ3       2901            0.0000000000
     17658      5886  TIP3      H2              2.5171150248       32.5223506768       19.5424928508  WZ3       2901            0.0000000000
     17659      5887  TIP3      OH2             7.6307450248       32.5797106768        2.1627228508  WZ3       2902            0.0000000000
     17660      5887  TIP3      H1              7.6951550248       31.7856706768        2.6933628508  WZ3       2902            0.0000000000
     17661      5887  TIP3      H2              8.2836650248       32.4609906768        1.4729228508  WZ3       2902            0.0000000000
     17662      5888  TIP3      OH2             9.9449850248       32.2059506768       19.4629028508  WZ3       2903            0.0000000000
     17663      5888  TIP3      H1              9.6163650248       32.4767606768       18.6056428508  WZ3       2903            0.0000000000
     17664      5888  TIP3      H2             10.0968050248       31.2649306768       19.3754028508  WZ3       2903            0.0000000000
     17665      5889  TIP3      OH2            15.6795050248       32.1216806768       16.8461328508  WZ3       2905            0.0000000000
     17666      5889  TIP3      H1             16.4249850248       32.7100506768       16.7265328508  WZ3       2905            0.0000000000
     17667      5889  TIP3      H2             14.9221850248       32.7036506768       16.9094428508  WZ3       2905            0.0000000000
     17668      5890  TIP3      OH2             4.1220250248       29.4364706768       19.4501928508  WZ3       2906            0.0000000000
     17669      5890  TIP3      H1              4.5301450248       28.5791306768       19.3292528508  WZ3       2906            0.0000000000
     17670      5890  TIP3      H2              3.8617850248       29.4506006768       20.3712228508  WZ3       2906            0.0000000000
     17671      5891  TIP3      OH2             8.7801250248       30.5523306768        4.4685228508  WZ3       2907            0.0000000000
     17672      5891  TIP3      H1              8.3203250248       30.0681606768        5.1543728508  WZ3       2907            0.0000000000
     17673      5891  TIP3      H2              9.0349950248       29.8838706768        3.8325728508  WZ3       2907            0.0000000000
     17674      5892  TIP3      OH2             8.0690550248       28.4450406768       16.8244828508  WZ3       2908            0.0000000000
     17675      5892  TIP3      H1              7.4506650248       29.1197006768       17.1049528508  WZ3       2908            0.0000000000
     17676      5892  TIP3      H2              8.4131750248       28.7664306768       15.9911028508  WZ3       2908            0.0000000000
     17677      5893  TIP3      OH2             9.8511650248       28.7955106768        2.7308428508  WZ3       2909            0.0000000000
     17678      5893  TIP3      H1              9.6706650248       28.6406306768        1.8036728508  WZ3       2909            0.0000000000
     17679      5893  TIP3      H2             10.8012150248       28.9033806768        2.7756328508  WZ3       2909            0.0000000000
     17680      5894  TIP3      OH2            19.2409950248       31.1499306768        2.1766528508  WZ3       2911            0.0000000000
     17681      5894  TIP3      H1             18.9674750248       30.7254806768        1.3634828508  WZ3       2911            0.0000000000
     17682      5894  TIP3      H2             19.2804050248       32.0813806768        1.9596928508  WZ3       2911            0.0000000000
     17683      5895  TIP3      OH2             8.4084250248       25.8001206768       17.9067928508  WZ3       2912            0.0000000000
     17684      5895  TIP3      H1              8.5585150248       25.0712506768       17.3047628508  WZ3       2912            0.0000000000
     17685      5895  TIP3      H2              8.4106650248       26.5772906768       17.3480128508  WZ3       2912            0.0000000000
     17686      5896  TIP3      OH2             8.8209950248       24.1697006768       15.3995328508  WZ3       2913            0.0000000000
     17687      5896  TIP3      H1              9.3567450248       24.6213706768       14.7474628508  WZ3       2913            0.0000000000
     17688      5896  TIP3      H2              7.9689550248       24.0616806768       14.9769428508  WZ3       2913            0.0000000000
     17689      5897  TIP3      OH2            10.4028350248       29.6093206768       15.6390528508  WZ3       2914            0.0000000000
     17690      5897  TIP3      H1             11.1533150248       29.4530706768       15.0658328508  WZ3       2914            0.0000000000
     17691      5897  TIP3      H2             10.0636650248       30.4609806768       15.3636028508  WZ3       2914            0.0000000000
     17692      5898  TIP3      OH2             6.8870550248       26.9984706768       19.8183528508  WZ3       2917            0.0000000000
     17693      5898  TIP3      H1              6.1199550248       26.4659506768       19.6081128508  WZ3       2917            0.0000000000
     17694      5898  TIP3      H2              7.5659550248       26.6885106768       19.2189828508  WZ3       2917            0.0000000000
     17695      5899  TIP3      OH2             9.6265450248       21.6262706768       15.8308928508  WZ3       2918            0.0000000000
     17696      5899  TIP3      H1              9.5285050248       22.5725906768       15.7255128508  WZ3       2918            0.0000000000
     17697      5899  TIP3      H2              8.8841650248       21.2536506768       15.3552428508  WZ3       2918            0.0000000000
     17698      5900  TIP3      OH2            10.8905950248       25.9478106768       19.3947328508  WZ3       2919            0.0000000000
     17699      5900  TIP3      H1             10.6551350248       25.7284806768       20.2962228508  WZ3       2919            0.0000000000
     17700      5900  TIP3      H2             10.1072850248       25.7409306768       18.8849828508  WZ3       2919            0.0000000000
     17701      5901  TIP3      OH2            13.6062550248       25.0751606768       18.4700828508  WZ3       2920            0.0000000000
     17702      5901  TIP3      H1             12.6587950248       25.1071306768       18.6024128508  WZ3       2920            0.0000000000
     17703      5901  TIP3      H2             13.9189250248       24.4498706768       19.1239028508  WZ3       2920            0.0000000000
     17704      5902  TIP3      OH2            15.2404050248       23.7092706768       20.4752728508  WZ3       2921            0.0000000000
     17705      5902  TIP3      H1             15.1435850248       22.7570006768       20.4694628508  WZ3       2921            0.0000000000
     17706      5902  TIP3      H2             14.9187150248       23.9779506768       21.3358228508  WZ3       2921            0.0000000000
     17707      5903  TIP3      OH2             5.0673350248       24.9188506768       19.5228228508  WZ3       2922            0.0000000000
     17708      5903  TIP3      H1              5.2790750248       24.2124606768       18.9125728508  WZ3       2922            0.0000000000
     17709      5903  TIP3      H2              4.9560850248       24.4814506768       20.3669428508  WZ3       2922            0.0000000000
     17710      5904  TIP3      OH2             9.8483550248       20.9200106768       18.5021728508  WZ3       2923            0.0000000000
     17711      5904  TIP3      H1             10.5601950248       20.2802306768       18.4880828508  WZ3       2923            0.0000000000
     17712      5904  TIP3      H2              9.7473950248       21.1868406768       17.5884828508  WZ3       2923            0.0000000000
     17713      5905  TIP3      OH2            10.2021050248       22.6028506768       20.5558028508  WZ3       2924            0.0000000000
     17714      5905  TIP3      H1             10.0703250248       22.1272306768       19.7356528508  WZ3       2924            0.0000000000
     17715      5905  TIP3      H2              9.6028450248       23.3472106768       20.5005128508  WZ3       2924            0.0000000000
     17716      5906  TIP3      OH2            19.6992750248       32.0187406768        6.1516928508  WZ3       2927            0.0000000000
     17717      5906  TIP3      H1             20.5494150248       32.4398306768        6.2788528508  WZ3       2927            0.0000000000
     17718      5906  TIP3      H2             19.7047850248       31.2787506768        6.7588328508  WZ3       2927            0.0000000000
     17719      5907  TIP3      OH2            20.0938350248       30.0724806768        7.9752628508  WZ3       2928            0.0000000000
     17720      5907  TIP3      H1             19.3672950248       29.5927406768        8.3730228508  WZ3       2928            0.0000000000
     17721      5907  TIP3      H2             20.6751650248       30.2779506768        8.7074228508  WZ3       2928            0.0000000000
     17722      5908  TIP3      OH2            20.3621450248       29.9733306768        4.3663928508  WZ3       2931            0.0000000000
     17723      5908  TIP3      H1             19.8402550248       30.3297406768        3.6474828508  WZ3       2931            0.0000000000
     17724      5908  TIP3      H2             20.3290650248       30.6481106768        5.0444828508  WZ3       2931            0.0000000000
     17725      5909  TIP3      OH2            18.7110450248       27.2128906768        2.9171028508  WZ3       2932            0.0000000000
     17726      5909  TIP3      H1             18.8074850248       27.8795906768        2.2370728508  WZ3       2932            0.0000000000
     17727      5909  TIP3      H2             18.5710050248       26.3975206768        2.4356528508  WZ3       2932            0.0000000000
     17728      5910  TIP3      OH2            17.8805150248       28.5931306768        8.5381328508  WZ3       2933            0.0000000000
     17729      5910  TIP3      H1             17.7303950248       27.6479906768        8.5179128508  WZ3       2933            0.0000000000
     17730      5910  TIP3      H2             17.5269650248       28.8742706768        9.3820428508  WZ3       2933            0.0000000000
     17731      5911  TIP3      OH2             2.9157550248       30.6713506768       12.5485128508  WZ3       2934            0.0000000000
     17732      5911  TIP3      H1              3.1000450248       30.5895206768       11.6128028508  WZ3       2934            0.0000000000
     17733      5911  TIP3      H2              3.7650450248       30.5470506768       12.9721528508  WZ3       2934            0.0000000000
     17734      5912  TIP3      OH2            17.9584250248       24.6208706768        2.0346528508  WZ3       2937            0.0000000000
     17735      5912  TIP3      H1             18.5690050248       24.2495506768        2.6714728508  WZ3       2937            0.0000000000
     17736      5912  TIP3      H2             17.1215750248       24.1995606768        2.2306528508  WZ3       2937            0.0000000000
     17737      5913  TIP3      OH2            17.5909950248       26.1757106768        7.0006428508  WZ3       2938            0.0000000000
     17738      5913  TIP3      H1             17.8707050248       25.2687506768        7.1248128508  WZ3       2938            0.0000000000
     17739      5913  TIP3      H2             18.3501650248       26.6098606768        6.6115628508  WZ3       2938            0.0000000000
     17740      5914  TIP3      OH2            18.2028250248       26.7574506768       12.4365328508  WZ3       2939            0.0000000000
     17741      5914  TIP3      H1             19.1356250248       26.9694406768       12.4021328508  WZ3       2939            0.0000000000
     17742      5914  TIP3      H2             17.9675750248       26.8586606768       13.3588328508  WZ3       2939            0.0000000000
     17743      5915  TIP3      OH2            18.2320150248       27.4939806768       15.2124728508  WZ3       2940            0.0000000000
     17744      5915  TIP3      H1             17.3891450248       27.7620206768       15.5784528508  WZ3       2940            0.0000000000
     17745      5915  TIP3      H2             18.6744450248       28.3161706768       15.0015828508  WZ3       2940            0.0000000000
     17746      5916  TIP3      OH2             2.5132350248       25.9418506768       18.6893928508  WZ3       2941            0.0000000000
     17747      5916  TIP3      H1              3.4327250248       25.8196806768       18.9257028508  WZ3       2941            0.0000000000
     17748      5916  TIP3      H2              2.0636850248       25.1918206768       19.0787428508  WZ3       2941            0.0000000000
     17749      5917  TIP3      OH2            18.2044750248       23.4386406768        7.0488428508  WZ3       2943            0.0000000000
     17750      5917  TIP3      H1             18.3869750248       22.9897906768        7.8743428508  WZ3       2943            0.0000000000
     17751      5917  TIP3      H2             17.6047650248       22.8540806768        6.5853028508  WZ3       2943            0.0000000000
     17752      5918  TIP3      OH2             3.7344850248       24.2540106768       11.5806828508  WZ3       2944            0.0000000000
     17753      5918  TIP3      H1              4.1796450248       23.4622606768       11.8826528508  WZ3       2944            0.0000000000
     17754      5918  TIP3      H2              4.2007850248       24.9705306768       12.0112428508  WZ3       2944            0.0000000000
     17755      5919  TIP3      OH2             2.0385150248       27.2533106768       12.6497028508  WZ3       2945            0.0000000000
     17756      5919  TIP3      H1              2.5304950248       27.0323606768       11.8589028508  WZ3       2945            0.0000000000
     17757      5919  TIP3      H2              2.4006050248       28.0936506768       12.9306528508  WZ3       2945            0.0000000000
     17758      5920  TIP3      OH2            20.0348950248       23.5834606768       18.9151028508  WZ3       2946            0.0000000000
     17759      5920  TIP3      H1             19.1174650248       23.8541706768       18.8794528508  WZ3       2946            0.0000000000
     17760      5920  TIP3      H2             20.1578350248       23.0483006768       18.1310728508  WZ3       2946            0.0000000000
     17761      5921  TIP3      OH2            20.0710950248       23.5064506768        3.5768728508  WZ3       2947            0.0000000000
     17762      5921  TIP3      H1             20.4833550248       22.7850206768        3.1016728508  WZ3       2947            0.0000000000
     17763      5921  TIP3      H2             20.7527450248       24.1759106768        3.6353028508  WZ3       2947            0.0000000000
     17764      5922  TIP3      OH2             2.3521650248       23.5112206768        6.7039428508  WZ3       2948            0.0000000000
     17765      5922  TIP3      H1              1.4270050248       23.7198806768        6.5744928508  WZ3       2948            0.0000000000
     17766      5922  TIP3      H2              2.8061550248       23.9953006768        6.0141728508  WZ3       2948            0.0000000000
     17767      5923  TIP3      OH2             2.3157050248       22.2491206768       15.0481928508  WZ3       2949            0.0000000000
     17768      5923  TIP3      H1              1.6507550248       22.0031506768       15.6912828508  WZ3       2949            0.0000000000
     17769      5923  TIP3      H2              1.8728350248       22.8711606768       14.4709928508  WZ3       2949            0.0000000000
     17770      5924  TIP3      OH2            19.0354850248       21.6730906768       16.7341828508  WZ3       2951            0.0000000000
     17771      5924  TIP3      H1             18.2228350248       21.9981206768       16.3466528508  WZ3       2951            0.0000000000
     17772      5924  TIP3      H2             19.2683350248       20.9129406768       16.2010928508  WZ3       2951            0.0000000000
     17773      5925  TIP3      OH2            12.4653350248       23.1221506768       11.0570028508  WZ3       2952            0.0000000000
     17774      5925  TIP3      H1             11.7910150248       22.4927106768       11.3125828508  WZ3       2952            0.0000000000
     17775      5925  TIP3      H2             13.0292550248       22.6380406768       10.4537928508  WZ3       2952            0.0000000000
     17776      5926  TIP3      OH2            17.6080550248       21.2295506768       11.1697128508  WZ3       2953            0.0000000000
     17777      5926  TIP3      H1             18.2118150248       21.7770906768       10.6678128508  WZ3       2953            0.0000000000
     17778      5926  TIP3      H2             16.7382550248       21.5485906768       10.9291228508  WZ3       2953            0.0000000000
     17779      5927  TIP3      OH2            19.3350950248       22.3684206768        9.5028028508  WZ3       2954            0.0000000000
     17780      5927  TIP3      H1             19.9468450248       21.8539906768        8.9761628508  WZ3       2954            0.0000000000
     17781      5927  TIP3      H2             19.7174350248       23.2456306768        9.5262428508  WZ3       2954            0.0000000000
     17782      5928  TIP3      OH2             4.7920850248       21.7561806768        8.8789928508  WZ3       2955            0.0000000000
     17783      5928  TIP3      H1              4.0150650248       21.5216706768        8.3715828508  WZ3       2955            0.0000000000
     17784      5928  TIP3      H2              5.3224450248       20.9593906768        8.8877928508  WZ3       2955            0.0000000000
     17785      5929  TIP3      OH2             3.6284250248       21.5539906768        4.6826028508  WZ3       2956            0.0000000000
     17786      5929  TIP3      H1              4.0674950248       22.1650406768        4.0909528508  WZ3       2956            0.0000000000
     17787      5929  TIP3      H2              2.9946650248       22.0924006768        5.1566028508  WZ3       2956            0.0000000000
     17788      5930  TIP3      OH2             9.3713450248       21.6828906768        8.6923028508  WZ3       2957            0.0000000000
     17789      5930  TIP3      H1             10.2456850248       22.0713206768        8.6627328508  WZ3       2957            0.0000000000
     17790      5930  TIP3      H2              9.2354250248       21.4676706768        9.6150228508  WZ3       2957            0.0000000000
     17791      5931  TIP3      OH2            14.9281850248       21.7128706768       10.3414728508  WZ3       2958            0.0000000000
     17792      5931  TIP3      H1             15.0043450248       21.8080306768        9.3920728508  WZ3       2958            0.0000000000
     17793      5931  TIP3      H2             14.6531050248       20.8051606768       10.4703828508  WZ3       2958            0.0000000000
     17794      5932  TIP3      OH2            16.2814450248       21.7386506768        6.0339728508  WZ3       2959            0.0000000000
     17795      5932  TIP3      H1             15.5785550248       22.3535706768        5.8241128508  WZ3       2959            0.0000000000
     17796      5932  TIP3      H2             15.8365850248       20.9013206768        6.1650628508  WZ3       2959            0.0000000000
     17797      5933  TIP3      OH2             5.4893350248       23.4701406768        3.1250128508  WZ3       2960            0.0000000000
     17798      5933  TIP3      H1              5.9806750248       22.8403806768        2.5975628508  WZ3       2960            0.0000000000
     17799      5933  TIP3      H2              6.1129650248       23.7660806768        3.7881328508  WZ3       2960            0.0000000000
     17800      5934  TIP3      OH2            10.5153450248       23.7632906768        5.5820628508  WZ3       2961            0.0000000000
     17801      5934  TIP3      H1             10.6934750248       23.1166106768        6.2649228508  WZ3       2961            0.0000000000
     17802      5934  TIP3      H2             10.4619650248       24.5970606768        6.0491728508  WZ3       2961            0.0000000000
     17803      5935  TIP3      OH2             4.7498850248       22.2703706768       18.3966128508  WZ3       2962            0.0000000000
     17804      5935  TIP3      H1              4.3837050248       21.5046306768       18.8390828508  WZ3       2962            0.0000000000
     17805      5935  TIP3      H2              5.6627350248       22.2993906768       18.6831228508  WZ3       2962            0.0000000000
     17806      5936  TIP3      OH2             6.7229650248       21.6208106768       19.9323228508  WZ3       2963            0.0000000000
     17807      5936  TIP3      H1              7.6213250248       21.3468306768       19.7476628508  WZ3       2963            0.0000000000
     17808      5936  TIP3      H2              6.3362750248       20.8784106768       20.3965828508  WZ3       2963            0.0000000000
     17809      5937  TIP3      OH2            15.1441950248       20.9533406768       20.1146028508  WZ3       2964            0.0000000000
     17810      5937  TIP3      H1             15.2209150248       20.5274106768       20.9683728508  WZ3       2964            0.0000000000
     17811      5937  TIP3      H2             16.0378550248       20.9668106768       19.7719528508  WZ3       2964            0.0000000000
     17812      5938  TIP3      OH2            21.5613350248       27.8918406768        7.7773428508  WZ3       2970            0.0000000000
     17813      5938  TIP3      H1             21.1136750248       28.7377106768        7.7589928508  WZ3       2970            0.0000000000
     17814      5938  TIP3      H2             21.0004550248       27.3122606768        7.2618528508  WZ3       2970            0.0000000000
     17815      5939  TIP3      OH2            22.2719450248       30.0538006768        9.9031428508  WZ3       2971            0.0000000000
     17816      5939  TIP3      H1             22.4852950248       29.2839606768       10.4304428508  WZ3       2971            0.0000000000
     17817      5939  TIP3      H2             23.0097050248       30.1434706768        9.2999028508  WZ3       2971            0.0000000000
     17818      5940  TIP3      OH2            26.3444450248       25.0955006768       10.2626228508  WZ3       2974            0.0000000000
     17819      5940  TIP3      H1             26.3875550248       25.9553506768        9.8442528508  WZ3       2974            0.0000000000
     17820      5940  TIP3      H2             25.8868550248       24.5429706768        9.6289428508  WZ3       2974            0.0000000000
     17821      5941  TIP3      OH2            22.9645950248       27.4920806768       11.0247628508  WZ3       2976            0.0000000000
     17822      5941  TIP3      H1             23.6182550248       26.9422506768       11.4567728508  WZ3       2976            0.0000000000
     17823      5941  TIP3      H2             22.9885250248       27.2179806768       10.1079628508  WZ3       2976            0.0000000000
     17824      5942  TIP3      OH2            25.1546350248       24.0133406768       14.3367028508  WZ3       2978            0.0000000000
     17825      5942  TIP3      H1             24.9358050248       24.5434006768       13.5703028508  WZ3       2978            0.0000000000
     17826      5942  TIP3      H2             24.4867250248       24.2398906768       14.9838428508  WZ3       2978            0.0000000000
     17827      5943  TIP3      OH2            24.7483650248       25.9055206768       12.2889228508  WZ3       2981            0.0000000000
     17828      5943  TIP3      H1             25.3619950248       26.5382806768       12.6621628508  WZ3       2981            0.0000000000
     17829      5943  TIP3      H2             25.2604350248       25.4330206768       11.6326128508  WZ3       2981            0.0000000000
     17830      5944  TIP3      OH2            29.1811050248       21.3188506768       11.7891928508  WZ3       2984            0.0000000000
     17831      5944  TIP3      H1             29.0635250248       20.3704506768       11.7350228508  WZ3       2984            0.0000000000
     17832      5944  TIP3      H2             28.3261150248       21.6514606768       12.0623028508  WZ3       2984            0.0000000000
     17833      5945  TIP3      OH2            26.4498650248       22.2223006768       12.5668228508  WZ3       3002            0.0000000000
     17834      5945  TIP3      H1             25.5882350248       22.1351206768       12.1591128508  WZ3       3002            0.0000000000
     17835      5945  TIP3      H2             26.4274350248       23.0783106768       12.9945828508  WZ3       3002            0.0000000000
     17836      5946  TIP3      OH2            26.5377850248       27.4087606768        8.5738428508  WZ3       3008            0.0000000000
     17837      5946  TIP3      H1             25.6450750248       27.0683706768        8.5152228508  WZ3       3008            0.0000000000
     17838      5946  TIP3      H2             26.9884450248       27.0318506768        7.8181628508  WZ3       3008            0.0000000000
     17839      5947  TIP3      OH2            27.6566650248       24.8823306768        2.3276428508  WZ3       3013            0.0000000000
     17840      5947  TIP3      H1             27.2257350248       24.4373406768        3.0573828508  WZ3       3013            0.0000000000
     17841      5947  TIP3      H2             26.9385350248       25.2539606768        1.8153928508  WZ3       3013            0.0000000000
     17842      5948  TIP3      OH2            20.8990050248       24.6242806768        9.3795128508  WZ3       3014            0.0000000000
     17843      5948  TIP3      H1             21.5297750248       24.5954906768       10.0989028508  WZ3       3014            0.0000000000
     17844      5948  TIP3      H2             21.3484350248       24.1991506768        8.6491028508  WZ3       3014            0.0000000000
     17845      5949  TIP3      OH2            22.1732150248       25.3704806768        4.8035528508  WZ3       3015            0.0000000000
     17846      5949  TIP3      H1             22.6473850248       25.9614706768        4.2186428508  WZ3       3015            0.0000000000
     17847      5949  TIP3      H2             21.4558550248       25.9007706768        5.1505628508  WZ3       3015            0.0000000000
     17848      5950  TIP3      OH2            23.9476550248       26.4651406768        8.4870128508  WZ3       3018            0.0000000000
     17849      5950  TIP3      H1             23.0584550248       26.5646906768        8.1469728508  WZ3       3018            0.0000000000
     17850      5950  TIP3      H2             24.2441450248       25.6234406768        8.1408028508  WZ3       3018            0.0000000000
     17851      5951  TIP3      OH2            26.2748550248       27.6596206768        3.7100828508  WZ3       3021            0.0000000000
     17852      5951  TIP3      H1             25.7323650248       27.2800006768        3.0188428508  WZ3       3021            0.0000000000
     17853      5951  TIP3      H2             27.1083450248       27.8540906768        3.2814928508  WZ3       3021            0.0000000000
     17854      5952  TIP3      OH2            25.4412550248       23.7604206768        7.9656928508  WZ3       3024            0.0000000000
     17855      5952  TIP3      H1             25.1242050248       22.8579506768        7.9302328508  WZ3       3024            0.0000000000
     17856      5952  TIP3      H2             26.2226650248       23.7621606768        7.4128528508  WZ3       3024            0.0000000000
     17857      5953  TIP3      OH2            22.8646750248       29.9004206768        3.4070728508  WZ3       3037            0.0000000000
     17858      5953  TIP3      H1             23.4806650248       30.5271406768        3.7865528508  WZ3       3037            0.0000000000
     17859      5953  TIP3      H2             22.0029350248       30.2164006768        3.6787228508  WZ3       3037            0.0000000000
     17860      5954  TIP3      OH2            23.3768850248       24.7341506768       16.2886728508  WZ3       3041            0.0000000000
     17861      5954  TIP3      H1             22.4841150248       25.0726906768       16.2210728508  WZ3       3041            0.0000000000
     17862      5954  TIP3      H2             23.2781650248       23.8787606768       16.7067528508  WZ3       3041            0.0000000000
     17863      5955  TIP3      OH2            26.6370750248       23.9994706768        4.7359628508  WZ3       3051            0.0000000000
     17864      5955  TIP3      H1             26.5535550248       24.8877806768        5.0826028508  WZ3       3051            0.0000000000
     17865      5955  TIP3      H2             27.5271050248       23.7341406768        4.9676428508  WZ3       3051            0.0000000000
     17866      5956  TIP3      OH2            23.2115250248       27.0909906768        2.9123528508  WZ3       3054            0.0000000000
     17867      5956  TIP3      H1             23.1667850248       28.0303006768        3.0910528508  WZ3       3054            0.0000000000
     17868      5956  TIP3      H2             22.3238450248       26.8554806768        2.6425628508  WZ3       3054            0.0000000000
     17869      5957  TIP3      OH2            24.0197250248       21.8726506768       11.5854528508  WZ3       3055            0.0000000000
     17870      5957  TIP3      H1             23.7907050248       21.9319006768       10.6579528508  WZ3       3055            0.0000000000
     17871      5957  TIP3      H2             23.5770650248       21.0812006768       11.8918628508  WZ3       3055            0.0000000000
     17872      5958  TIP3      OH2            21.7717550248       30.6713506768       12.5485128508  WZ3       3082            0.0000000000
     17873      5958  TIP3      H1             21.9560450248       30.5895206768       11.6128028508  WZ3       3082            0.0000000000
     17874      5958  TIP3      H2             22.6210450248       30.5470506768       12.9721528508  WZ3       3082            0.0000000000
     17875      5959  TIP3      OH2            22.5904850248       24.2540106768       11.5806828508  WZ3       3084            0.0000000000
     17876      5959  TIP3      H1             23.0356450248       23.4622606768       11.8826528508  WZ3       3084            0.0000000000
     17877      5959  TIP3      H2             23.0567850248       24.9705306768       12.0112428508  WZ3       3084            0.0000000000
     17878      5960  TIP3      OH2            20.8945150248       27.2533106768       12.6497028508  WZ3       3085            0.0000000000
     17879      5960  TIP3      H1             21.3864950248       27.0323606768       11.8589028508  WZ3       3085            0.0000000000
     17880      5960  TIP3      H2             21.2566050248       28.0936506768       12.9306528508  WZ3       3085            0.0000000000
     17881      5961  TIP3      OH2            21.2081650248       23.5112206768        6.7039428508  WZ3       3086            0.0000000000
     17882      5961  TIP3      H1             20.2830050248       23.7198806768        6.5744928508  WZ3       3086            0.0000000000
     17883      5961  TIP3      H2             21.6621550248       23.9953006768        6.0141728508  WZ3       3086            0.0000000000
     17884      5962  TIP3      OH2            21.1717050248       22.2491206768       15.0481928508  WZ3       3087            0.0000000000
     17885      5962  TIP3      H1             20.5067550248       22.0031506768       15.6912828508  WZ3       3087            0.0000000000
     17886      5962  TIP3      H2             20.7288350248       22.8711606768       14.4709928508  WZ3       3087            0.0000000000
     17887      5963  TIP3      OH2            23.6480850248       21.7561806768        8.8789928508  WZ3       3090            0.0000000000
     17888      5963  TIP3      H1             22.8710650248       21.5216706768        8.3715828508  WZ3       3090            0.0000000000
     17889      5963  TIP3      H2             24.1784450248       20.9593906768        8.8877928508  WZ3       3090            0.0000000000
     17890      5964  TIP3      OH2            22.4844250248       21.5539906768        4.6826028508  WZ3       3091            0.0000000000
     17891      5964  TIP3      H1             22.9234950248       22.1650406768        4.0909528508  WZ3       3091            0.0000000000
     17892      5964  TIP3      H2             21.8506650248       22.0924006768        5.1566028508  WZ3       3091            0.0000000000
     17893      5965  TIP3      OH2            28.2273450248       21.6828906768        8.6923028508  WZ3       3092            0.0000000000
     17894      5965  TIP3      H1             29.1016850248       22.0713206768        8.6627328508  WZ3       3092            0.0000000000
     17895      5965  TIP3      H2             28.0914250248       21.4676706768        9.6150228508  WZ3       3092            0.0000000000
     17896      5966  TIP3      OH2            24.3453350248       23.4701406768        3.1250128508  WZ3       3095            0.0000000000
     17897      5966  TIP3      H1             24.8366750248       22.8403806768        2.5975628508  WZ3       3095            0.0000000000
     17898      5966  TIP3      H2             24.9689650248       23.7660806768        3.7881328508  WZ3       3095            0.0000000000
     17899      5967  TIP3      OH2            -5.1883849752      -23.0545493232       26.7366128508  WZ4       234             0.0000000000
     17900      5967  TIP3      H1             -5.4838749752      -23.3773193232       25.8853028508  WZ4       234             0.0000000000
     17901      5967  TIP3      H2             -5.5126049752      -22.1548793232       26.7778728508  WZ4       234             0.0000000000
     17902      5968  TIP3      OH2            -3.5826149752      -19.8410593232       28.3871628508  WZ4       243             0.0000000000
     17903      5968  TIP3      H1             -3.1573849752      -20.5482693232       27.9021228508  WZ4       243             0.0000000000
     17904      5968  TIP3      H2             -3.2656149752      -19.0397893232       27.9703828508  WZ4       243             0.0000000000
     17905      5969  TIP3      OH2            -2.4229649752      -21.9402093232       26.8958228508  WZ4       244             0.0000000000
     17906      5969  TIP3      H1             -2.6804849752      -22.6301993232       26.2844128508  WZ4       244             0.0000000000
     17907      5969  TIP3      H2             -2.3518849752      -22.3830893232       27.7414128508  WZ4       244             0.0000000000
     17908      5970  TIP3      OH2            -6.2644049752      -26.4115893232       25.1457728508  WZ4       246             0.0000000000
     17909      5970  TIP3      H1             -6.9758549752      -25.8766193232       24.7938228508  WZ4       246             0.0000000000
     17910      5970  TIP3      H2             -5.5734449752      -26.3563793232       24.4856628508  WZ4       246             0.0000000000
     17911      5971  TIP3      OH2            -6.2104849752      -27.9541593232       22.1842728508  WZ4       247             0.0000000000
     17912      5971  TIP3      H1             -5.5094949752      -27.9314693232       22.8356728508  WZ4       247             0.0000000000
     17913      5971  TIP3      H2             -5.9081949752      -28.5821893232       21.5282028508  WZ4       247             0.0000000000
     17914      5972  TIP3      OH2            -2.8586349752      -26.2022593232       26.0973628508  WZ4       249             0.0000000000
     17915      5972  TIP3      H1             -3.5905349752      -25.9738893232       26.6704228508  WZ4       249             0.0000000000
     17916      5972  TIP3      H2             -2.4114149752      -26.9159893232       26.5521128508  WZ4       249             0.0000000000
     17917      5973  TIP3      OH2            -3.9876849752      -27.0399693232       23.7824828508  WZ4       256             0.0000000000
     17918      5973  TIP3      H1             -3.4081349752      -26.8899393232       24.5293728508  WZ4       256             0.0000000000
     17919      5973  TIP3      H2             -3.5736849752      -26.5692293232       23.0591228508  WZ4       256             0.0000000000
     17920      5974  TIP3      OH2            -6.2611949752      -20.3031193232       27.2177928508  WZ4       258             0.0000000000
     17921      5974  TIP3      H1             -5.7874349752      -20.0074893232       27.9952128508  WZ4       258             0.0000000000
     17922      5974  TIP3      H2             -6.8242649752      -19.5649593232       26.9847528508  WZ4       258             0.0000000000
     17923      5975  TIP3      OH2             0.9002950248      -20.9236893232       21.9718428508  WZ4       262             0.0000000000
     17924      5975  TIP3      H1              0.9736450248      -19.9846693232       22.1423728508  WZ4       262             0.0000000000
     17925      5975  TIP3      H2              1.8058050248      -21.2288293232       21.9155728508  WZ4       262             0.0000000000
     17926      5976  TIP3      OH2            -6.7888849752      -17.3466493232       25.6327128508  WZ4       267             0.0000000000
     17927      5976  TIP3      H1             -6.8642849752      -17.4679293232       24.6862328508  WZ4       267             0.0000000000
     17928      5976  TIP3      H2             -6.7560149752      -16.3973793232       25.7511728508  WZ4       267             0.0000000000
     17929      5977  TIP3      OH2            -3.6872849752      -18.1926293232       22.6349528508  WZ4       269             0.0000000000
     17930      5977  TIP3      H1             -3.3124449752      -18.9370193232       22.1642128508  WZ4       269             0.0000000000
     17931      5977  TIP3      H2             -3.6829149752      -18.4625693232       23.5532828508  WZ4       269             0.0000000000
     17932      5978  TIP3      OH2            -4.0184749752      -18.2669193232       25.3841728508  WZ4       270             0.0000000000
     17933      5978  TIP3      H1             -4.9534949752      -18.1667293232       25.5628728508  WZ4       270             0.0000000000
     17934      5978  TIP3      H2             -3.7382849752      -18.9763193232       25.9624928508  WZ4       270             0.0000000000
     17935      5979  TIP3      OH2            -2.5103749752      -26.0071393232       21.4122728508  WZ4       276             0.0000000000
     17936      5979  TIP3      H1             -2.4682949752      -26.2297493232       20.4822728508  WZ4       276             0.0000000000
     17937      5979  TIP3      H2             -1.6611649752      -25.6084293232       21.6022628508  WZ4       276             0.0000000000
     17938      5980  TIP3      OH2            -8.1018649752      -24.3428093232       24.5018928508  WZ4       298             0.0000000000
     17939      5980  TIP3      H1             -8.8467649752      -24.8502793232       24.1796828508  WZ4       298             0.0000000000
     17940      5980  TIP3      H2             -8.2361449752      -24.2940093232       25.4483728508  WZ4       298             0.0000000000
     17941      5981  TIP3      OH2            -4.2041849752      -31.5288193232       22.7011528508  WZ4       300             0.0000000000
     17942      5981  TIP3      H1             -5.1427649752      -31.4172593232       22.5500328508  WZ4       300             0.0000000000
     17943      5981  TIP3      H2             -3.9069749752      -30.6721293232       23.0077228508  WZ4       300             0.0000000000
     17944      5982  TIP3      OH2            -3.4858349752      -29.6615493232       24.3618928508  WZ4       302             0.0000000000
     17945      5982  TIP3      H1             -2.5939349752      -29.7990493232       24.6810128508  WZ4       302             0.0000000000
     17946      5982  TIP3      H2             -3.4294749752      -28.8709393232       23.8252428508  WZ4       302             0.0000000000
     17947      5983  TIP3      OH2            -5.9764549752      -22.8843793232       23.5273528508  WZ4       304             0.0000000000
     17948      5983  TIP3      H1             -6.2716149752      -22.0575893232       23.9088328508  WZ4       304             0.0000000000
     17949      5983  TIP3      H2             -6.6794549752      -23.5036893232       23.7234928508  WZ4       304             0.0000000000
     17950      5984  TIP3      OH2             1.3990350248      -29.4521393232       24.0565628508  WZ4       308             0.0000000000
     17951      5984  TIP3      H1              0.8446650248      -29.8483393232       23.3843128508  WZ4       308             0.0000000000
     17952      5984  TIP3      H2              1.4993950248      -28.5416193232       23.7788928508  WZ4       308             0.0000000000
     17953      5985  TIP3      OH2            -0.3057949752      -20.6660993232       24.5217728508  WZ4       310             0.0000000000
     17954      5985  TIP3      H1             -0.6786849752      -21.4917193232       24.8308328508  WZ4       310             0.0000000000
     17955      5985  TIP3      H2             -0.0284449752      -20.8491593232       23.6241128508  WZ4       310             0.0000000000
     17956      5986  TIP3      OH2            -2.9132349752      -22.6895193232       22.3418328508  WZ4       318             0.0000000000
     17957      5986  TIP3      H1             -2.5599249752      -23.0695393232       23.1461828508  WZ4       318             0.0000000000
     17958      5986  TIP3      H2             -3.8618849752      -22.7830393232       22.4287628508  WZ4       318             0.0000000000
     17959      5987  TIP3      OH2             1.5902050248      -18.2102693232       22.5428528508  WZ4       320             0.0000000000
     17960      5987  TIP3      H1              2.3339950248      -17.6242193232       22.4030128508  WZ4       320             0.0000000000
     17961      5987  TIP3      H2              0.8960150248      -17.6416893232       22.8760928508  WZ4       320             0.0000000000
     17962      5988  TIP3      OH2            -2.0473049752      -24.0173193232       24.5686228508  WZ4       322             0.0000000000
     17963      5988  TIP3      H1             -2.3245449752      -24.7453893232       25.1247328508  WZ4       322             0.0000000000
     17964      5988  TIP3      H2             -1.1200049752      -23.8981193232       24.7738828508  WZ4       322             0.0000000000
     17965      5989  TIP3      OH2            -8.8224549752      -21.5779093232       20.7888328508  WZ4       324             0.0000000000
     17966      5989  TIP3      H1             -8.5834749752      -22.3260993232       20.2417228508  WZ4       324             0.0000000000
     17967      5989  TIP3      H2             -9.0913249752      -21.9657393232       21.6216128508  WZ4       324             0.0000000000
     17968      5990  TIP3      OH2            -9.8853949752      -22.0075293232       23.2450928508  WZ4       325             0.0000000000
     17969      5990  TIP3      H1             -9.7385949752      -22.5275493232       24.0351828508  WZ4       325             0.0000000000
     17970      5990  TIP3      H2             -9.8882249752      -21.1007693232       23.5516828508  WZ4       325             0.0000000000
     17971      5991  TIP3      OH2            -7.1476749752      -20.3101693232       23.9945128508  WZ4       329             0.0000000000
     17972      5991  TIP3      H1             -7.9640649752      -19.8131993232       24.0469428508  WZ4       329             0.0000000000
     17973      5991  TIP3      H2             -6.6180449752      -19.8348193232       23.3543928508  WZ4       329             0.0000000000
     17974      5992  TIP3      OH2            -9.8093649752      -19.2664493232       23.9762028508  WZ4       333             0.0000000000
     17975      5992  TIP3      H1             -9.6484949752      -18.4666993232       23.4754628508  WZ4       333             0.0000000000
     17976      5992  TIP3      H2            -10.0065849752      -18.9598493232       24.8612628508  WZ4       333             0.0000000000
     17977      5993  TIP3      OH2           -12.8163949752      -22.1413093232       22.6524128508  WZ4       337             0.0000000000
     17978      5993  TIP3      H1            -12.2242449752      -21.4418293232       22.9286528508  WZ4       337             0.0000000000
     17979      5993  TIP3      H2            -12.3570949752      -22.5743593232       21.9328728508  WZ4       337             0.0000000000
     17980      5994  TIP3      OH2            -1.1875149752      -18.8131193232       31.7043128508  WZ4       339             0.0000000000
     17981      5994  TIP3      H1             -1.3430849752      -18.1346793232       31.0472428508  WZ4       339             0.0000000000
     17982      5994  TIP3      H2             -0.2548749752      -18.7411893232       31.9073728508  WZ4       339             0.0000000000
     17983      5995  TIP3      OH2            -6.7842749752      -19.7147693232       20.9274328508  WZ4       344             0.0000000000
     17984      5995  TIP3      H1             -7.4281749752      -20.3459093232       21.2488028508  WZ4       344             0.0000000000
     17985      5995  TIP3      H2             -6.0224449752      -20.2459693232       20.6957828508  WZ4       344             0.0000000000
     17986      5996  TIP3      OH2            -2.1799849752      -19.8977793232       21.1612328508  WZ4       346             0.0000000000
     17987      5996  TIP3      H1             -1.8969449752      -20.6922593232       21.6139228508  WZ4       346             0.0000000000
     17988      5996  TIP3      H2             -1.4401949752      -19.6646793232       20.6003428508  WZ4       346             0.0000000000
     17989      5997  TIP3      OH2           -11.2252549752      -23.9882893232       21.0187228508  WZ4       348             0.0000000000
     17990      5997  TIP3      H1            -11.1608449752      -24.7823293232       21.5493628508  WZ4       348             0.0000000000
     17991      5997  TIP3      H2            -10.5723349752      -24.1070093232       20.3289228508  WZ4       348             0.0000000000
     17992      5998  TIP3      OH2            -5.8729149752      -22.9411193232       20.7545228508  WZ4       350             0.0000000000
     17993      5998  TIP3      H1             -6.1415049752      -22.7609093232       21.6554128508  WZ4       350             0.0000000000
     17994      5998  TIP3      H2             -6.0793549752      -23.8664993232       20.6231028508  WZ4       350             0.0000000000
     17995      5999  TIP3      OH2            -9.0048349752      -27.7724893232       21.5868428508  WZ4       355             0.0000000000
     17996      5999  TIP3      H1             -9.1853349752      -27.9273693232       20.6596728508  WZ4       355             0.0000000000
     17997      5999  TIP3      H2             -8.0547849752      -27.6646193232       21.6316328508  WZ4       355             0.0000000000
     17998      6000  TIP3      OH2             0.3849950248      -25.4180693232       21.0326528508  WZ4       357             0.0000000000
     17999      6000  TIP3      H1              0.1114750248      -25.8425193232       20.2194828508  WZ4       357             0.0000000000
     18000      6000  TIP3      H2              0.4244050248      -24.4866193232       20.8156928508  WZ4       357             0.0000000000
     18001      6001  TIP3      OH2            -9.1076649752      -17.0821193232       22.5882028508  WZ4       371             0.0000000000
     18002      6001  TIP3      H1             -8.1745949752      -16.9242493232       22.7320428508  WZ4       371             0.0000000000
     18003      6001  TIP3      H2             -9.3717849752      -16.4068193232       21.9633528508  WZ4       371             0.0000000000
     18004      6002  TIP3      OH2             1.5282850248      -18.1625493232       31.9335028508  WZ4       375             0.0000000000
     18005      6002  TIP3      H1              1.5069550248      -17.9777093232       32.8724428508  WZ4       375             0.0000000000
     18006      6002  TIP3      H2              2.2189050248      -17.5941493232       31.5926428508  WZ4       375             0.0000000000
     18007      6003  TIP3      OH2             0.8432750248      -24.5492593232       25.0076928508  WZ4       378             0.0000000000
     18008      6003  TIP3      H1              1.6934150248      -24.1281693232       25.1348528508  WZ4       378             0.0000000000
     18009      6003  TIP3      H2              0.8487850248      -25.2892493232       25.6148328508  WZ4       378             0.0000000000
     18010      6004  TIP3      OH2             1.2378350248      -26.4955193232       26.8312628508  WZ4       379             0.0000000000
     18011      6004  TIP3      H1              0.5112950248      -26.9752593232       27.2290228508  WZ4       379             0.0000000000
     18012      6004  TIP3      H2              1.8191650248      -26.2900493232       27.5634228508  WZ4       379             0.0000000000
     18013      6005  TIP3      OH2             1.5061450248      -26.5946693232       23.2223928508  WZ4       382             0.0000000000
     18014      6005  TIP3      H1              0.9842550248      -26.2382593232       22.5034828508  WZ4       382             0.0000000000
     18015      6005  TIP3      H2              1.4730650248      -25.9198893232       23.9004828508  WZ4       382             0.0000000000
     18016      6006  TIP3      OH2            -0.1449549752      -29.3551093232       21.7731028508  WZ4       383             0.0000000000
     18017      6006  TIP3      H1             -0.0485149752      -28.6884093232       21.0930728508  WZ4       383             0.0000000000
     18018      6006  TIP3      H2             -0.2849949752      -30.1704793232       21.2916528508  WZ4       383             0.0000000000
     18019      6007  TIP3      OH2            -0.8975749752      -31.9471293232       20.8906528508  WZ4       388             0.0000000000
     18020      6007  TIP3      H1             -0.2869949752      -32.3184493232       21.5274728508  WZ4       388             0.0000000000
     18021      6007  TIP3      H2             -1.7344249752      -32.3684393232       21.0866528508  WZ4       388             0.0000000000
     18022      6008  TIP3      OH2            -1.2650049752      -30.3922893232       25.8566428508  WZ4       389             0.0000000000
     18023      6008  TIP3      H1             -0.9852949752      -31.2992493232       25.9808128508  WZ4       389             0.0000000000
     18024      6008  TIP3      H2             -0.5058349752      -29.9581393232       25.4675628508  WZ4       389             0.0000000000
     18025      6009  TIP3      OH2            -1.7331149752      -18.0726093232       27.5056828508  WZ4       400             0.0000000000
     18026      6009  TIP3      H1             -1.0808249752      -18.4203993232       26.8975928508  WZ4       400             0.0000000000
     18027      6009  TIP3      H2             -1.2227349752      -17.5842893232       28.1516528508  WZ4       400             0.0000000000
     18028      6010  TIP3      OH2            -6.4622749752      -17.8562993232       22.8337328508  WZ4       426             0.0000000000
     18029      6010  TIP3      H1             -5.5962549752      -17.4895593232       22.6555528508  WZ4       426             0.0000000000
     18030      6010  TIP3      H2             -6.7089949752      -18.2954993232       22.0198128508  WZ4       426             0.0000000000
     18031      6011  TIP3      OH2             0.2466850248      -18.2932693232       25.5128428508  WZ4       427             0.0000000000
     18032      6011  TIP3      H1              0.0523950248      -19.0410593232       24.9478028508  WZ4       427             0.0000000000
     18033      6011  TIP3      H2              0.2076950248      -17.5352593232       24.9296328508  WZ4       427             0.0000000000
     18034      6012  TIP3      OH2           -13.5085049752      -18.1457093232       21.4613228508  WZ4       430             0.0000000000
     18035      6012  TIP3      H1            -13.7760449752      -17.8594193232       22.3346328508  WZ4       430             0.0000000000
     18036      6012  TIP3      H2            -12.7372449752      -18.6917893232       21.6135728508  WZ4       430             0.0000000000
     18037      6013  TIP3      OH2             2.7053350248      -28.6761593232       26.6333428508  WZ4       438             0.0000000000
     18038      6013  TIP3      H1              2.2576750248      -27.8302893232       26.6149928508  WZ4       438             0.0000000000
     18039      6013  TIP3      H2              2.1444550248      -29.2557393232       26.1178528508  WZ4       438             0.0000000000
     18040      6014  TIP3      OH2             3.4159450248      -26.5141993232       28.7591428508  WZ4       439             0.0000000000
     18041      6014  TIP3      H1              3.6292950248      -27.2840393232       29.2864428508  WZ4       439             0.0000000000
     18042      6014  TIP3      H2              4.1537050248      -26.4245293232       28.1559028508  WZ4       439             0.0000000000
     18043      6015  TIP3      OH2            13.6676150248      -23.0545493232       26.7366128508  WZ4       450             0.0000000000
     18044      6015  TIP3      H1             13.3721250248      -23.3773193232       25.8853028508  WZ4       450             0.0000000000
     18045      6015  TIP3      H2             13.3433950248      -22.1548793232       26.7778728508  WZ4       450             0.0000000000
     18046      6016  TIP3      OH2             3.3962950248      -23.2439993232       25.0491528508  WZ4       455             0.0000000000
     18047      6016  TIP3      H1              3.1243850248      -23.0148993232       24.1604428508  WZ4       455             0.0000000000
     18048      6016  TIP3      H2              3.4418650248      -22.4061193232       25.5096828508  WZ4       455             0.0000000000
     18049      6017  TIP3      OH2            12.6455150248      -27.9541593232       22.1842728508  WZ4       463             0.0000000000
     18050      6017  TIP3      H1             13.3465050248      -27.9314693232       22.8356728508  WZ4       463             0.0000000000
     18051      6017  TIP3      H2             12.9478050248      -28.5821893232       21.5282028508  WZ4       463             0.0000000000
     18052      6018  TIP3      OH2            12.5948050248      -20.3031193232       27.2177928508  WZ4       474             0.0000000000
     18053      6018  TIP3      H1             13.0685650248      -20.0074893232       27.9952128508  WZ4       474             0.0000000000
     18054      6018  TIP3      H2             12.0317350248      -19.5649593232       26.9847528508  WZ4       474             0.0000000000
     18055      6019  TIP3      OH2             6.6330050248      -26.5022093232       25.5691428508  WZ4       477             0.0000000000
     18056      6019  TIP3      H1              6.3411350248      -25.7340393232       25.0782728508  WZ4       477             0.0000000000
     18057      6019  TIP3      H2              5.9585250248      -27.1615893232       25.4062828508  WZ4       477             0.0000000000
     18058      6020  TIP3      OH2            19.7562950248      -20.9236893232       21.9718428508  WZ4       478             0.0000000000
     18059      6020  TIP3      H1             19.8296450248      -19.9846693232       22.1423728508  WZ4       478             0.0000000000
     18060      6020  TIP3      H2             20.6618050248      -21.2288293232       21.9155728508  WZ4       478             0.0000000000
     18061      6021  TIP3      OH2             2.4762850248      -21.3589093232       31.2681428508  WZ4       480             0.0000000000
     18062      6021  TIP3      H1              3.4223450248      -21.5032093232       31.2490928508  WZ4       480             0.0000000000
     18063      6021  TIP3      H2              2.3639150248      -20.5746293232       31.8052628508  WZ4       480             0.0000000000
     18064      6022  TIP3      OH2            12.0671150248      -17.3466493232       25.6327128508  WZ4       483             0.0000000000
     18065      6022  TIP3      H1             11.9917150248      -17.4679293232       24.6862328508  WZ4       483             0.0000000000
     18066      6022  TIP3      H2             12.0999850248      -16.3973793232       25.7511728508  WZ4       483             0.0000000000
     18067      6023  TIP3      OH2             5.7204950248      -18.5579493232       27.4136128508  WZ4       484             0.0000000000
     18068      6023  TIP3      H1              5.8725350248      -18.9059093232       28.2922628508  WZ4       484             0.0000000000
     18069      6023  TIP3      H2              4.8695350248      -18.9142193232       27.1583328508  WZ4       484             0.0000000000
     18070      6024  TIP3      OH2            15.1687150248      -18.1926293232       22.6349528508  WZ4       485             0.0000000000
     18071      6024  TIP3      H1             15.5435550248      -18.9370193232       22.1642128508  WZ4       485             0.0000000000
     18072      6024  TIP3      H2             15.1730850248      -18.4625693232       23.5532828508  WZ4       485             0.0000000000
     18073      6025  TIP3      OH2            14.8375250248      -18.2669193232       25.3841728508  WZ4       486             0.0000000000
     18074      6025  TIP3      H1             13.9025050248      -18.1667293232       25.5628728508  WZ4       486             0.0000000000
     18075      6025  TIP3      H2             15.1177150248      -18.9763193232       25.9624928508  WZ4       486             0.0000000000
     18076      6026  TIP3      OH2            16.3456250248      -26.0071393232       21.4122728508  WZ4       492             0.0000000000
     18077      6026  TIP3      H1             16.3877050248      -26.2297493232       20.4822728508  WZ4       492             0.0000000000
     18078      6026  TIP3      H2             17.1948350248      -25.6084293232       21.6022628508  WZ4       492             0.0000000000
     18079      6027  TIP3      OH2             8.8006650248      -31.6856693232       21.1836428508  WZ4       500             0.0000000000
     18080      6027  TIP3      H1              8.3697350248      -32.1306593232       21.9133828508  WZ4       500             0.0000000000
     18081      6027  TIP3      H2              8.0825350248      -31.3140393232       20.6713928508  WZ4       500             0.0000000000
     18082      6028  TIP3      OH2             3.3172150248      -31.1975193232       23.6595528508  WZ4       502             0.0000000000
     18083      6028  TIP3      H1              3.7913850248      -30.6065293232       23.0746428508  WZ4       502             0.0000000000
     18084      6028  TIP3      H2              2.5998550248      -30.6672293232       24.0065628508  WZ4       502             0.0000000000
     18085      6029  TIP3      OH2             7.4188550248      -28.9083793232       22.5660828508  WZ4       508             0.0000000000
     18086      6029  TIP3      H1              6.8763650248      -29.2879993232       21.8748428508  WZ4       508             0.0000000000
     18087      6029  TIP3      H2              8.2523450248      -28.7139093232       22.1374928508  WZ4       508             0.0000000000
     18088      6030  TIP3      OH2            10.7541350248      -24.3428093232       24.5018928508  WZ4       514             0.0000000000
     18089      6030  TIP3      H1             10.0092350248      -24.8502793232       24.1796828508  WZ4       514             0.0000000000
     18090      6030  TIP3      H2             10.6198550248      -24.2940093232       25.4483728508  WZ4       514             0.0000000000
     18091      6031  TIP3      OH2            12.8795450248      -22.8843793232       23.5273528508  WZ4       520             0.0000000000
     18092      6031  TIP3      H1             12.5843850248      -22.0575893232       23.9088328508  WZ4       520             0.0000000000
     18093      6031  TIP3      H2             12.1765450248      -23.5036893232       23.7234928508  WZ4       520             0.0000000000
     18094      6032  TIP3      OH2            18.5502050248      -20.6660993232       24.5217728508  WZ4       526             0.0000000000
     18095      6032  TIP3      H1             18.1773150248      -21.4917193232       24.8308328508  WZ4       526             0.0000000000
     18096      6032  TIP3      H2             18.8275550248      -20.8491593232       23.6241128508  WZ4       526             0.0000000000
     18097      6033  TIP3      OH2             8.2539050248      -21.5299893232       27.6758328508  WZ4       528             0.0000000000
     18098      6033  TIP3      H1              8.7811250248      -20.7565493232       27.4757128508  WZ4       528             0.0000000000
     18099      6033  TIP3      H2              7.3737550248      -21.3050693232       27.3742328508  WZ4       528             0.0000000000
     18100      6034  TIP3      OH2             4.0086750248      -26.6675793232       22.2630728508  WZ4       529             0.0000000000
     18101      6034  TIP3      H1              4.6246650248      -26.0408593232       22.6425528508  WZ4       529             0.0000000000
     18102      6034  TIP3      H2              3.1469350248      -26.3515993232       22.5347228508  WZ4       529             0.0000000000
     18103      6035  TIP3      OH2             9.6811350248      -23.8669993232       27.2522628508  WZ4       530             0.0000000000
     18104      6035  TIP3      H1              9.4401350248      -22.9415593232       27.2937928508  WZ4       530             0.0000000000
     18105      6035  TIP3      H2              8.9404950248      -24.3258693232       27.6486528508  WZ4       530             0.0000000000
     18106      6036  TIP3      OH2             8.3642150248      -18.8452393232       26.7974828508  WZ4       532             0.0000000000
     18107      6036  TIP3      H1              7.4142650248      -18.7394993232       26.8488128508  WZ4       532             0.0000000000
     18108      6036  TIP3      H2              8.7160250248      -18.0244993232       27.1422328508  WZ4       532             0.0000000000
     18109      6037  TIP3      OH2            15.9427650248      -22.6895193232       22.3418328508  WZ4       534             0.0000000000
     18110      6037  TIP3      H1             16.2960750248      -23.0695393232       23.1461828508  WZ4       534             0.0000000000
     18111      6037  TIP3      H2             14.9941150248      -22.7830393232       22.4287628508  WZ4       534             0.0000000000
     18112      6038  TIP3      OH2            20.4462050248      -18.2102693232       22.5428528508  WZ4       536             0.0000000000
     18113      6038  TIP3      H1             21.1899950248      -17.6242193232       22.4030128508  WZ4       536             0.0000000000
     18114      6038  TIP3      H2             19.7520150248      -17.6416893232       22.8760928508  WZ4       536             0.0000000000
     18115      6039  TIP3      OH2             4.1720850248      -20.0294093232       33.5796128508  WZ4       539             0.0000000000
     18116      6039  TIP3      H1              4.3891150248      -20.9611693232       33.5485828508  WZ4       539             0.0000000000
     18117      6039  TIP3      H2              4.4184350248      -19.7549093232       34.4628928508  WZ4       539             0.0000000000
     18118      6040  TIP3      OH2            10.0335450248      -21.5779093232       20.7888328508  WZ4       540             0.0000000000
     18119      6040  TIP3      H1             10.2725250248      -22.3260993232       20.2417228508  WZ4       540             0.0000000000
     18120      6040  TIP3      H2              9.7646750248      -21.9657393232       21.6216128508  WZ4       540             0.0000000000
     18121      6041  TIP3      OH2             8.9706050248      -22.0075293232       23.2450928508  WZ4       541             0.0000000000
     18122      6041  TIP3      H1              9.1174050248      -22.5275493232       24.0351828508  WZ4       541             0.0000000000
     18123      6041  TIP3      H2              8.9677750248      -21.1007693232       23.5516828508  WZ4       541             0.0000000000
     18124      6042  TIP3      OH2             5.4237150248      -24.7551993232       23.7556328508  WZ4       542             0.0000000000
     18125      6042  TIP3      H1              4.7376450248      -24.4029493232       24.3226028508  WZ4       542             0.0000000000
     18126      6042  TIP3      H2              5.9465050248      -23.9922393232       23.5090628508  WZ4       542             0.0000000000
     18127      6043  TIP3      OH2            11.7083250248      -20.3101693232       23.9945128508  WZ4       545             0.0000000000
     18128      6043  TIP3      H1             10.8919350248      -19.8131993232       24.0469428508  WZ4       545             0.0000000000
     18129      6043  TIP3      H2             12.2379550248      -19.8348193232       23.3543928508  WZ4       545             0.0000000000
     18130      6044  TIP3      OH2             9.0466350248      -19.2664493232       23.9762028508  WZ4       549             0.0000000000
     18131      6044  TIP3      H1              9.2075050248      -18.4666993232       23.4754628508  WZ4       549             0.0000000000
     18132      6044  TIP3      H2              8.8494150248      -18.9598493232       24.8612628508  WZ4       549             0.0000000000
     18133      6045  TIP3      OH2             6.0396050248      -22.1413093232       22.6524128508  WZ4       553             0.0000000000
     18134      6045  TIP3      H1              6.6317550248      -21.4418293232       22.9286528508  WZ4       553             0.0000000000
     18135      6045  TIP3      H2              6.4989050248      -22.5743593232       21.9328728508  WZ4       553             0.0000000000
     18136      6046  TIP3      OH2             4.3555250248      -29.4770093232       21.7683528508  WZ4       554             0.0000000000
     18137      6046  TIP3      H1              4.3107850248      -28.5376993232       21.9470528508  WZ4       554             0.0000000000
     18138      6046  TIP3      H2              3.4678450248      -29.7125193232       21.4985628508  WZ4       554             0.0000000000
     18139      6047  TIP3      OH2             4.0940550248      -20.7546393232       26.6020328508  WZ4       557             0.0000000000
     18140      6047  TIP3      H1              3.2619150248      -20.2823693232       26.6291728508  WZ4       557             0.0000000000
     18141      6047  TIP3      H2              4.6398850248      -20.2448793232       26.0033428508  WZ4       557             0.0000000000
     18142      6048  TIP3      OH2            12.0717250248      -19.7147693232       20.9274328508  WZ4       560             0.0000000000
     18143      6048  TIP3      H1             11.4278250248      -20.3459093232       21.2488028508  WZ4       560             0.0000000000
     18144      6048  TIP3      H2             12.8335550248      -20.2459693232       20.6957828508  WZ4       560             0.0000000000
     18145      6049  TIP3      OH2            16.6760150248      -19.8977793232       21.1612328508  WZ4       562             0.0000000000
     18146      6049  TIP3      H1             16.9590550248      -20.6922593232       21.6139228508  WZ4       562             0.0000000000
     18147      6049  TIP3      H2             17.4158050248      -19.6646793232       20.6003428508  WZ4       562             0.0000000000
     18148      6050  TIP3      OH2             7.6307450248      -23.9882893232       21.0187228508  WZ4       564             0.0000000000
     18149      6050  TIP3      H1              7.6951550248      -24.7823293232       21.5493628508  WZ4       564             0.0000000000
     18150      6050  TIP3      H2              8.2836650248      -24.1070093232       20.3289228508  WZ4       564             0.0000000000
     18151      6051  TIP3      OH2            12.9830850248      -22.9411193232       20.7545228508  WZ4       566             0.0000000000
     18152      6051  TIP3      H1             12.7144950248      -22.7609093232       21.6554128508  WZ4       566             0.0000000000
     18153      6051  TIP3      H2             12.7766450248      -23.8664993232       20.6231028508  WZ4       566             0.0000000000
     18154      6052  TIP3      OH2             8.7801250248      -26.0156693232       23.3245228508  WZ4       569             0.0000000000
     18155      6052  TIP3      H1              8.3203250248      -26.4998393232       24.0103728508  WZ4       569             0.0000000000
     18156      6052  TIP3      H2              9.0349950248      -26.6841293232       22.6885728508  WZ4       569             0.0000000000
     18157      6053  TIP3      OH2             9.8511650248      -27.7724893232       21.5868428508  WZ4       571             0.0000000000
     18158      6053  TIP3      H1              9.6706650248      -27.9273693232       20.6596728508  WZ4       571             0.0000000000
     18159      6053  TIP3      H2             10.8012150248      -27.6646193232       21.6316328508  WZ4       571             0.0000000000
     18160      6054  TIP3      OH2            19.2409950248      -25.4180693232       21.0326528508  WZ4       573             0.0000000000
     18161      6054  TIP3      H1             18.9674750248      -25.8425193232       20.2194828508  WZ4       573             0.0000000000
     18162      6054  TIP3      H2             19.2804050248      -24.4866193232       20.8156928508  WZ4       573             0.0000000000
     18163      6055  TIP3      OH2             9.7483350248      -17.0821193232       22.5882028508  WZ4       587             0.0000000000
     18164      6055  TIP3      H1             10.6814050248      -16.9242493232       22.7320428508  WZ4       587             0.0000000000
     18165      6055  TIP3      H2              9.4842150248      -16.4068193232       21.9633528508  WZ4       587             0.0000000000
     18166      6056  TIP3      OH2             3.3168250248      -22.4457393232       22.0710128508  WZ4       588             0.0000000000
     18167      6056  TIP3      H1              4.2307450248      -22.3668493232       22.3444028508  WZ4       588             0.0000000000
     18168      6056  TIP3      H2              3.3241350248      -23.1327793232       21.4045728508  WZ4       588             0.0000000000
     18169      6057  TIP3      OH2             1.9658850248      -17.0528893232       27.1484028508  WZ4       589             0.0000000000
     18170      6057  TIP3      H1              1.3185950248      -17.5147193232       26.6155228508  WZ4       589             0.0000000000
     18171      6057  TIP3      H2              2.3203450248      -17.7245593232       27.7310228508  WZ4       589             0.0000000000
     18172      6058  TIP3      OH2             2.8358050248      -18.9721893232       28.9530228508  WZ4       590             0.0000000000
     18173      6058  TIP3      H1              2.5014850248      -19.8524593232       29.1250428508  WZ4       590             0.0000000000
     18174      6058  TIP3      H2              3.0580450248      -18.6266893232       29.8175828508  WZ4       590             0.0000000000
     18175      6059  TIP3      OH2            17.1228850248      -18.0726093232       27.5056828508  WZ4       616             0.0000000000
     18176      6059  TIP3      H1             17.7751750248      -18.4203993232       26.8975928508  WZ4       616             0.0000000000
     18177      6059  TIP3      H2             17.6332650248      -17.5842893232       28.1516528508  WZ4       616             0.0000000000
     18178      6060  TIP3      OH2             4.8635950248      -16.9129593232       34.3547028508  WZ4       623             0.0000000000
     18179      6060  TIP3      H1              4.1432350248      -16.4728593232       33.9034728508  WZ4       623             0.0000000000
     18180      6060  TIP3      H2              4.4979950248      -17.1634893232       35.2031028508  WZ4       623             0.0000000000
     18181      6061  TIP3      OH2             7.3308550248      -17.3125693232       33.3844228508  WZ4       624             0.0000000000
     18182      6061  TIP3      H1              6.4660750248      -17.2407193232       33.7884328508  WZ4       624             0.0000000000
     18183      6061  TIP3      H2              7.2757550248      -16.7658393232       32.6006728508  WZ4       624             0.0000000000
     18184      6062  TIP3      OH2             4.2784050248      -18.2897093232       31.2648828508  WZ4       628             0.0000000000
     18185      6062  TIP3      H1              4.2600050248      -18.7151993232       32.1221128508  WZ4       628             0.0000000000
     18186      6062  TIP3      H2              5.0831950248      -18.6082093232       30.8561028508  WZ4       628             0.0000000000
     18187      6063  TIP3      OH2             6.4197150248      -19.5798393232       29.9198728508  WZ4       629             0.0000000000
     18188      6063  TIP3      H1              6.2007850248      -20.4960993232       30.0894728508  WZ4       629             0.0000000000
     18189      6063  TIP3      H2              7.2439350248      -19.4397993232       30.3860128508  WZ4       629             0.0000000000
     18190      6064  TIP3      OH2             8.9569650248      -19.1099093232       30.7686728508  WZ4       630             0.0000000000
     18191      6064  TIP3      H1              9.1695350248      -19.9980093232       30.4817628508  WZ4       630             0.0000000000
     18192      6064  TIP3      H2              9.0214750248      -19.1441393232       31.7230728508  WZ4       630             0.0000000000
     18193      6065  TIP3      OH2             3.5293750248      -19.0657893232       24.4361128508  WZ4       639             0.0000000000
     18194      6065  TIP3      H1              2.8443650248      -19.1038993232       23.7686228508  WZ4       639             0.0000000000
     18195      6065  TIP3      H2              3.5330950248      -18.1530293232       24.7243228508  WZ4       639             0.0000000000
     18196      6066  TIP3      OH2            12.3937250248      -17.8562993232       22.8337328508  WZ4       642             0.0000000000
     18197      6066  TIP3      H1             13.2597450248      -17.4895593232       22.6555528508  WZ4       642             0.0000000000
     18198      6066  TIP3      H2             12.1470050248      -18.2954993232       22.0198128508  WZ4       642             0.0000000000
     18199      6067  TIP3      OH2            19.1026850248      -18.2932693232       25.5128428508  WZ4       643             0.0000000000
     18200      6067  TIP3      H1             18.9083950248      -19.0410593232       24.9478028508  WZ4       643             0.0000000000
     18201      6067  TIP3      H2             19.0636950248      -17.5352593232       24.9296328508  WZ4       643             0.0000000000
     18202      6068  TIP3      OH2             5.3474950248      -18.1457093232       21.4613228508  WZ4       646             0.0000000000
     18203      6068  TIP3      H1              5.0799550248      -17.8594193232       22.3346328508  WZ4       646             0.0000000000
     18204      6068  TIP3      H2              6.1187550248      -18.6917893232       21.6135728508  WZ4       646             0.0000000000
     18205      6069  TIP3      OH2            22.3853750248      -19.0657893232       24.4361128508  WZ4       810             0.0000000000
     18206      6069  TIP3      H1             21.7003650248      -19.1038993232       23.7686228508  WZ4       810             0.0000000000
     18207      6069  TIP3      H2             22.3890950248      -18.1530293232       24.7243228508  WZ4       810             0.0000000000
     18208      6070  TIP3      OH2            24.2034950248      -18.1457093232       21.4613228508  WZ4       816             0.0000000000
     18209      6070  TIP3      H1             23.9359550248      -17.8594193232       22.3346328508  WZ4       816             0.0000000000
     18210      6070  TIP3      H2             24.9747550248      -18.6917893232       21.6135728508  WZ4       816             0.0000000000
     18211      6071  TIP3      OH2           -17.9557049752       -2.0676893232       21.9718428508  WZ4       863             0.0000000000
     18212      6071  TIP3      H1            -17.8823549752       -1.1286693232       22.1423728508  WZ4       863             0.0000000000
     18213      6071  TIP3      H2            -17.0501949752       -2.3728293232       21.9155728508  WZ4       863             0.0000000000
     18214      6072  TIP3      OH2           -25.6448849752        1.5093506768       25.6327128508  WZ4       868             0.0000000000
     18215      6072  TIP3      H1            -25.7202849752        1.3880706768       24.6862328508  WZ4       868             0.0000000000
     18216      6072  TIP3      H2            -25.6120149752        2.4586206768       25.7511728508  WZ4       868             0.0000000000
     18217      6073  TIP3      OH2           -22.5432849752        0.6633706768       22.6349528508  WZ4       870             0.0000000000
     18218      6073  TIP3      H1            -22.1684449752       -0.0810193232       22.1642128508  WZ4       870             0.0000000000
     18219      6073  TIP3      H2            -22.5389149752        0.3934306768       23.5532828508  WZ4       870             0.0000000000
     18220      6074  TIP3      OH2           -22.8744749752        0.5890806768       25.3841728508  WZ4       871             0.0000000000
     18221      6074  TIP3      H1            -23.8094949752        0.6892706768       25.5628728508  WZ4       871             0.0000000000
     18222      6074  TIP3      H2            -22.5942849752       -0.1203193232       25.9624928508  WZ4       871             0.0000000000
     18223      6075  TIP3      OH2           -21.3663749752       -7.1511393232       21.4122728508  WZ4       877             0.0000000000
     18224      6075  TIP3      H1            -21.3242949752       -7.3737493232       20.4822728508  WZ4       877             0.0000000000
     18225      6075  TIP3      H2            -20.5171649752       -6.7524293232       21.6022628508  WZ4       877             0.0000000000
     18226      6076  TIP3      OH2           -17.4569649752      -10.5961393232       24.0565628508  WZ4       909             0.0000000000
     18227      6076  TIP3      H1            -18.0113349752      -10.9923393232       23.3843128508  WZ4       909             0.0000000000
     18228      6076  TIP3      H2            -17.3566049752       -9.6856193232       23.7788928508  WZ4       909             0.0000000000
     18229      6077  TIP3      OH2           -19.1617949752       -1.8100993232       24.5217728508  WZ4       911             0.0000000000
     18230      6077  TIP3      H1            -19.5346849752       -2.6357193232       24.8308328508  WZ4       911             0.0000000000
     18231      6077  TIP3      H2            -18.8844449752       -1.9931593232       23.6241128508  WZ4       911             0.0000000000
     18232      6078  TIP3      OH2           -21.7692349752       -3.8335193232       22.3418328508  WZ4       919             0.0000000000
     18233      6078  TIP3      H1            -21.4159249752       -4.2135393232       23.1461828508  WZ4       919             0.0000000000
     18234      6078  TIP3      H2            -22.7178849752       -3.9270393232       22.4287628508  WZ4       919             0.0000000000
     18235      6079  TIP3      OH2           -17.2657949752        0.6457306768       22.5428528508  WZ4       921             0.0000000000
     18236      6079  TIP3      H1            -16.5220049752        1.2317806768       22.4030128508  WZ4       921             0.0000000000
     18237      6079  TIP3      H2            -17.9599849752        1.2143106768       22.8760928508  WZ4       921             0.0000000000
     18238      6080  TIP3      OH2           -20.9033049752       -5.1613193232       24.5686228508  WZ4       923             0.0000000000
     18239      6080  TIP3      H1            -21.1805449752       -5.8893893232       25.1247328508  WZ4       923             0.0000000000
     18240      6080  TIP3      H2            -19.9760049752       -5.0421193232       24.7738828508  WZ4       923             0.0000000000
     18241      6081  TIP3      OH2           -27.6784549752       -2.7219093232       20.7888328508  WZ4       925             0.0000000000
     18242      6081  TIP3      H1            -27.4394749752       -3.4700993232       20.2417228508  WZ4       925             0.0000000000
     18243      6081  TIP3      H2            -27.9473249752       -3.1097393232       21.6216128508  WZ4       925             0.0000000000
     18244      6082  TIP3      OH2           -26.0036749752       -1.4541693232       23.9945128508  WZ4       930             0.0000000000
     18245      6082  TIP3      H1            -26.8200649752       -0.9571993232       24.0469428508  WZ4       930             0.0000000000
     18246      6082  TIP3      H2            -25.4740449752       -0.9788193232       23.3543928508  WZ4       930             0.0000000000
     18247      6083  TIP3      OH2           -25.6402749752       -0.8587693232       20.9274328508  WZ4       945             0.0000000000
     18248      6083  TIP3      H1            -26.2841749752       -1.4899093232       21.2488028508  WZ4       945             0.0000000000
     18249      6083  TIP3      H2            -24.8784449752       -1.3899693232       20.6957828508  WZ4       945             0.0000000000
     18250      6084  TIP3      OH2           -21.0359849752       -1.0417793232       21.1612328508  WZ4       947             0.0000000000
     18251      6084  TIP3      H1            -20.7529449752       -1.8362593232       21.6139228508  WZ4       947             0.0000000000
     18252      6084  TIP3      H2            -20.2961949752       -0.8086793232       20.6003428508  WZ4       947             0.0000000000
     18253      6085  TIP3      OH2           -24.7289149752       -4.0851193232       20.7545228508  WZ4       951             0.0000000000
     18254      6085  TIP3      H1            -24.9975049752       -3.9049093232       21.6554128508  WZ4       951             0.0000000000
     18255      6085  TIP3      H2            -24.9353549752       -5.0104993232       20.6231028508  WZ4       951             0.0000000000
     18256      6086  TIP3      OH2           -18.4710049752       -6.5620693232       21.0326528508  WZ4       958             0.0000000000
     18257      6086  TIP3      H1            -18.7445249752       -6.9865193232       20.2194828508  WZ4       958             0.0000000000
     18258      6086  TIP3      H2            -18.4315949752       -5.6306193232       20.8156928508  WZ4       958             0.0000000000
     18259      6087  TIP3      OH2           -27.9636649752        1.7738806768       22.5882028508  WZ4       972             0.0000000000
     18260      6087  TIP3      H1            -27.0305949752        1.9317506768       22.7320428508  WZ4       972             0.0000000000
     18261      6087  TIP3      H2            -28.2277849752        2.4491806768       21.9633528508  WZ4       972             0.0000000000
     18262      6088  TIP3      OH2           -18.0127249752       -5.6932593232       25.0076928508  WZ4       979             0.0000000000
     18263      6088  TIP3      H1            -17.1625849752       -5.2721693232       25.1348528508  WZ4       979             0.0000000000
     18264      6088  TIP3      H2            -18.0072149752       -6.4332493232       25.6148328508  WZ4       979             0.0000000000
     18265      6089  TIP3      OH2           -17.3498549752       -7.7386693232       23.2223928508  WZ4       983             0.0000000000
     18266      6089  TIP3      H1            -17.8717449752       -7.3822593232       22.5034828508  WZ4       983             0.0000000000
     18267      6089  TIP3      H2            -17.3829349752       -7.0638893232       23.9004828508  WZ4       983             0.0000000000
     18268      6090  TIP3      OH2           -19.0009549752      -10.4991093232       21.7731028508  WZ4       984             0.0000000000
     18269      6090  TIP3      H1            -18.9045149752       -9.8324093232       21.0930728508  WZ4       984             0.0000000000
     18270      6090  TIP3      H2            -19.1409949752      -11.3144793232       21.2916528508  WZ4       984             0.0000000000
     18271      6091  TIP3      OH2           -19.7535749752      -13.0911293232       20.8906528508  WZ4       989             0.0000000000
     18272      6091  TIP3      H1            -19.1429949752      -13.4624493232       21.5274728508  WZ4       989             0.0000000000
     18273      6091  TIP3      H2            -20.5904249752      -13.5124393232       21.0866528508  WZ4       989             0.0000000000
     18274      6092  TIP3      OH2           -17.6409049752      -14.2055493232       22.4328728508  WZ4       999             0.0000000000
     18275      6092  TIP3      H1            -17.2286449752      -14.9269793232       21.9576728508  WZ4       999             0.0000000000
     18276      6092  TIP3      H2            -16.9592549752      -13.5360893232       22.4913028508  WZ4       999             0.0000000000
     18277      6093  TIP3      OH2           -20.5891149752        0.7833906768       27.5056828508  WZ4       1001            0.0000000000
     18278      6093  TIP3      H1            -19.9368249752        0.4356006768       26.8975928508  WZ4       1001            0.0000000000
     18279      6093  TIP3      H2            -20.0787349752        1.2717106768       28.1516528508  WZ4       1001            0.0000000000
     18280      6094  TIP3      OH2           -25.3182749752        0.9997006768       22.8337328508  WZ4       1027            0.0000000000
     18281      6094  TIP3      H1            -24.4522549752        1.3664406768       22.6555528508  WZ4       1027            0.0000000000
     18282      6094  TIP3      H2            -25.5649949752        0.5605006768       22.0198128508  WZ4       1027            0.0000000000
     18283      6095  TIP3      OH2           -18.6093149752        0.5627306768       25.5128428508  WZ4       1028            0.0000000000
     18284      6095  TIP3      H1            -18.8036049752       -0.1850593232       24.9478028508  WZ4       1028            0.0000000000
     18285      6095  TIP3      H2            -18.6483049752        1.3207406768       24.9296328508  WZ4       1028            0.0000000000
     18286      6096  TIP3      OH2            -4.9856549752       -6.7995893232       27.6937428508  WZ4       1034            0.0000000000
     18287      6096  TIP3      H1             -4.8965449752       -5.8557693232       27.5614528508  WZ4       1034            0.0000000000
     18288      6096  TIP3      H2             -5.6238949752       -7.0749493232       27.0356828508  WZ4       1034            0.0000000000
     18289      6097  TIP3      OH2            -6.0525249752       -7.5445193232       31.1125628508  WZ4       1035            0.0000000000
     18290      6097  TIP3      H1             -6.0907749752       -8.1908893232       31.8175228508  WZ4       1035            0.0000000000
     18291      6097  TIP3      H2             -6.3748749752       -8.0110793232       30.3414328508  WZ4       1035            0.0000000000
     18292      6098  TIP3      OH2            -2.3465049752       -4.6054793232       29.4140728508  WZ4       1037            0.0000000000
     18293      6098  TIP3      H1             -2.7872349752       -5.3258793232       29.8646328508  WZ4       1037            0.0000000000
     18294      6098  TIP3      H2             -2.3595349752       -3.8847593232       30.0438428508  WZ4       1037            0.0000000000
     18295      6099  TIP3      OH2            -5.2349549752        0.4986906768       29.6261128508  WZ4       1041            0.0000000000
     18296      6099  TIP3      H1             -4.6153149752       -0.1778393232       29.3530328508  WZ4       1041            0.0000000000
     18297      6099  TIP3      H2             -5.4432149752        0.2807706768       30.5346028508  WZ4       1041            0.0000000000
     18298      6100  TIP3      OH2            -7.6630849752       -5.1123793232       31.5186628508  WZ4       1042            0.0000000000
     18299      6100  TIP3      H1             -7.3592949752       -5.7982393232       30.9240728508  WZ4       1042            0.0000000000
     18300      6100  TIP3      H2             -6.9416849752       -4.9935093232       32.1364628508  WZ4       1042            0.0000000000
     18301      6101  TIP3      OH2             0.9998950248      -13.5108493232       32.3792828508  WZ4       1043            0.0000000000
     18302      6101  TIP3      H1              1.0491150248      -12.9007293232       33.1151928508  WZ4       1043            0.0000000000
     18303      6101  TIP3      H2              1.4254050248      -13.0497593232       31.6563928508  WZ4       1043            0.0000000000
     18304      6102  TIP3      OH2            -4.5223849752      -10.7181393232       31.8461428508  WZ4       1044            0.0000000000
     18305      6102  TIP3      H1             -4.3797949752      -11.6644393232       31.8663028508  WZ4       1044            0.0000000000
     18306      6102  TIP3      H2             -4.6284849752      -10.5111593232       30.9176328508  WZ4       1044            0.0000000000
     18307      6103  TIP3      OH2            -3.6452849752      -12.4859393232       27.5194528508  WZ4       1046            0.0000000000
     18308      6103  TIP3      H1             -2.9988549752      -12.8146193232       28.1442128508  WZ4       1046            0.0000000000
     18309      6103  TIP3      H2             -3.1353449752      -11.9680393232       26.8965928508  WZ4       1046            0.0000000000
     18310      6104  TIP3      OH2            -9.5909549752       -8.6697893232       29.0959128508  WZ4       1048            0.0000000000
     18311      6104  TIP3      H1             -8.9748549752       -9.1962493232       29.6053128508  WZ4       1048            0.0000000000
     18312      6104  TIP3      H2            -10.1770749752       -9.3099193232       28.6922728508  WZ4       1048            0.0000000000
     18313      6105  TIP3      OH2             1.3913550248      -12.0329293232       34.6152628508  WZ4       1049            0.0000000000
     18314      6105  TIP3      H1              0.7028150248      -11.3748593232       34.5199228508  WZ4       1049            0.0000000000
     18315      6105  TIP3      H2              1.4068150248      -12.2301393232       35.5518028508  WZ4       1049            0.0000000000
     18316      6106  TIP3      OH2            -5.1883849752       -4.1985493232       26.7366128508  WZ4       1051            0.0000000000
     18317      6106  TIP3      H1             -5.4838749752       -4.5213193232       25.8853028508  WZ4       1051            0.0000000000
     18318      6106  TIP3      H2             -5.5126049752       -3.2988793232       26.7778728508  WZ4       1051            0.0000000000
     18319      6107  TIP3      OH2            -1.8814449752      -13.1950093232       29.5000428508  WZ4       1053            0.0000000000
     18320      6107  TIP3      H1             -2.0966449752      -13.9606693232       30.0326428508  WZ4       1053            0.0000000000
     18321      6107  TIP3      H2             -1.2257049752      -12.7225493232       30.0128928508  WZ4       1053            0.0000000000
     18322      6108  TIP3      OH2           -15.4597049752       -4.3879993232       25.0491528508  WZ4       1056            0.0000000000
     18323      6108  TIP3      H1            -15.7316149752       -4.1588993232       24.1604428508  WZ4       1056            0.0000000000
     18324      6108  TIP3      H2            -15.4141349752       -3.5501193232       25.5096828508  WZ4       1056            0.0000000000
     18325      6109  TIP3      OH2            -1.8347349752       -2.7664093232       31.7620028508  WZ4       1057            0.0000000000
     18326      6109  TIP3      H1             -2.7763649752       -2.7080193232       31.9236928508  WZ4       1057            0.0000000000
     18327      6109  TIP3      H2             -1.5581249752       -1.8603593232       31.6249728508  WZ4       1057            0.0000000000
     18328      6110  TIP3      OH2            -1.5340349752      -14.4798793232       33.1793928508  WZ4       1058            0.0000000000
     18329      6110  TIP3      H1             -2.2701149752      -13.8691693232       33.1415228508  WZ4       1058            0.0000000000
     18330      6110  TIP3      H2             -0.8506349752      -14.0649793232       32.6530328508  WZ4       1058            0.0000000000
     18331      6111  TIP3      OH2            -3.5826149752       -0.9850593232       28.3871628508  WZ4       1060            0.0000000000
     18332      6111  TIP3      H1             -3.1573849752       -1.6922693232       27.9021228508  WZ4       1060            0.0000000000
     18333      6111  TIP3      H2             -3.2656149752       -0.1837893232       27.9703828508  WZ4       1060            0.0000000000
     18334      6112  TIP3      OH2            -2.4229649752       -3.0842093232       26.8958228508  WZ4       1061            0.0000000000
     18335      6112  TIP3      H1             -2.6804849752       -3.7741993232       26.2844128508  WZ4       1061            0.0000000000
     18336      6112  TIP3      H2             -2.3518849752       -3.5270893232       27.7414128508  WZ4       1061            0.0000000000
     18337      6113  TIP3      OH2            -0.7369449752       -4.5175393232       35.3731728508  WZ4       1062            0.0000000000
     18338      6113  TIP3      H1             -0.5973149752       -5.1092893232       34.6338728508  WZ4       1062            0.0000000000
     18339      6113  TIP3      H2             -0.5696649752       -3.6449493232       35.0170528508  WZ4       1062            0.0000000000
     18340      6114  TIP3      OH2            -6.2644049752       -7.5555893232       25.1457728508  WZ4       1063            0.0000000000
     18341      6114  TIP3      H1             -6.9758549752       -7.0206193232       24.7938228508  WZ4       1063            0.0000000000
     18342      6114  TIP3      H2             -5.5734449752       -7.5003793232       24.4856628508  WZ4       1063            0.0000000000
     18343      6115  TIP3      OH2            -6.2104849752       -9.0981593232       22.1842728508  WZ4       1064            0.0000000000
     18344      6115  TIP3      H1             -5.5094949752       -9.0754693232       22.8356728508  WZ4       1064            0.0000000000
     18345      6115  TIP3      H2             -5.9081949752       -9.7261893232       21.5282028508  WZ4       1064            0.0000000000
     18346      6116  TIP3      OH2             1.1049850248       -8.1777393232       33.4392128508  WZ4       1065            0.0000000000
     18347      6116  TIP3      H1              0.4523950248       -7.4831793232       33.5283028508  WZ4       1065            0.0000000000
     18348      6116  TIP3      H2              1.5700150248       -7.9676493232       32.6293728508  WZ4       1065            0.0000000000
     18349      6117  TIP3      OH2            -2.8586349752       -7.3462593232       26.0973628508  WZ4       1066            0.0000000000
     18350      6117  TIP3      H1             -3.5905349752       -7.1178893232       26.6704228508  WZ4       1066            0.0000000000
     18351      6117  TIP3      H2             -2.4114149752       -8.0599893232       26.5521128508  WZ4       1066            0.0000000000
     18352      6118  TIP3      OH2           -11.2132649752       -6.7156393232       27.9798628508  WZ4       1068            0.0000000000
     18353      6118  TIP3      H1            -11.5437449752       -7.0862993232       27.1615628508  WZ4       1068            0.0000000000
     18354      6118  TIP3      H2            -10.6248549752       -7.3862393232       28.3266928508  WZ4       1068            0.0000000000
     18355      6119  TIP3      OH2            -9.8465149752       -3.2875793232       30.6610828508  WZ4       1069            0.0000000000
     18356      6119  TIP3      H1             -9.9413849752       -3.8662693232       29.9045428508  WZ4       1069            0.0000000000
     18357      6119  TIP3      H2             -9.1171549752       -3.6590093232       31.1573628508  WZ4       1069            0.0000000000
     18358      6120  TIP3      OH2            -4.5374949752       -2.4438893232       32.3474128508  WZ4       1071            0.0000000000
     18359      6120  TIP3      H1             -4.7778349752       -1.7815793232       32.9953328508  WZ4       1071            0.0000000000
     18360      6120  TIP3      H2             -4.7356749752       -3.2783693232       32.7723728508  WZ4       1071            0.0000000000
     18361      6121  TIP3      OH2            -3.9876849752       -8.1839693232       23.7824828508  WZ4       1073            0.0000000000
     18362      6121  TIP3      H1             -3.4081349752       -8.0339393232       24.5293728508  WZ4       1073            0.0000000000
     18363      6121  TIP3      H2             -3.5736849752       -7.7132293232       23.0591228508  WZ4       1073            0.0000000000
     18364      6122  TIP3      OH2            -6.2611949752       -1.4471193232       27.2177928508  WZ4       1075            0.0000000000
     18365      6122  TIP3      H1             -5.7874349752       -1.1514893232       27.9952128508  WZ4       1075            0.0000000000
     18366      6122  TIP3      H2             -6.8242649752       -0.7089593232       26.9847528508  WZ4       1075            0.0000000000
     18367      6123  TIP3      OH2            -0.2888449752      -16.4339293232       23.5954528508  WZ4       1077            0.0000000000
     18368      6123  TIP3      H1             -1.1887749752      -16.2950293232       23.8905128508  WZ4       1077            0.0000000000
     18369      6123  TIP3      H2             -0.0370049752      -15.6024693232       23.1936228508  WZ4       1077            0.0000000000
     18370      6124  TIP3      OH2           -12.2229949752       -7.6462093232       25.5691428508  WZ4       1078            0.0000000000
     18371      6124  TIP3      H1            -12.5148649752       -6.8780393232       25.0782728508  WZ4       1078            0.0000000000
     18372      6124  TIP3      H2            -12.8974749752       -8.3055893232       25.4062828508  WZ4       1078            0.0000000000
     18373      6125  TIP3      OH2             0.9002950248       -2.0676893232       21.9718428508  WZ4       1079            0.0000000000
     18374      6125  TIP3      H1              0.9736450248       -1.1286693232       22.1423728508  WZ4       1079            0.0000000000
     18375      6125  TIP3      H2              1.8058050248       -2.3728293232       21.9155728508  WZ4       1079            0.0000000000
     18376      6126  TIP3      OH2            -6.7888849752        1.5093506768       25.6327128508  WZ4       1084            0.0000000000
     18377      6126  TIP3      H1             -6.8642849752        1.3880706768       24.6862328508  WZ4       1084            0.0000000000
     18378      6126  TIP3      H2             -6.7560149752        2.4586206768       25.7511728508  WZ4       1084            0.0000000000
     18379      6127  TIP3      OH2           -13.1355049752        0.2980506768       27.4136128508  WZ4       1085            0.0000000000
     18380      6127  TIP3      H1            -12.9834649752       -0.0499093232       28.2922628508  WZ4       1085            0.0000000000
     18381      6127  TIP3      H2            -13.9864649752       -0.0582193232       27.1583328508  WZ4       1085            0.0000000000
     18382      6128  TIP3      OH2            -3.6872849752        0.6633706768       22.6349528508  WZ4       1086            0.0000000000
     18383      6128  TIP3      H1             -3.3124449752       -0.0810193232       22.1642128508  WZ4       1086            0.0000000000
     18384      6128  TIP3      H2             -3.6829149752        0.3934306768       23.5532828508  WZ4       1086            0.0000000000
     18385      6129  TIP3      OH2            -4.0184749752        0.5890806768       25.3841728508  WZ4       1087            0.0000000000
     18386      6129  TIP3      H1             -4.9534949752        0.6892706768       25.5628728508  WZ4       1087            0.0000000000
     18387      6129  TIP3      H2             -3.7382849752       -0.1203193232       25.9624928508  WZ4       1087            0.0000000000
     18388      6130  TIP3      OH2            -2.5103749752       -7.1511393232       21.4122728508  WZ4       1093            0.0000000000
     18389      6130  TIP3      H1             -2.4682949752       -7.3737493232       20.4822728508  WZ4       1093            0.0000000000
     18390      6130  TIP3      H2             -1.6611649752       -6.7524293232       21.6022628508  WZ4       1093            0.0000000000
     18391      6131  TIP3      OH2            -6.9376249752      -13.2753193232       22.0826028508  WZ4       1094            0.0000000000
     18392      6131  TIP3      H1             -7.1911449752      -13.2561593232       23.0054128508  WZ4       1094            0.0000000000
     18393      6131  TIP3      H2             -7.1944149752      -14.1467793232       21.7812228508  WZ4       1094            0.0000000000
     18394      6132  TIP3      OH2           -11.1742149752      -10.3032393232       27.4298428508  WZ4       1096            0.0000000000
     18395      6132  TIP3      H1            -12.0669249752      -10.6436293232       27.3712228508  WZ4       1096            0.0000000000
     18396      6132  TIP3      H2            -10.7235549752      -10.6801493232       26.6741628508  WZ4       1096            0.0000000000
     18397      6133  TIP3      OH2            -5.6386649752       -9.8872093232       26.2469228508  WZ4       1097            0.0000000000
     18398      6133  TIP3      H1             -6.0476349752       -9.0723493232       25.9554028508  WZ4       1097            0.0000000000
     18399      6133  TIP3      H2             -4.9180449752      -10.0271993232       25.6326328508  WZ4       1097            0.0000000000
     18400      6134  TIP3      OH2            -4.6338949752      -10.4411693232       29.0608928508  WZ4       1099            0.0000000000
     18401      6134  TIP3      H1             -4.8294449752       -9.8354893232       28.3459528508  WZ4       1099            0.0000000000
     18402      6134  TIP3      H2             -4.4526349752      -11.2746493232       28.6265228508  WZ4       1099            0.0000000000
     18403      6135  TIP3      OH2           -10.0553349752      -12.8296693232       21.1836428508  WZ4       1101            0.0000000000
     18404      6135  TIP3      H1            -10.4862649752      -13.2746593232       21.9133828508  WZ4       1101            0.0000000000
     18405      6135  TIP3      H2            -10.7734649752      -12.4580393232       20.6713928508  WZ4       1101            0.0000000000
     18406      6136  TIP3      OH2           -15.5387849752      -12.3415193232       23.6595528508  WZ4       1103            0.0000000000
     18407      6136  TIP3      H1            -15.0646149752      -11.7505293232       23.0746428508  WZ4       1103            0.0000000000
     18408      6136  TIP3      H2            -16.2561449752      -11.8112293232       24.0065628508  WZ4       1103            0.0000000000
     18409      6137  TIP3      OH2            -8.5926849752      -12.8754893232       28.5162528508  WZ4       1105            0.0000000000
     18410      6137  TIP3      H1             -9.5035749752      -12.8188093232       28.8048528508  WZ4       1105            0.0000000000
     18411      6137  TIP3      H2             -8.0873949752      -12.9359393232       29.3269728508  WZ4       1105            0.0000000000
     18412      6138  TIP3      OH2           -10.1111649752      -11.2465993232       24.9994728508  WZ4       1107            0.0000000000
     18413      6138  TIP3      H1             -9.1796149752      -11.1175993232       25.1777828508  WZ4       1107            0.0000000000
     18414      6138  TIP3      H2            -10.3261349752      -10.5771693232       24.3499428508  WZ4       1107            0.0000000000
     18415      6139  TIP3      OH2           -11.4371449752      -10.0523793232       22.5660828508  WZ4       1109            0.0000000000
     18416      6139  TIP3      H1            -11.9796349752      -10.4319993232       21.8748428508  WZ4       1109            0.0000000000
     18417      6139  TIP3      H2            -10.6036549752       -9.8579093232       22.1374928508  WZ4       1109            0.0000000000
     18418      6140  TIP3      OH2            -7.2727149752      -10.0881893232       30.4032128508  WZ4       1112            0.0000000000
     18419      6140  TIP3      H1             -6.7083749752      -10.6345293232       29.8561728508  WZ4       1112            0.0000000000
     18420      6140  TIP3      H2             -7.4203749752      -10.6099993232       31.1919728508  WZ4       1112            0.0000000000
     18421      6141  TIP3      OH2           -12.2707449752      -13.9515793232       26.8216928508  WZ4       1113            0.0000000000
     18422      6141  TIP3      H1            -12.5877949752      -14.8540493232       26.7862328508  WZ4       1113            0.0000000000
     18423      6141  TIP3      H2            -11.4893349752      -13.9498393232       26.2688528508  WZ4       1113            0.0000000000
     18424      6142  TIP3      OH2            -8.1018649752       -5.4868093232       24.5018928508  WZ4       1115            0.0000000000
     18425      6142  TIP3      H1             -8.8467649752       -5.9942793232       24.1796828508  WZ4       1115            0.0000000000
     18426      6142  TIP3      H2             -8.2361449752       -5.4380093232       25.4483728508  WZ4       1115            0.0000000000
     18427      6143  TIP3      OH2            -0.9519749752       -6.3539893232       33.2886528508  WZ4       1116            0.0000000000
     18428      6143  TIP3      H1             -0.3100949752       -5.8973593232       32.7448728508  WZ4       1116            0.0000000000
     18429      6143  TIP3      H2             -1.7822849752       -6.2407493232       32.8260628508  WZ4       1116            0.0000000000
     18430      6144  TIP3      OH2            -4.2041849752      -12.6728193232       22.7011528508  WZ4       1117            0.0000000000
     18431      6144  TIP3      H1             -5.1427649752      -12.5612593232       22.5500328508  WZ4       1117            0.0000000000
     18432      6144  TIP3      H2             -3.9069749752      -11.8161293232       23.0077228508  WZ4       1117            0.0000000000
     18433      6145  TIP3      OH2            -3.4858349752      -10.8055493232       24.3618928508  WZ4       1119            0.0000000000
     18434      6145  TIP3      H1             -2.5939349752      -10.9430493232       24.6810128508  WZ4       1119            0.0000000000
     18435      6145  TIP3      H2             -3.4294749752      -10.0149393232       23.8252428508  WZ4       1119            0.0000000000
     18436      6146  TIP3      OH2            -5.9764549752       -4.0283793232       23.5273528508  WZ4       1121            0.0000000000
     18437      6146  TIP3      H1             -6.2716149752       -3.2015893232       23.9088328508  WZ4       1121            0.0000000000
     18438      6146  TIP3      H2             -6.6794549752       -4.6476893232       23.7234928508  WZ4       1121            0.0000000000
     18439      6147  TIP3      OH2             1.3990350248      -10.5961393232       24.0565628508  WZ4       1125            0.0000000000
     18440      6147  TIP3      H1              0.8446650248      -10.9923393232       23.3843128508  WZ4       1125            0.0000000000
     18441      6147  TIP3      H2              1.4993950248       -9.6856193232       23.7788928508  WZ4       1125            0.0000000000
     18442      6148  TIP3      OH2            -0.3057949752       -1.8100993232       24.5217728508  WZ4       1127            0.0000000000
     18443      6148  TIP3      H1             -0.6786849752       -2.6357193232       24.8308328508  WZ4       1127            0.0000000000
     18444      6148  TIP3      H2             -0.0284449752       -1.9931593232       23.6241128508  WZ4       1127            0.0000000000
     18445      6149  TIP3      OH2            -3.1454049752       -7.0021493232       31.5429628508  WZ4       1128            0.0000000000
     18446      6149  TIP3      H1             -4.0737149752       -7.2339593232       31.5158928508  WZ4       1128            0.0000000000
     18447      6149  TIP3      H2             -2.6942949752       -7.7791693232       31.2128428508  WZ4       1128            0.0000000000
     18448      6150  TIP3      OH2           -10.6020949752       -2.6739893232       27.6758328508  WZ4       1129            0.0000000000
     18449      6150  TIP3      H1            -10.0748749752       -1.9005493232       27.4757128508  WZ4       1129            0.0000000000
     18450      6150  TIP3      H2            -11.4822449752       -2.4490693232       27.3742328508  WZ4       1129            0.0000000000
     18451      6151  TIP3      OH2           -14.8473249752       -7.8115793232       22.2630728508  WZ4       1130            0.0000000000
     18452      6151  TIP3      H1            -14.2313349752       -7.1848593232       22.6425528508  WZ4       1130            0.0000000000
     18453      6151  TIP3      H2            -15.7090649752       -7.4955993232       22.5347228508  WZ4       1130            0.0000000000
     18454      6152  TIP3      OH2            -9.1748649752       -5.0109993232       27.2522628508  WZ4       1131            0.0000000000
     18455      6152  TIP3      H1             -9.4158649752       -4.0855593232       27.2937928508  WZ4       1131            0.0000000000
     18456      6152  TIP3      H2             -9.9155049752       -5.4698693232       27.6486528508  WZ4       1131            0.0000000000
     18457      6153  TIP3      OH2            -8.6602049752       -0.8616393232       33.5673728508  WZ4       1132            0.0000000000
     18458      6153  TIP3      H1             -8.2977349752       -0.0070793232       33.3338128508  WZ4       1132            0.0000000000
     18459      6153  TIP3      H2             -8.1286849752       -1.1534793232       34.3080028508  WZ4       1132            0.0000000000
     18460      6154  TIP3      OH2           -10.4917849752        0.0107606768       26.7974828508  WZ4       1133            0.0000000000
     18461      6154  TIP3      H1            -11.4417349752        0.1165006768       26.8488128508  WZ4       1133            0.0000000000
     18462      6154  TIP3      H2            -10.1399749752        0.8315006768       27.1422328508  WZ4       1133            0.0000000000
     18463      6155  TIP3      OH2            -5.1161249752       -4.7625693232       33.2679328508  WZ4       1134            0.0000000000
     18464      6155  TIP3      H1             -5.5419949752       -4.9903993232       34.0943328508  WZ4       1134            0.0000000000
     18465      6155  TIP3      H2             -4.5355449752       -5.5013893232       33.0854628508  WZ4       1134            0.0000000000
     18466      6156  TIP3      OH2            -2.9132349752       -3.8335193232       22.3418328508  WZ4       1135            0.0000000000
     18467      6156  TIP3      H1             -2.5599249752       -4.2135393232       23.1461828508  WZ4       1135            0.0000000000
     18468      6156  TIP3      H2             -3.8618849752       -3.9270393232       22.4287628508  WZ4       1135            0.0000000000
     18469      6157  TIP3      OH2             1.5902050248        0.6457306768       22.5428528508  WZ4       1137            0.0000000000
     18470      6157  TIP3      H1              2.3339950248        1.2317806768       22.4030128508  WZ4       1137            0.0000000000
     18471      6157  TIP3      H2              0.8960150248        1.2143106768       22.8760928508  WZ4       1137            0.0000000000
     18472      6158  TIP3      OH2            -2.0473049752       -5.1613193232       24.5686228508  WZ4       1139            0.0000000000
     18473      6158  TIP3      H1             -2.3245449752       -5.8893893232       25.1247328508  WZ4       1139            0.0000000000
     18474      6158  TIP3      H2             -1.1200049752       -5.0421193232       24.7738828508  WZ4       1139            0.0000000000
     18475      6159  TIP3      OH2            -8.8224549752       -2.7219093232       20.7888328508  WZ4       1141            0.0000000000
     18476      6159  TIP3      H1             -8.5834749752       -3.4700993232       20.2417228508  WZ4       1141            0.0000000000
     18477      6159  TIP3      H2             -9.0913249752       -3.1097393232       21.6216128508  WZ4       1141            0.0000000000
     18478      6160  TIP3      OH2            -9.8853949752       -3.1515293232       23.2450928508  WZ4       1142            0.0000000000
     18479      6160  TIP3      H1             -9.7385949752       -3.6715493232       24.0351828508  WZ4       1142            0.0000000000
     18480      6160  TIP3      H2             -9.8882249752       -2.2447693232       23.5516828508  WZ4       1142            0.0000000000
     18481      6161  TIP3      OH2           -13.4322849752       -5.8991993232       23.7556328508  WZ4       1143            0.0000000000
     18482      6161  TIP3      H1            -14.1183549752       -5.5469493232       24.3226028508  WZ4       1143            0.0000000000
     18483      6161  TIP3      H2            -12.9094949752       -5.1362393232       23.5090628508  WZ4       1143            0.0000000000
     18484      6162  TIP3      OH2            -4.8162849752      -13.5846493232       25.1317628508  WZ4       1145            0.0000000000
     18485      6162  TIP3      H1             -4.5964549752      -13.1131093232       24.3283028508  WZ4       1145            0.0000000000
     18486      6162  TIP3      H2             -4.2578849752      -13.1903893232       25.8018228508  WZ4       1145            0.0000000000
     18487      6163  TIP3      OH2            -7.1476749752       -1.4541693232       23.9945128508  WZ4       1146            0.0000000000
     18488      6163  TIP3      H1             -7.9640649752       -0.9571993232       24.0469428508  WZ4       1146            0.0000000000
     18489      6163  TIP3      H2             -6.6180449752       -0.9788193232       23.3543928508  WZ4       1146            0.0000000000
     18490      6164  TIP3      OH2            -7.6162949752      -11.8567693232       25.9666028508  WZ4       1147            0.0000000000
     18491      6164  TIP3      H1             -6.8040349752      -11.3524493232       26.0127728508  WZ4       1147            0.0000000000
     18492      6164  TIP3      H2             -7.8609949752      -12.0017993232       26.8805628508  WZ4       1147            0.0000000000
     18493      6165  TIP3      OH2            -6.7326249752      -14.7754693232       26.9047128508  WZ4       1149            0.0000000000
     18494      6165  TIP3      H1             -7.0792749752      -14.1584093232       27.5491428508  WZ4       1149            0.0000000000
     18495      6165  TIP3      H2             -6.0739349752      -14.2748993232       26.4232628508  WZ4       1149            0.0000000000
     18496      6166  TIP3      OH2            -9.8093649752       -0.4104493232       23.9762028508  WZ4       1150            0.0000000000
     18497      6166  TIP3      H1             -9.6484949752        0.3893006768       23.4754628508  WZ4       1150            0.0000000000
     18498      6166  TIP3      H2            -10.0065849752       -0.1038493232       24.8612628508  WZ4       1150            0.0000000000
     18499      6167  TIP3      OH2           -11.0749249752      -13.7125293232       23.5919628508  WZ4       1151            0.0000000000
     18500      6167  TIP3      H1            -11.1584449752      -12.8242193232       23.9386028508  WZ4       1151            0.0000000000
     18501      6167  TIP3      H2            -10.1848949752      -13.9778593232       23.8236428508  WZ4       1151            0.0000000000
     18502      6168  TIP3      OH2            -2.2739749752       -9.2133693232       30.0819628508  WZ4       1153            0.0000000000
     18503      6168  TIP3      H1             -3.0715349752       -9.6283493232       29.7534628508  WZ4       1153            0.0000000000
     18504      6168  TIP3      H2             -1.8288649752       -9.9039993232       30.5730128508  WZ4       1153            0.0000000000
     18505      6169  TIP3      OH2           -12.8163949752       -3.2853093232       22.6524128508  WZ4       1154            0.0000000000
     18506      6169  TIP3      H1            -12.2242449752       -2.5858293232       22.9286528508  WZ4       1154            0.0000000000
     18507      6169  TIP3      H2            -12.3570949752       -3.7183593232       21.9328728508  WZ4       1154            0.0000000000
     18508      6170  TIP3      OH2           -14.5004749752      -10.6210093232       21.7683528508  WZ4       1155            0.0000000000
     18509      6170  TIP3      H1            -14.5452149752       -9.6816993232       21.9470528508  WZ4       1155            0.0000000000
     18510      6170  TIP3      H2            -15.3881549752      -10.8565193232       21.4985628508  WZ4       1155            0.0000000000
     18511      6171  TIP3      OH2            -1.1875149752        0.0428806768       31.7043128508  WZ4       1156            0.0000000000
     18512      6171  TIP3      H1             -1.3430849752        0.7213206768       31.0472428508  WZ4       1156            0.0000000000
     18513      6171  TIP3      H2             -0.2548749752        0.1148106768       31.9073728508  WZ4       1156            0.0000000000
     18514      6172  TIP3      OH2           -14.7619449752       -1.8986393232       26.6020328508  WZ4       1158            0.0000000000
     18515      6172  TIP3      H1            -15.5940849752       -1.4263693232       26.6291728508  WZ4       1158            0.0000000000
     18516      6172  TIP3      H2            -14.2161149752       -1.3888793232       26.0033428508  WZ4       1158            0.0000000000
     18517      6173  TIP3      OH2            -6.7842749752       -0.8587693232       20.9274328508  WZ4       1161            0.0000000000
     18518      6173  TIP3      H1             -7.4281749752       -1.4899093232       21.2488028508  WZ4       1161            0.0000000000
     18519      6173  TIP3      H2             -6.0224449752       -1.3899693232       20.6957828508  WZ4       1161            0.0000000000
     18520      6174  TIP3      OH2            -2.1799849752       -1.0417793232       21.1612328508  WZ4       1163            0.0000000000
     18521      6174  TIP3      H1             -1.8969449752       -1.8362593232       21.6139228508  WZ4       1163            0.0000000000
     18522      6174  TIP3      H2             -1.4401949752       -0.8086793232       20.6003428508  WZ4       1163            0.0000000000
     18523      6175  TIP3      OH2           -11.2252549752       -5.1322893232       21.0187228508  WZ4       1165            0.0000000000
     18524      6175  TIP3      H1            -11.1608449752       -5.9263293232       21.5493628508  WZ4       1165            0.0000000000
     18525      6175  TIP3      H2            -10.5723349752       -5.2510093232       20.3289228508  WZ4       1165            0.0000000000
     18526      6176  TIP3      OH2            -5.8729149752       -4.0851193232       20.7545228508  WZ4       1167            0.0000000000
     18527      6176  TIP3      H1             -6.1415049752       -3.9049093232       21.6554128508  WZ4       1167            0.0000000000
     18528      6176  TIP3      H2             -6.0793549752       -5.0104993232       20.6231028508  WZ4       1167            0.0000000000
     18529      6177  TIP3      OH2           -10.0758749752       -7.1596693232       23.3245228508  WZ4       1170            0.0000000000
     18530      6177  TIP3      H1            -10.5356749752       -7.6438393232       24.0103728508  WZ4       1170            0.0000000000
     18531      6177  TIP3      H2             -9.8210049752       -7.8281293232       22.6885728508  WZ4       1170            0.0000000000
     18532      6178  TIP3      OH2            -9.0048349752       -8.9164893232       21.5868428508  WZ4       1172            0.0000000000
     18533      6178  TIP3      H1             -9.1853349752       -9.0713693232       20.6596728508  WZ4       1172            0.0000000000
     18534      6178  TIP3      H2             -8.0547849752       -8.8086193232       21.6316328508  WZ4       1172            0.0000000000
     18535      6179  TIP3      OH2             0.3849950248       -6.5620693232       21.0326528508  WZ4       1174            0.0000000000
     18536      6179  TIP3      H1              0.1114750248       -6.9865193232       20.2194828508  WZ4       1174            0.0000000000
     18537      6179  TIP3      H2              0.4244050248       -5.6306193232       20.8156928508  WZ4       1174            0.0000000000
     18538      6180  TIP3      OH2            -9.1076649752        1.7738806768       22.5882028508  WZ4       1188            0.0000000000
     18539      6180  TIP3      H1             -8.1745949752        1.9317506768       22.7320428508  WZ4       1188            0.0000000000
     18540      6180  TIP3      H2             -9.3717849752        2.4491806768       21.9633528508  WZ4       1188            0.0000000000
     18541      6181  TIP3      OH2           -15.5391749752       -3.5897393232       22.0710128508  WZ4       1189            0.0000000000
     18542      6181  TIP3      H1            -14.6252549752       -3.5108493232       22.3444028508  WZ4       1189            0.0000000000
     18543      6181  TIP3      H2            -15.5318649752       -4.2767793232       21.4045728508  WZ4       1189            0.0000000000
     18544      6182  TIP3      OH2           -16.8901149752        1.8031106768       27.1484028508  WZ4       1190            0.0000000000
     18545      6182  TIP3      H1            -17.5374049752        1.3412806768       26.6155228508  WZ4       1190            0.0000000000
     18546      6182  TIP3      H2            -16.5356549752        1.1314406768       27.7310228508  WZ4       1190            0.0000000000
     18547      6183  TIP3      OH2           -16.0201949752       -0.1161893232       28.9530228508  WZ4       1191            0.0000000000
     18548      6183  TIP3      H1            -16.3545149752       -0.9964593232       29.1250428508  WZ4       1191            0.0000000000
     18549      6183  TIP3      H2            -15.7979549752        0.2293106768       29.8175828508  WZ4       1191            0.0000000000
     18550      6184  TIP3      OH2             1.5282850248        0.6934506768       31.9335028508  WZ4       1192            0.0000000000
     18551      6184  TIP3      H1              1.5069550248        0.8782906768       32.8724428508  WZ4       1192            0.0000000000
     18552      6184  TIP3      H2              2.2189050248        1.2618506768       31.5926428508  WZ4       1192            0.0000000000
     18553      6185  TIP3      OH2             1.0915750248        0.2605606768       34.8554128508  WZ4       1193            0.0000000000
     18554      6185  TIP3      H1              0.6044450248       -0.4750293232       34.4841528508  WZ4       1193            0.0000000000
     18555      6185  TIP3      H2              1.6408450248       -0.1330493232       35.5333528508  WZ4       1193            0.0000000000
     18556      6186  TIP3      OH2             0.8432750248       -5.6932593232       25.0076928508  WZ4       1195            0.0000000000
     18557      6186  TIP3      H1              1.6934150248       -5.2721693232       25.1348528508  WZ4       1195            0.0000000000
     18558      6186  TIP3      H2              0.8487850248       -6.4332493232       25.6148328508  WZ4       1195            0.0000000000
     18559      6187  TIP3      OH2             1.2378350248       -7.6395193232       26.8312628508  WZ4       1196            0.0000000000
     18560      6187  TIP3      H1              0.5112950248       -8.1192593232       27.2290228508  WZ4       1196            0.0000000000
     18561      6187  TIP3      H2              1.8191650248       -7.4340493232       27.5634228508  WZ4       1196            0.0000000000
     18562      6188  TIP3      OH2             0.9969550248       -4.8547693232       31.7790228508  WZ4       1197            0.0000000000
     18563      6188  TIP3      H1              1.8303750248       -5.2327693232       31.4983828508  WZ4       1197            0.0000000000
     18564      6188  TIP3      H2              1.1089850248       -3.9116493232       31.6599328508  WZ4       1197            0.0000000000
     18565      6189  TIP3      OH2            -0.5168149752       -1.9770193232       34.0858628508  WZ4       1198            0.0000000000
     18566      6189  TIP3      H1             -1.1642849752       -1.6518693232       34.7113828508  WZ4       1198            0.0000000000
     18567      6189  TIP3      H2             -1.0344149752       -2.4172493232       33.4116928508  WZ4       1198            0.0000000000
     18568      6190  TIP3      OH2             1.5061450248       -7.7386693232       23.2223928508  WZ4       1199            0.0000000000
     18569      6190  TIP3      H1              0.9842550248       -7.3822593232       22.5034828508  WZ4       1199            0.0000000000
     18570      6190  TIP3      H2              1.4730650248       -7.0638893232       23.9004828508  WZ4       1199            0.0000000000
     18571      6191  TIP3      OH2            -0.1449549752      -10.4991093232       21.7731028508  WZ4       1200            0.0000000000
     18572      6191  TIP3      H1             -0.0485149752       -9.8324093232       21.0930728508  WZ4       1200            0.0000000000
     18573      6191  TIP3      H2             -0.2849949752      -11.3144793232       21.2916528508  WZ4       1200            0.0000000000
     18574      6192  TIP3      OH2            -0.9754849752       -9.1188693232       27.3941328508  WZ4       1201            0.0000000000
     18575      6192  TIP3      H1             -1.1256049752      -10.0640093232       27.3739128508  WZ4       1201            0.0000000000
     18576      6192  TIP3      H2             -1.3290349752       -8.8377293232       28.2380428508  WZ4       1201            0.0000000000
     18577      6193  TIP3      OH2            -0.8975749752      -13.0911293232       20.8906528508  WZ4       1205            0.0000000000
     18578      6193  TIP3      H1             -0.2869949752      -13.4624493232       21.5274728508  WZ4       1205            0.0000000000
     18579      6193  TIP3      H2             -1.7344249752      -13.5124393232       21.0866528508  WZ4       1205            0.0000000000
     18580      6194  TIP3      OH2            -1.2650049752      -11.5362893232       25.8566428508  WZ4       1206            0.0000000000
     18581      6194  TIP3      H1             -0.9852949752      -12.4432493232       25.9808128508  WZ4       1206            0.0000000000
     18582      6194  TIP3      H2             -0.5058349752      -11.1021393232       25.4675628508  WZ4       1206            0.0000000000
     18583      6195  TIP3      OH2            -0.6531749752      -10.9545493232       31.2925328508  WZ4       1207            0.0000000000
     18584      6195  TIP3      H1              0.2796250248      -10.7425593232       31.2581328508  WZ4       1207            0.0000000000
     18585      6195  TIP3      H2             -0.8884249752      -10.8533393232       32.2148328508  WZ4       1207            0.0000000000
     18586      6196  TIP3      OH2            -0.6239849752      -10.2180193232       34.0684728508  WZ4       1208            0.0000000000
     18587      6196  TIP3      H1             -1.4668549752       -9.9499793232       34.4344528508  WZ4       1208            0.0000000000
     18588      6196  TIP3      H2             -0.1815549752       -9.3958293232       33.8575828508  WZ4       1208            0.0000000000
     18589      6197  TIP3      OH2            -0.6515249752      -14.2733593232       25.9048428508  WZ4       1211            0.0000000000
     18590      6197  TIP3      H1             -0.4690249752      -14.7222093232       26.7303428508  WZ4       1211            0.0000000000
     18591      6197  TIP3      H2             -1.2512349752      -14.8579193232       25.4413028508  WZ4       1211            0.0000000000
     18592      6198  TIP3      OH2             1.2150950248      -14.2055493232       22.4328728508  WZ4       1215            0.0000000000
     18593      6198  TIP3      H1              1.6273550248      -14.9269793232       21.9576728508  WZ4       1215            0.0000000000
     18594      6198  TIP3      H2              1.8967450248      -13.5360893232       22.4913028508  WZ4       1215            0.0000000000
     18595      6199  TIP3      OH2            -1.7331149752        0.7833906768       27.5056828508  WZ4       1217            0.0000000000
     18596      6199  TIP3      H1             -1.0808249752        0.4356006768       26.8975928508  WZ4       1217            0.0000000000
     18597      6199  TIP3      H2             -1.2227349752        1.2717106768       28.1516528508  WZ4       1217            0.0000000000
     18598      6200  TIP3      OH2           -11.5251449752        1.5434306768       33.3844228508  WZ4       1225            0.0000000000
     18599      6200  TIP3      H1            -12.3899249752        1.6152806768       33.7884328508  WZ4       1225            0.0000000000
     18600      6200  TIP3      H2            -11.5802449752        2.0901606768       32.6006728508  WZ4       1225            0.0000000000
     18601      6201  TIP3      OH2            -6.8145849752        1.4313206768       32.5600228508  WZ4       1226            0.0000000000
     18602      6201  TIP3      H1             -7.2711849752        1.9602906768       31.9058628508  WZ4       1226            0.0000000000
     18603      6201  TIP3      H2             -6.6517849752        2.0344606768       33.2852528508  WZ4       1226            0.0000000000
     18604      6202  TIP3      OH2            -4.4869549752        0.3092806768       33.5050528508  WZ4       1227            0.0000000000
     18605      6202  TIP3      H1             -5.3915849752        0.4743006768       33.2392628508  WZ4       1227            0.0000000000
     18606      6202  TIP3      H2             -4.0580949752        1.1625006768       33.4393928508  WZ4       1227            0.0000000000
     18607      6203  TIP3      OH2            -1.8827649752        1.8791906768       33.7998328508  WZ4       1228            0.0000000000
     18608      6203  TIP3      H1             -2.0645649752        2.7950806768       33.5893228508  WZ4       1228            0.0000000000
     18609      6203  TIP3      H2             -1.7059849752        1.4689006768       32.9532928508  WZ4       1228            0.0000000000
     18610      6204  TIP3      OH2           -14.5775949752        0.5662906768       31.2648828508  WZ4       1229            0.0000000000
     18611      6204  TIP3      H1            -14.5959949752        0.1408006768       32.1221128508  WZ4       1229            0.0000000000
     18612      6204  TIP3      H2            -13.7728049752        0.2477906768       30.8561028508  WZ4       1229            0.0000000000
     18613      6205  TIP3      OH2           -12.4362849752       -0.7238393232       29.9198728508  WZ4       1230            0.0000000000
     18614      6205  TIP3      H1            -12.6552149752       -1.6400993232       30.0894728508  WZ4       1230            0.0000000000
     18615      6205  TIP3      H2            -11.6120649752       -0.5837993232       30.3860128508  WZ4       1230            0.0000000000
     18616      6206  TIP3      OH2            -9.8990349752       -0.2539093232       30.7686728508  WZ4       1231            0.0000000000
     18617      6206  TIP3      H1             -9.6864649752       -1.1420093232       30.4817628508  WZ4       1231            0.0000000000
     18618      6206  TIP3      H2             -9.8345249752       -0.2881393232       31.7230728508  WZ4       1231            0.0000000000
     18619      6207  TIP3      OH2            -6.3906649752      -14.5898493232       29.9130028508  WZ4       1232            0.0000000000
     18620      6207  TIP3      H1             -7.0649849752      -15.2192893232       30.1685828508  WZ4       1232            0.0000000000
     18621      6207  TIP3      H2             -5.8267449752      -15.0739593232       29.3097928508  WZ4       1232            0.0000000000
     18622      6208  TIP3      OH2            -1.2479449752      -16.4824493232       30.0257128508  WZ4       1233            0.0000000000
     18623      6208  TIP3      H1             -0.6441849752      -15.9349093232       29.5238128508  WZ4       1233            0.0000000000
     18624      6208  TIP3      H2             -2.1177449752      -16.1634093232       29.7851228508  WZ4       1233            0.0000000000
     18625      6209  TIP3      OH2             0.4790950248      -15.3435793232       28.3588028508  WZ4       1234            0.0000000000
     18626      6209  TIP3      H1              1.0908450248      -15.8580093232       27.8321628508  WZ4       1234            0.0000000000
     18627      6209  TIP3      H2              0.8614350248      -14.4663693232       28.3822428508  WZ4       1234            0.0000000000
     18628      6210  TIP3      OH2           -15.2275749752      -16.1580093232       23.5386028508  WZ4       1236            0.0000000000
     18629      6210  TIP3      H1            -14.7885049752      -15.5469593232       22.9469528508  WZ4       1236            0.0000000000
     18630      6210  TIP3      H2            -15.8613349752      -15.6195993232       24.0126028508  WZ4       1236            0.0000000000
     18631      6211  TIP3      OH2            -9.4846549752      -16.0291093232       27.5483028508  WZ4       1237            0.0000000000
     18632      6211  TIP3      H1             -8.6103149752      -15.6406793232       27.5187328508  WZ4       1237            0.0000000000
     18633      6211  TIP3      H2             -9.6205749752      -16.2443293232       28.4710228508  WZ4       1237            0.0000000000
     18634      6212  TIP3      OH2            -3.9278149752      -15.9991293232       29.1974728508  WZ4       1238            0.0000000000
     18635      6212  TIP3      H1             -3.8516549752      -15.9039693232       28.2480728508  WZ4       1238            0.0000000000
     18636      6212  TIP3      H2             -4.2028949752      -16.9068393232       29.3263828508  WZ4       1238            0.0000000000
     18637      6213  TIP3      OH2            -2.5745549752      -15.9733493232       24.8899728508  WZ4       1239            0.0000000000
     18638      6213  TIP3      H1             -3.2774449752      -15.3584293232       24.6801128508  WZ4       1239            0.0000000000
     18639      6213  TIP3      H2             -3.0194149752      -16.8106793232       25.0210628508  WZ4       1239            0.0000000000
     18640      6214  TIP3      OH2           -15.3266249752       -0.2097893232       24.4361128508  WZ4       1240            0.0000000000
     18641      6214  TIP3      H1            -16.0116349752       -0.2478993232       23.7686228508  WZ4       1240            0.0000000000
     18642      6214  TIP3      H2            -15.3229049752        0.7029706768       24.7243228508  WZ4       1240            0.0000000000
     18643      6215  TIP3      OH2           -13.3666649752      -14.2418593232       21.9810128508  WZ4       1241            0.0000000000
     18644      6215  TIP3      H1            -12.8753249752      -14.8716193232       21.4535628508  WZ4       1241            0.0000000000
     18645      6215  TIP3      H2            -12.7430349752      -13.9459193232       22.6441328508  WZ4       1241            0.0000000000
     18646      6216  TIP3      OH2            -8.3406549752      -13.9487093232       24.4380628508  WZ4       1242            0.0000000000
     18647      6216  TIP3      H1             -8.1625249752      -14.5953893232       25.1209228508  WZ4       1242            0.0000000000
     18648      6216  TIP3      H2             -8.3940349752      -13.1149393232       24.9051728508  WZ4       1242            0.0000000000
     18649      6217  TIP3      OH2            -6.4622749752        0.9997006768       22.8337328508  WZ4       1243            0.0000000000
     18650      6217  TIP3      H1             -5.5962549752        1.3664406768       22.6555528508  WZ4       1243            0.0000000000
     18651      6217  TIP3      H2             -6.7089949752        0.5605006768       22.0198128508  WZ4       1243            0.0000000000
     18652      6218  TIP3      OH2             0.2466850248        0.5627306768       25.5128428508  WZ4       1244            0.0000000000
     18653      6218  TIP3      H1              0.0523950248       -0.1850593232       24.9478028508  WZ4       1244            0.0000000000
     18654      6218  TIP3      H2              0.2076950248        1.3207406768       24.9296328508  WZ4       1244            0.0000000000
     18655      6219  TIP3      OH2           -13.5085049752        0.7102906768       21.4613228508  WZ4       1247            0.0000000000
     18656      6219  TIP3      H1            -13.7760449752        0.9965806768       22.3346328508  WZ4       1247            0.0000000000
     18657      6219  TIP3      H2            -12.7372449752        0.1642106768       21.6135728508  WZ4       1247            0.0000000000
     18658      6220  TIP3      OH2            13.8703450248       -6.7995893232       27.6937428508  WZ4       1250            0.0000000000
     18659      6220  TIP3      H1             13.9594550248       -5.8557693232       27.5614528508  WZ4       1250            0.0000000000
     18660      6220  TIP3      H2             13.2321050248       -7.0749493232       27.0356828508  WZ4       1250            0.0000000000
     18661      6221  TIP3      OH2            12.8034750248       -7.5445193232       31.1125628508  WZ4       1251            0.0000000000
     18662      6221  TIP3      H1             12.7652250248       -8.1908893232       31.8175228508  WZ4       1251            0.0000000000
     18663      6221  TIP3      H2             12.4811250248       -8.0110793232       30.3414328508  WZ4       1251            0.0000000000
     18664      6222  TIP3      OH2             5.1719750248       -7.9303093232       32.7055528508  WZ4       1252            0.0000000000
     18665      6222  TIP3      H1              5.2131850248       -8.5559793232       33.4287928508  WZ4       1252            0.0000000000
     18666      6222  TIP3      H2              5.8747450248       -7.3064493232       32.8875928508  WZ4       1252            0.0000000000
     18667      6223  TIP3      OH2            16.5094950248       -4.6054793232       29.4140728508  WZ4       1253            0.0000000000
     18668      6223  TIP3      H1             16.0687650248       -5.3258793232       29.8646328508  WZ4       1253            0.0000000000
     18669      6223  TIP3      H2             16.4964650248       -3.8847593232       30.0438428508  WZ4       1253            0.0000000000
     18670      6224  TIP3      OH2             6.0952850248       -3.4804193232       31.2404628508  WZ4       1254            0.0000000000
     18671      6224  TIP3      H1              5.7258050248       -4.2823693232       30.8708928508  WZ4       1254            0.0000000000
     18672      6224  TIP3      H2              7.0363950248       -3.6489293232       31.2868028508  WZ4       1254            0.0000000000
     18673      6225  TIP3      OH2             2.7053350248       -9.8201593232       26.6333428508  WZ4       1255            0.0000000000
     18674      6225  TIP3      H1              2.2576750248       -8.9742893232       26.6149928508  WZ4       1255            0.0000000000
     18675      6225  TIP3      H2              2.1444550248      -10.3997393232       26.1178528508  WZ4       1255            0.0000000000
     18676      6226  TIP3      OH2             3.4159450248       -7.6581993232       28.7591428508  WZ4       1256            0.0000000000
     18677      6226  TIP3      H1              3.6292950248       -8.4280393232       29.2864428508  WZ4       1256            0.0000000000
     18678      6226  TIP3      H2              4.1537050248       -7.5685293232       28.1559028508  WZ4       1256            0.0000000000
     18679      6227  TIP3      OH2            13.6210450248        0.4986906768       29.6261128508  WZ4       1257            0.0000000000
     18680      6227  TIP3      H1             14.2406850248       -0.1778393232       29.3530328508  WZ4       1257            0.0000000000
     18681      6227  TIP3      H2             13.4127850248        0.2807706768       30.5346028508  WZ4       1257            0.0000000000
     18682      6228  TIP3      OH2            11.1929150248       -5.1123793232       31.5186628508  WZ4       1258            0.0000000000
     18683      6228  TIP3      H1             11.4967050248       -5.7982393232       30.9240728508  WZ4       1258            0.0000000000
     18684      6228  TIP3      H2             11.9143150248       -4.9935093232       32.1364628508  WZ4       1258            0.0000000000
     18685      6229  TIP3      OH2            14.3336150248      -10.7181393232       31.8461428508  WZ4       1260            0.0000000000
     18686      6229  TIP3      H1             14.4762050248      -11.6644393232       31.8663028508  WZ4       1260            0.0000000000
     18687      6229  TIP3      H2             14.2275150248      -10.5111593232       30.9176328508  WZ4       1260            0.0000000000
     18688      6230  TIP3      OH2             7.4884450248      -12.6164993232       29.1186228508  WZ4       1261            0.0000000000
     18689      6230  TIP3      H1              7.5315550248      -11.7566493232       28.7002528508  WZ4       1261            0.0000000000
     18690      6230  TIP3      H2              7.0308550248      -13.1690293232       28.4849428508  WZ4       1261            0.0000000000
     18691      6231  TIP3      OH2            15.2107150248      -12.4859393232       27.5194528508  WZ4       1262            0.0000000000
     18692      6231  TIP3      H1             15.8571450248      -12.8146193232       28.1442128508  WZ4       1262            0.0000000000
     18693      6231  TIP3      H2             15.7206550248      -11.9680393232       26.8965928508  WZ4       1262            0.0000000000
     18694      6232  TIP3      OH2             4.1085950248      -10.2199193232       29.8807628508  WZ4       1263            0.0000000000
     18695      6232  TIP3      H1              4.7622550248      -10.7697493232       30.3127728508  WZ4       1263            0.0000000000
     18696      6232  TIP3      H2              4.1325250248      -10.4940193232       28.9639628508  WZ4       1263            0.0000000000
     18697      6233  TIP3      OH2             9.2650450248       -8.6697893232       29.0959128508  WZ4       1264            0.0000000000
     18698      6233  TIP3      H1              9.8811450248       -9.1962493232       29.6053128508  WZ4       1264            0.0000000000
     18699      6233  TIP3      H2              8.6789250248       -9.3099193232       28.6922728508  WZ4       1264            0.0000000000
     18700      6234  TIP3      OH2             6.2986350248      -13.6986593232       33.1927028508  WZ4       1266            0.0000000000
     18701      6234  TIP3      H1              6.0798050248      -13.1685993232       32.4263028508  WZ4       1266            0.0000000000
     18702      6234  TIP3      H2              5.6307250248      -13.4721093232       33.8398428508  WZ4       1266            0.0000000000
     18703      6235  TIP3      OH2            13.6676150248       -4.1985493232       26.7366128508  WZ4       1267            0.0000000000
     18704      6235  TIP3      H1             13.3721250248       -4.5213193232       25.8853028508  WZ4       1267            0.0000000000
     18705      6235  TIP3      H2             13.3433950248       -3.2988793232       26.7778728508  WZ4       1267            0.0000000000
     18706      6236  TIP3      OH2             8.8677750248       -6.0230893232       33.4800728508  WZ4       1268            0.0000000000
     18707      6236  TIP3      H1              8.1276850248       -5.4249393232       33.5835928508  WZ4       1268            0.0000000000
     18708      6236  TIP3      H2              9.5817250248       -5.4691293232       33.1644328508  WZ4       1268            0.0000000000
     18709      6237  TIP3      OH2            16.9745550248      -13.1950093232       29.5000428508  WZ4       1269            0.0000000000
     18710      6237  TIP3      H1             16.7593550248      -13.9606693232       30.0326428508  WZ4       1269            0.0000000000
     18711      6237  TIP3      H2             17.6302950248      -12.7225493232       30.0128928508  WZ4       1269            0.0000000000
     18712      6238  TIP3      OH2             5.8923650248      -11.8064793232       31.1449228508  WZ4       1270            0.0000000000
     18713      6238  TIP3      H1              6.5059950248      -11.1737193232       31.5181628508  WZ4       1270            0.0000000000
     18714      6238  TIP3      H2              6.4044350248      -12.2789793232       30.4886128508  WZ4       1270            0.0000000000
     18715      6239  TIP3      OH2             7.2752050248       -4.0587893232       34.2672228508  WZ4       1271            0.0000000000
     18716      6239  TIP3      H1              7.2699650248       -3.1794393232       33.8891528508  WZ4       1271            0.0000000000
     18717      6239  TIP3      H2              6.4216150248       -4.1423793232       34.6922128508  WZ4       1271            0.0000000000
     18718      6240  TIP3      OH2             3.3962950248       -4.3879993232       25.0491528508  WZ4       1272            0.0000000000
     18719      6240  TIP3      H1              3.1243850248       -4.1588993232       24.1604428508  WZ4       1272            0.0000000000
     18720      6240  TIP3      H2              3.4418650248       -3.5501193232       25.5096828508  WZ4       1272            0.0000000000
     18721      6241  TIP3      OH2            10.3251050248      -16.3931493232       30.6451928508  WZ4       1275            0.0000000000
     18722      6241  TIP3      H1             10.2075250248      -17.3415493232       30.5910228508  WZ4       1275            0.0000000000
     18723      6241  TIP3      H2              9.4701150248      -16.0605393232       30.9183028508  WZ4       1275            0.0000000000
     18724      6242  TIP3      OH2            15.2733850248       -0.9850593232       28.3871628508  WZ4       1276            0.0000000000
     18725      6242  TIP3      H1             15.6986150248       -1.6922693232       27.9021228508  WZ4       1276            0.0000000000
     18726      6242  TIP3      H2             15.5903850248       -0.1837893232       27.9703828508  WZ4       1276            0.0000000000
     18727      6243  TIP3      OH2            16.4330350248       -3.0842093232       26.8958228508  WZ4       1277            0.0000000000
     18728      6243  TIP3      H1             16.1755150248       -3.7741993232       26.2844128508  WZ4       1277            0.0000000000
     18729      6243  TIP3      H2             16.5041150248       -3.5270893232       27.7414128508  WZ4       1277            0.0000000000
     18730      6244  TIP3      OH2            12.5915950248       -7.5555893232       25.1457728508  WZ4       1279            0.0000000000
     18731      6244  TIP3      H1             11.8801450248       -7.0206193232       24.7938228508  WZ4       1279            0.0000000000
     18732      6244  TIP3      H2             13.2825550248       -7.5003793232       24.4856628508  WZ4       1279            0.0000000000
     18733      6245  TIP3      OH2            12.6455150248       -9.0981593232       22.1842728508  WZ4       1280            0.0000000000
     18734      6245  TIP3      H1             13.3465050248       -9.0754693232       22.8356728508  WZ4       1280            0.0000000000
     18735      6245  TIP3      H2             12.9478050248       -9.7261893232       21.5282028508  WZ4       1280            0.0000000000
     18736      6246  TIP3      OH2            15.9973650248       -7.3462593232       26.0973628508  WZ4       1282            0.0000000000
     18737      6246  TIP3      H1             15.2654650248       -7.1178893232       26.6704228508  WZ4       1282            0.0000000000
     18738      6246  TIP3      H2             16.4445850248       -8.0599893232       26.5521128508  WZ4       1282            0.0000000000
     18739      6247  TIP3      OH2             7.6427350248       -6.7156393232       27.9798628508  WZ4       1284            0.0000000000
     18740      6247  TIP3      H1              7.3122550248       -7.0862993232       27.1615628508  WZ4       1284            0.0000000000
     18741      6247  TIP3      H2              8.2311450248       -7.3862393232       28.3266928508  WZ4       1284            0.0000000000
     18742      6248  TIP3      OH2             9.0094850248       -3.2875793232       30.6610828508  WZ4       1285            0.0000000000
     18743      6248  TIP3      H1              8.9146150248       -3.8662693232       29.9045428508  WZ4       1285            0.0000000000
     18744      6248  TIP3      H2              9.7388450248       -3.6590093232       31.1573628508  WZ4       1285            0.0000000000
     18745      6249  TIP3      OH2             8.0092850248       -7.9470793232       31.6133628508  WZ4       1286            0.0000000000
     18746      6249  TIP3      H1              8.5745350248       -7.8256593232       30.8504828508  WZ4       1286            0.0000000000
     18747      6249  TIP3      H2              8.3281750248       -7.3095793232       32.2522128508  WZ4       1286            0.0000000000
     18748      6250  TIP3      OH2            14.3185050248       -2.4438893232       32.3474128508  WZ4       1287            0.0000000000
     18749      6250  TIP3      H1             14.0781650248       -1.7815793232       32.9953328508  WZ4       1287            0.0000000000
     18750      6250  TIP3      H2             14.1203250248       -3.2783693232       32.7723728508  WZ4       1287            0.0000000000
     18751      6251  TIP3      OH2            14.8683150248       -8.1839693232       23.7824828508  WZ4       1289            0.0000000000
     18752      6251  TIP3      H1             15.4478650248       -8.0339393232       24.5293728508  WZ4       1289            0.0000000000
     18753      6251  TIP3      H2             15.2823150248       -7.7132293232       23.0591228508  WZ4       1289            0.0000000000
     18754      6252  TIP3      OH2             5.8093450248       -7.3496993232       35.5591228508  WZ4       1290            0.0000000000
     18755      6252  TIP3      H1              5.8796650248       -6.6990193232       36.2576228508  WZ4       1290            0.0000000000
     18756      6252  TIP3      H2              4.9185650248       -7.2469493232       35.2242128508  WZ4       1290            0.0000000000
     18757      6253  TIP3      OH2            12.5948050248       -1.4471193232       27.2177928508  WZ4       1291            0.0000000000
     18758      6253  TIP3      H1             13.0685650248       -1.1514893232       27.9952128508  WZ4       1291            0.0000000000
     18759      6253  TIP3      H2             12.0317350248       -0.7089593232       26.9847528508  WZ4       1291            0.0000000000
     18760      6254  TIP3      OH2            18.5671550248      -16.4339293232       23.5954528508  WZ4       1293            0.0000000000
     18761      6254  TIP3      H1             17.6672250248      -16.2950293232       23.8905128508  WZ4       1293            0.0000000000
     18762      6254  TIP3      H2             18.8189950248      -15.6024693232       23.1936228508  WZ4       1293            0.0000000000
     18763      6255  TIP3      OH2             6.6330050248       -7.6462093232       25.5691428508  WZ4       1294            0.0000000000
     18764      6255  TIP3      H1              6.3411350248       -6.8780393232       25.0782728508  WZ4       1294            0.0000000000
     18765      6255  TIP3      H2              5.9585250248       -8.3055893232       25.4062828508  WZ4       1294            0.0000000000
     18766      6256  TIP3      OH2            19.7562950248       -2.0676893232       21.9718428508  WZ4       1295            0.0000000000
     18767      6256  TIP3      H1             19.8296450248       -1.1286693232       22.1423728508  WZ4       1295            0.0000000000
     18768      6256  TIP3      H2             20.6618050248       -2.3728293232       21.9155728508  WZ4       1295            0.0000000000
     18769      6257  TIP3      OH2             2.7260150248       -5.2832893232       34.3841228508  WZ4       1296            0.0000000000
     18770      6257  TIP3      H1              2.2248550248       -5.3113493232       33.5690928508  WZ4       1296            0.0000000000
     18771      6257  TIP3      H2              2.7313850248       -6.1889693232       34.6938528508  WZ4       1296            0.0000000000
     18772      6258  TIP3      OH2             2.4762850248       -2.5029093232       31.2681428508  WZ4       1297            0.0000000000
     18773      6258  TIP3      H1              3.4223450248       -2.6472093232       31.2490928508  WZ4       1297            0.0000000000
     18774      6258  TIP3      H2              2.3639150248       -1.7186293232       31.8052628508  WZ4       1297            0.0000000000
     18775      6259  TIP3      OH2            12.0671150248        1.5093506768       25.6327128508  WZ4       1300            0.0000000000
     18776      6259  TIP3      H1             11.9917150248        1.3880706768       24.6862328508  WZ4       1300            0.0000000000
     18777      6259  TIP3      H2             12.0999850248        2.4586206768       25.7511728508  WZ4       1300            0.0000000000
     18778      6260  TIP3      OH2             5.7204950248        0.2980506768       27.4136128508  WZ4       1301            0.0000000000
     18779      6260  TIP3      H1              5.8725350248       -0.0499093232       28.2922628508  WZ4       1301            0.0000000000
     18780      6260  TIP3      H2              4.8695350248       -0.0582193232       27.1583328508  WZ4       1301            0.0000000000
     18781      6261  TIP3      OH2            15.1687150248        0.6633706768       22.6349528508  WZ4       1302            0.0000000000
     18782      6261  TIP3      H1             15.5435550248       -0.0810193232       22.1642128508  WZ4       1302            0.0000000000
     18783      6261  TIP3      H2             15.1730850248        0.3934306768       23.5532828508  WZ4       1302            0.0000000000
     18784      6262  TIP3      OH2            14.8375250248        0.5890806768       25.3841728508  WZ4       1303            0.0000000000
     18785      6262  TIP3      H1             13.9025050248        0.6892706768       25.5628728508  WZ4       1303            0.0000000000
     18786      6262  TIP3      H2             15.1177150248       -0.1203193232       25.9624928508  WZ4       1303            0.0000000000
     18787      6263  TIP3      OH2             4.9750650248       -3.9597493232       35.4274028508  WZ4       1305            0.0000000000
     18788      6263  TIP3      H1              5.1911950248       -4.3211893232       36.2869828508  WZ4       1305            0.0000000000
     18789      6263  TIP3      H2              4.1195350248       -4.3343693232       35.2177528508  WZ4       1305            0.0000000000
     18790      6264  TIP3      OH2             7.5938650248      -15.4896993232       31.4228228508  WZ4       1306            0.0000000000
     18791      6264  TIP3      H1              6.7322350248      -15.5768793232       31.0151128508  WZ4       1306            0.0000000000
     18792      6264  TIP3      H2              7.5714350248      -14.6336893232       31.8505828508  WZ4       1306            0.0000000000
     18793      6265  TIP3      OH2            16.3456250248       -7.1511393232       21.4122728508  WZ4       1309            0.0000000000
     18794      6265  TIP3      H1             16.3877050248       -7.3737493232       20.4822728508  WZ4       1309            0.0000000000
     18795      6265  TIP3      H2             17.1948350248       -6.7524293232       21.6022628508  WZ4       1309            0.0000000000
     18796      6266  TIP3      OH2            11.9183750248      -13.2753193232       22.0826028508  WZ4       1310            0.0000000000
     18797      6266  TIP3      H1             11.6648550248      -13.2561593232       23.0054128508  WZ4       1310            0.0000000000
     18798      6266  TIP3      H2             11.6615850248      -14.1467793232       21.7812228508  WZ4       1310            0.0000000000
     18799      6267  TIP3      OH2             7.6848750248      -10.5242493232       32.5178428508  WZ4       1311            0.0000000000
     18800      6267  TIP3      H1              7.0430850248      -10.5645193232       33.2268528508  WZ4       1311            0.0000000000
     18801      6267  TIP3      H2              7.7220750248       -9.5977793232       32.2801428508  WZ4       1311            0.0000000000
     18802      6268  TIP3      OH2             7.6817850248      -10.3032393232       27.4298428508  WZ4       1312            0.0000000000
     18803      6268  TIP3      H1              6.7890750248      -10.6436293232       27.3712228508  WZ4       1312            0.0000000000
     18804      6268  TIP3      H2              8.1324450248      -10.6801493232       26.6741628508  WZ4       1312            0.0000000000
     18805      6269  TIP3      OH2            13.2173350248       -9.8872093232       26.2469228508  WZ4       1313            0.0000000000
     18806      6269  TIP3      H1             12.8083650248       -9.0723493232       25.9554028508  WZ4       1313            0.0000000000
     18807      6269  TIP3      H2             13.9379550248      -10.0271993232       25.6326328508  WZ4       1313            0.0000000000
     18808      6270  TIP3      OH2            14.2221050248      -10.4411693232       29.0608928508  WZ4       1315            0.0000000000
     18809      6270  TIP3      H1             14.0265550248       -9.8354893232       28.3459528508  WZ4       1315            0.0000000000
     18810      6270  TIP3      H2             14.4033650248      -11.2746493232       28.6265228508  WZ4       1315            0.0000000000
     18811      6271  TIP3      OH2             5.4349250248      -10.2038993232       34.3850428508  WZ4       1316            0.0000000000
     18812      6271  TIP3      H1              5.3968650248       -9.8037393232       35.2537528508  WZ4       1316            0.0000000000
     18813      6271  TIP3      H2              4.9440350248      -11.0206593232       34.4753328508  WZ4       1316            0.0000000000
     18814      6272  TIP3      OH2             8.8006650248      -12.8296693232       21.1836428508  WZ4       1317            0.0000000000
     18815      6272  TIP3      H1              8.3697350248      -13.2746593232       21.9133828508  WZ4       1317            0.0000000000
     18816      6272  TIP3      H2              8.0825350248      -12.4580393232       20.6713928508  WZ4       1317            0.0000000000
     18817      6273  TIP3      OH2             2.0430050248      -13.0877193232       28.2355128508  WZ4       1318            0.0000000000
     18818      6273  TIP3      H1              2.6737750248      -13.1165093232       28.9549028508  WZ4       1318            0.0000000000
     18819      6273  TIP3      H2              2.4924350248      -13.5128493232       27.5051028508  WZ4       1318            0.0000000000
     18820      6274  TIP3      OH2             3.3172150248      -12.3415193232       23.6595528508  WZ4       1319            0.0000000000
     18821      6274  TIP3      H1              3.7913850248      -11.7505293232       23.0746428508  WZ4       1319            0.0000000000
     18822      6274  TIP3      H2              2.5998550248      -11.8112293232       24.0065628508  WZ4       1319            0.0000000000
     18823      6275  TIP3      OH2            13.4860250248       -8.8030393232       33.7321328508  WZ4       1320            0.0000000000
     18824      6275  TIP3      H1             13.8095050248       -9.4340693232       33.0891828508  WZ4       1320            0.0000000000
     18825      6275  TIP3      H2             13.0459550248       -9.3378193232       34.3928728508  WZ4       1320            0.0000000000
     18826      6276  TIP3      OH2            10.2633150248      -12.8754893232       28.5162528508  WZ4       1321            0.0000000000
     18827      6276  TIP3      H1              9.3524250248      -12.8188093232       28.8048528508  WZ4       1321            0.0000000000
     18828      6276  TIP3      H2             10.7686050248      -12.9359393232       29.3269728508  WZ4       1321            0.0000000000
     18829      6277  TIP3      OH2             5.0916550248      -11.2468593232       27.3430128508  WZ4       1322            0.0000000000
     18830      6277  TIP3      H1              4.2024550248      -11.1473093232       27.0029728508  WZ4       1322            0.0000000000
     18831      6277  TIP3      H2              5.3881450248      -12.0885593232       26.9968028508  WZ4       1322            0.0000000000
     18832      6278  TIP3      OH2             8.7448350248      -11.2465993232       24.9994728508  WZ4       1323            0.0000000000
     18833      6278  TIP3      H1              9.6763850248      -11.1175993232       25.1777828508  WZ4       1323            0.0000000000
     18834      6278  TIP3      H2              8.5298650248      -10.5771693232       24.3499428508  WZ4       1323            0.0000000000
     18835      6279  TIP3      OH2            14.6685050248      -13.6408593232       31.7804328508  WZ4       1324            0.0000000000
     18836      6279  TIP3      H1             13.9916650248      -13.5095493232       32.4444028508  WZ4       1324            0.0000000000
     18837      6279  TIP3      H2             14.1829950248      -13.7959093232       30.9702028508  WZ4       1324            0.0000000000
     18838      6280  TIP3      OH2             7.4188550248      -10.0523793232       22.5660828508  WZ4       1325            0.0000000000
     18839      6280  TIP3      H1              6.8763650248      -10.4319993232       21.8748428508  WZ4       1325            0.0000000000
     18840      6280  TIP3      H2              8.2523450248       -9.8579093232       22.1374928508  WZ4       1325            0.0000000000
     18841      6281  TIP3      OH2            11.5832850248      -10.0881893232       30.4032128508  WZ4       1328            0.0000000000
     18842      6281  TIP3      H1             12.1476250248      -10.6345293232       29.8561728508  WZ4       1328            0.0000000000
     18843      6281  TIP3      H2             11.4356250248      -10.6099993232       31.1919728508  WZ4       1328            0.0000000000
     18844      6282  TIP3      OH2             6.5852550248      -13.9515793232       26.8216928508  WZ4       1329            0.0000000000
     18845      6282  TIP3      H1              6.2682050248      -14.8540493232       26.7862328508  WZ4       1329            0.0000000000
     18846      6282  TIP3      H2              7.3666650248      -13.9498393232       26.2688528508  WZ4       1329            0.0000000000
     18847      6283  TIP3      OH2            10.2098750248      -11.6995793232       32.8172528508  WZ4       1330            0.0000000000
     18848      6283  TIP3      H1              9.3744050248      -11.2456293232       32.9274928508  WZ4       1330            0.0000000000
     18849      6283  TIP3      H2             10.7339350248      -11.4237293232       33.5692428508  WZ4       1330            0.0000000000
     18850      6284  TIP3      OH2            10.7541350248       -5.4868093232       24.5018928508  WZ4       1331            0.0000000000
     18851      6284  TIP3      H1             10.0092350248       -5.9942793232       24.1796828508  WZ4       1331            0.0000000000
     18852      6284  TIP3      H2             10.6198550248       -5.4380093232       25.4483728508  WZ4       1331            0.0000000000
     18853      6285  TIP3      OH2            14.6518150248      -12.6728193232       22.7011528508  WZ4       1333            0.0000000000
     18854      6285  TIP3      H1             13.7132350248      -12.5612593232       22.5500328508  WZ4       1333            0.0000000000
     18855      6285  TIP3      H2             14.9490250248      -11.8161293232       23.0077228508  WZ4       1333            0.0000000000
     18856      6286  TIP3      OH2            15.3701650248      -10.8055493232       24.3618928508  WZ4       1335            0.0000000000
     18857      6286  TIP3      H1             16.2620650248      -10.9430493232       24.6810128508  WZ4       1335            0.0000000000
     18858      6286  TIP3      H2             15.4265250248      -10.0149393232       23.8252428508  WZ4       1335            0.0000000000
     18859      6287  TIP3      OH2             5.8789650248       -6.1918093232       30.2716828508  WZ4       1336            0.0000000000
     18860      6287  TIP3      H1              6.6236850248       -6.1942393232       29.6703328508  WZ4       1336            0.0000000000
     18861      6287  TIP3      H2              5.9566250248       -7.0154293232       30.7531928508  WZ4       1336            0.0000000000
     18862      6288  TIP3      OH2            12.8795450248       -4.0283793232       23.5273528508  WZ4       1337            0.0000000000
     18863      6288  TIP3      H1             12.5843850248       -3.2015893232       23.9088328508  WZ4       1337            0.0000000000
     18864      6288  TIP3      H2             12.1765450248       -4.6476893232       23.7234928508  WZ4       1337            0.0000000000
     18865      6289  TIP3      OH2             2.8869350248       -7.7311193232       35.5865328508  WZ4       1338            0.0000000000
     18866      6289  TIP3      H1              3.1097950248       -8.1491593232       36.4182828508  WZ4       1338            0.0000000000
     18867      6289  TIP3      H2              2.2849450248       -8.3436193232       35.1638128508  WZ4       1338            0.0000000000
     18868      6290  TIP3      OH2            20.2550350248      -10.5961393232       24.0565628508  WZ4       1341            0.0000000000
     18869      6290  TIP3      H1             19.7006650248      -10.9923393232       23.3843128508  WZ4       1341            0.0000000000
     18870      6290  TIP3      H2             20.3553950248       -9.6856193232       23.7788928508  WZ4       1341            0.0000000000
     18871      6291  TIP3      OH2            18.5502050248       -1.8100993232       24.5217728508  WZ4       1343            0.0000000000
     18872      6291  TIP3      H1             18.1773150248       -2.6357193232       24.8308328508  WZ4       1343            0.0000000000
     18873      6291  TIP3      H2             18.8275550248       -1.9931593232       23.6241128508  WZ4       1343            0.0000000000
     18874      6292  TIP3      OH2            15.7105950248       -7.0021493232       31.5429628508  WZ4       1344            0.0000000000
     18875      6292  TIP3      H1             14.7822850248       -7.2339593232       31.5158928508  WZ4       1344            0.0000000000
     18876      6292  TIP3      H2             16.1617050248       -7.7791693232       31.2128428508  WZ4       1344            0.0000000000
     18877      6293  TIP3      OH2             8.2539050248       -2.6739893232       27.6758328508  WZ4       1345            0.0000000000
     18878      6293  TIP3      H1              8.7811250248       -1.9005493232       27.4757128508  WZ4       1345            0.0000000000
     18879      6293  TIP3      H2              7.3737550248       -2.4490693232       27.3742328508  WZ4       1345            0.0000000000
     18880      6294  TIP3      OH2             4.0086750248       -7.8115793232       22.2630728508  WZ4       1346            0.0000000000
     18881      6294  TIP3      H1              4.6246650248       -7.1848593232       22.6425528508  WZ4       1346            0.0000000000
     18882      6294  TIP3      H2              3.1469350248       -7.4955993232       22.5347228508  WZ4       1346            0.0000000000
     18883      6295  TIP3      OH2             9.6811350248       -5.0109993232       27.2522628508  WZ4       1347            0.0000000000
     18884      6295  TIP3      H1              9.4401350248       -4.0855593232       27.2937928508  WZ4       1347            0.0000000000
     18885      6295  TIP3      H2              8.9404950248       -5.4698693232       27.6486528508  WZ4       1347            0.0000000000
     18886      6296  TIP3      OH2            10.1957950248       -0.8616393232       33.5673728508  WZ4       1348            0.0000000000
     18887      6296  TIP3      H1             10.5582650248       -0.0070793232       33.3338128508  WZ4       1348            0.0000000000
     18888      6296  TIP3      H2             10.7273150248       -1.1534793232       34.3080028508  WZ4       1348            0.0000000000
     18889      6297  TIP3      OH2             8.3642150248        0.0107606768       26.7974828508  WZ4       1349            0.0000000000
     18890      6297  TIP3      H1              7.4142650248        0.1165006768       26.8488128508  WZ4       1349            0.0000000000
     18891      6297  TIP3      H2              8.7160250248        0.8315006768       27.1422328508  WZ4       1349            0.0000000000
     18892      6298  TIP3      OH2            13.7398750248       -4.7625693232       33.2679328508  WZ4       1350            0.0000000000
     18893      6298  TIP3      H1             13.3140050248       -4.9903993232       34.0943328508  WZ4       1350            0.0000000000
     18894      6298  TIP3      H2             14.3204550248       -5.5013893232       33.0854628508  WZ4       1350            0.0000000000
     18895      6299  TIP3      OH2            15.9427650248       -3.8335193232       22.3418328508  WZ4       1351            0.0000000000
     18896      6299  TIP3      H1             16.2960750248       -4.2135393232       23.1461828508  WZ4       1351            0.0000000000
     18897      6299  TIP3      H2             14.9941150248       -3.9270393232       22.4287628508  WZ4       1351            0.0000000000
     18898      6300  TIP3      OH2            20.4462050248        0.6457306768       22.5428528508  WZ4       1353            0.0000000000
     18899      6300  TIP3      H1             21.1899950248        1.2317806768       22.4030128508  WZ4       1353            0.0000000000
     18900      6300  TIP3      H2             19.7520150248        1.2143106768       22.8760928508  WZ4       1353            0.0000000000
     18901      6301  TIP3      OH2             4.5208850248      -12.9778493232       35.1446728508  WZ4       1354            0.0000000000
     18902      6301  TIP3      H1              3.6281150248      -12.6393093232       35.0770728508  WZ4       1354            0.0000000000
     18903      6301  TIP3      H2              4.4221650248      -13.8332393232       35.5627528508  WZ4       1354            0.0000000000
     18904      6302  TIP3      OH2            16.8086950248       -5.1613193232       24.5686228508  WZ4       1355            0.0000000000
     18905      6302  TIP3      H1             16.5314550248       -5.8893893232       25.1247328508  WZ4       1355            0.0000000000
     18906      6302  TIP3      H2             17.7359950248       -5.0421193232       24.7738828508  WZ4       1355            0.0000000000
     18907      6303  TIP3      OH2             4.1720850248       -1.1734093232       33.5796128508  WZ4       1356            0.0000000000
     18908      6303  TIP3      H1              4.3891150248       -2.1051693232       33.5485828508  WZ4       1356            0.0000000000
     18909      6303  TIP3      H2              4.4184350248       -0.8989093232       34.4628928508  WZ4       1356            0.0000000000
     18910      6304  TIP3      OH2            10.0335450248       -2.7219093232       20.7888328508  WZ4       1357            0.0000000000
     18911      6304  TIP3      H1             10.2725250248       -3.4700993232       20.2417228508  WZ4       1357            0.0000000000
     18912      6304  TIP3      H2              9.7646750248       -3.1097393232       21.6216128508  WZ4       1357            0.0000000000
     18913      6305  TIP3      OH2             8.9706050248       -3.1515293232       23.2450928508  WZ4       1358            0.0000000000
     18914      6305  TIP3      H1              9.1174050248       -3.6715493232       24.0351828508  WZ4       1358            0.0000000000
     18915      6305  TIP3      H2              8.9677750248       -2.2447693232       23.5516828508  WZ4       1358            0.0000000000
     18916      6306  TIP3      OH2             5.4237150248       -5.8991993232       23.7556328508  WZ4       1359            0.0000000000
     18917      6306  TIP3      H1              4.7376450248       -5.5469493232       24.3226028508  WZ4       1359            0.0000000000
     18918      6306  TIP3      H2              5.9465050248       -5.1362393232       23.5090628508  WZ4       1359            0.0000000000
     18919      6307  TIP3      OH2            14.0397150248      -13.5846493232       25.1317628508  WZ4       1361            0.0000000000
     18920      6307  TIP3      H1             14.2595450248      -13.1131093232       24.3283028508  WZ4       1361            0.0000000000
     18921      6307  TIP3      H2             14.5981150248      -13.1903893232       25.8018228508  WZ4       1361            0.0000000000
     18922      6308  TIP3      OH2            11.7083250248       -1.4541693232       23.9945128508  WZ4       1362            0.0000000000
     18923      6308  TIP3      H1             10.8919350248       -0.9571993232       24.0469428508  WZ4       1362            0.0000000000
     18924      6308  TIP3      H2             12.2379550248       -0.9788193232       23.3543928508  WZ4       1362            0.0000000000
     18925      6309  TIP3      OH2            11.2397050248      -11.8567693232       25.9666028508  WZ4       1363            0.0000000000
     18926      6309  TIP3      H1             12.0519650248      -11.3524493232       26.0127728508  WZ4       1363            0.0000000000
     18927      6309  TIP3      H2             10.9950050248      -12.0017993232       26.8805628508  WZ4       1363            0.0000000000
     18928      6310  TIP3      OH2            11.7753450248      -10.8704993232       35.1512628508  WZ4       1364            0.0000000000
     18929      6310  TIP3      H1             11.8943750248      -10.2969593232       35.9083028508  WZ4       1364            0.0000000000
     18930      6310  TIP3      H2             12.4308050248      -11.5585593232       35.2660428508  WZ4       1364            0.0000000000
     18931      6311  TIP3      OH2            12.1233750248      -14.7754693232       26.9047128508  WZ4       1365            0.0000000000
     18932      6311  TIP3      H1             11.7767250248      -14.1584093232       27.5491428508  WZ4       1365            0.0000000000
     18933      6311  TIP3      H2             12.7820650248      -14.2748993232       26.4232628508  WZ4       1365            0.0000000000
     18934      6312  TIP3      OH2             9.0466350248       -0.4104493232       23.9762028508  WZ4       1366            0.0000000000
     18935      6312  TIP3      H1              9.2075050248        0.3893006768       23.4754628508  WZ4       1366            0.0000000000
     18936      6312  TIP3      H2              8.8494150248       -0.1038493232       24.8612628508  WZ4       1366            0.0000000000
     18937      6313  TIP3      OH2             7.7810750248      -13.7125293232       23.5919628508  WZ4       1367            0.0000000000
     18938      6313  TIP3      H1              7.6975550248      -12.8242193232       23.9386028508  WZ4       1367            0.0000000000
     18939      6313  TIP3      H2              8.6711050248      -13.9778593232       23.8236428508  WZ4       1367            0.0000000000
     18940      6314  TIP3      OH2            16.5820250248       -9.2133693232       30.0819628508  WZ4       1369            0.0000000000
     18941      6314  TIP3      H1             15.7844650248       -9.6283493232       29.7534628508  WZ4       1369            0.0000000000
     18942      6314  TIP3      H2             17.0271350248       -9.9039993232       30.5730128508  WZ4       1369            0.0000000000
     18943      6315  TIP3      OH2             6.0396050248       -3.2853093232       22.6524128508  WZ4       1370            0.0000000000
     18944      6315  TIP3      H1              6.6317550248       -2.5858293232       22.9286528508  WZ4       1370            0.0000000000
     18945      6315  TIP3      H2              6.4989050248       -3.7183593232       21.9328728508  WZ4       1370            0.0000000000
     18946      6316  TIP3      OH2             4.3555250248      -10.6210093232       21.7683528508  WZ4       1371            0.0000000000
     18947      6316  TIP3      H1              4.3107850248       -9.6816993232       21.9470528508  WZ4       1371            0.0000000000
     18948      6316  TIP3      H2              3.4678450248      -10.8565193232       21.4985628508  WZ4       1371            0.0000000000
     18949      6317  TIP3      OH2             5.1637250248      -15.8393493232       30.4414528508  WZ4       1373            0.0000000000
     18950      6317  TIP3      H1              4.9347050248      -15.7800993232       29.5139528508  WZ4       1373            0.0000000000
     18951      6317  TIP3      H2              4.7210650248      -16.6307993232       30.7478628508  WZ4       1373            0.0000000000
     18952      6318  TIP3      OH2             4.0940550248       -1.8986393232       26.6020328508  WZ4       1374            0.0000000000
     18953      6318  TIP3      H1              3.2619150248       -1.4263693232       26.6291728508  WZ4       1374            0.0000000000
     18954      6318  TIP3      H2              4.6398850248       -1.3888793232       26.0033428508  WZ4       1374            0.0000000000
     18955      6319  TIP3      OH2            12.0717250248       -0.8587693232       20.9274328508  WZ4       1377            0.0000000000
     18956      6319  TIP3      H1             11.4278250248       -1.4899093232       21.2488028508  WZ4       1377            0.0000000000
     18957      6319  TIP3      H2             12.8335550248       -1.3899693232       20.6957828508  WZ4       1377            0.0000000000
     18958      6320  TIP3      OH2            16.6760150248       -1.0417793232       21.1612328508  WZ4       1379            0.0000000000
     18959      6320  TIP3      H1             16.9590550248       -1.8362593232       21.6139228508  WZ4       1379            0.0000000000
     18960      6320  TIP3      H2             17.4158050248       -0.8086793232       20.6003428508  WZ4       1379            0.0000000000
     18961      6321  TIP3      OH2             7.6307450248       -5.1322893232       21.0187228508  WZ4       1381            0.0000000000
     18962      6321  TIP3      H1              7.6951550248       -5.9263293232       21.5493628508  WZ4       1381            0.0000000000
     18963      6321  TIP3      H2              8.2836650248       -5.2510093232       20.3289228508  WZ4       1381            0.0000000000
     18964      6322  TIP3      OH2            12.9830850248       -4.0851193232       20.7545228508  WZ4       1383            0.0000000000
     18965      6322  TIP3      H1             12.7144950248       -3.9049093232       21.6554128508  WZ4       1383            0.0000000000
     18966      6322  TIP3      H2             12.7766450248       -5.0104993232       20.6231028508  WZ4       1383            0.0000000000
     18967      6323  TIP3      OH2             8.7801250248       -7.1596693232       23.3245228508  WZ4       1386            0.0000000000
     18968      6323  TIP3      H1              8.3203250248       -7.6438393232       24.0103728508  WZ4       1386            0.0000000000
     18969      6323  TIP3      H2              9.0349950248       -7.8281293232       22.6885728508  WZ4       1386            0.0000000000
     18970      6324  TIP3      OH2             9.8511650248       -8.9164893232       21.5868428508  WZ4       1388            0.0000000000
     18971      6324  TIP3      H1              9.6706650248       -9.0713693232       20.6596728508  WZ4       1388            0.0000000000
     18972      6324  TIP3      H2             10.8012150248       -8.8086193232       21.6316328508  WZ4       1388            0.0000000000
     18973      6325  TIP3      OH2            19.2409950248       -6.5620693232       21.0326528508  WZ4       1390            0.0000000000
     18974      6325  TIP3      H1             18.9674750248       -6.9865193232       20.2194828508  WZ4       1390            0.0000000000
     18975      6325  TIP3      H2             19.2804050248       -5.6306193232       20.8156928508  WZ4       1390            0.0000000000
     18976      6326  TIP3      OH2             8.8209950248      -13.5422993232       34.2555328508  WZ4       1392            0.0000000000
     18977      6326  TIP3      H1              9.3567450248      -13.0906293232       33.6034628508  WZ4       1392            0.0000000000
     18978      6326  TIP3      H2              7.9689550248      -13.6503193232       33.8329428508  WZ4       1392            0.0000000000
     18979      6327  TIP3      OH2            10.4028350248       -8.1026793232       34.4950528508  WZ4       1393            0.0000000000
     18980      6327  TIP3      H1             11.1533150248       -8.2589293232       33.9218328508  WZ4       1393            0.0000000000
     18981      6327  TIP3      H2             10.0636650248       -7.2510193232       34.2196028508  WZ4       1393            0.0000000000
     18982      6328  TIP3      OH2             9.6265450248      -16.0857293232       34.6868928508  WZ4       1397            0.0000000000
     18983      6328  TIP3      H1              9.5285050248      -15.1394093232       34.5815128508  WZ4       1397            0.0000000000
     18984      6328  TIP3      H2              8.8841650248      -16.4583493232       34.2112428508  WZ4       1397            0.0000000000
     18985      6329  TIP3      OH2             9.7483350248        1.7738806768       22.5882028508  WZ4       1404            0.0000000000
     18986      6329  TIP3      H1             10.6814050248        1.9317506768       22.7320428508  WZ4       1404            0.0000000000
     18987      6329  TIP3      H2              9.4842150248        2.4491806768       21.9633528508  WZ4       1404            0.0000000000
     18988      6330  TIP3      OH2             3.3168250248       -3.5897393232       22.0710128508  WZ4       1405            0.0000000000
     18989      6330  TIP3      H1              4.2307450248       -3.5108493232       22.3444028508  WZ4       1405            0.0000000000
     18990      6330  TIP3      H2              3.3241350248       -4.2767793232       21.4045728508  WZ4       1405            0.0000000000
     18991      6331  TIP3      OH2             1.9658850248        1.8031106768       27.1484028508  WZ4       1406            0.0000000000
     18992      6331  TIP3      H1              1.3185950248        1.3412806768       26.6155228508  WZ4       1406            0.0000000000
     18993      6331  TIP3      H2              2.3203450248        1.1314406768       27.7310228508  WZ4       1406            0.0000000000
     18994      6332  TIP3      OH2             2.8358050248       -0.1161893232       28.9530228508  WZ4       1407            0.0000000000
     18995      6332  TIP3      H1              2.5014850248       -0.9964593232       29.1250428508  WZ4       1407            0.0000000000
     18996      6332  TIP3      H2              3.0580450248        0.2293106768       29.8175828508  WZ4       1407            0.0000000000
     18997      6333  TIP3      OH2            19.6992750248       -5.6932593232       25.0076928508  WZ4       1411            0.0000000000
     18998      6333  TIP3      H1             20.5494150248       -5.2721693232       25.1348528508  WZ4       1411            0.0000000000
     18999      6333  TIP3      H2             19.7047850248       -6.4332493232       25.6148328508  WZ4       1411            0.0000000000
     19000      6334  TIP3      OH2            20.0938350248       -7.6395193232       26.8312628508  WZ4       1412            0.0000000000
     19001      6334  TIP3      H1             19.3672950248       -8.1192593232       27.2290228508  WZ4       1412            0.0000000000
     19002      6334  TIP3      H2             20.6751650248       -7.4340493232       27.5634228508  WZ4       1412            0.0000000000
     19003      6335  TIP3      OH2            20.3621450248       -7.7386693232       23.2223928508  WZ4       1415            0.0000000000
     19004      6335  TIP3      H1             19.8402550248       -7.3822593232       22.5034828508  WZ4       1415            0.0000000000
     19005      6335  TIP3      H2             20.3290650248       -7.0638893232       23.9004828508  WZ4       1415            0.0000000000
     19006      6336  TIP3      OH2            18.7110450248      -10.4991093232       21.7731028508  WZ4       1416            0.0000000000
     19007      6336  TIP3      H1             18.8074850248       -9.8324093232       21.0930728508  WZ4       1416            0.0000000000
     19008      6336  TIP3      H2             18.5710050248      -11.3144793232       21.2916528508  WZ4       1416            0.0000000000
     19009      6337  TIP3      OH2            17.8805150248       -9.1188693232       27.3941328508  WZ4       1417            0.0000000000
     19010      6337  TIP3      H1             17.7303950248      -10.0640093232       27.3739128508  WZ4       1417            0.0000000000
     19011      6337  TIP3      H2             17.5269650248       -8.8377293232       28.2380428508  WZ4       1417            0.0000000000
     19012      6338  TIP3      OH2             2.9157550248       -7.0406493232       31.4045128508  WZ4       1418            0.0000000000
     19013      6338  TIP3      H1              3.1000450248       -7.1224793232       30.4688028508  WZ4       1418            0.0000000000
     19014      6338  TIP3      H2              3.7650450248       -7.1649493232       31.8281528508  WZ4       1418            0.0000000000
     19015      6339  TIP3      OH2            17.9584250248      -13.0911293232       20.8906528508  WZ4       1421            0.0000000000
     19016      6339  TIP3      H1             18.5690050248      -13.4624493232       21.5274728508  WZ4       1421            0.0000000000
     19017      6339  TIP3      H2             17.1215750248      -13.5124393232       21.0866528508  WZ4       1421            0.0000000000
     19018      6340  TIP3      OH2            17.5909950248      -11.5362893232       25.8566428508  WZ4       1422            0.0000000000
     19019      6340  TIP3      H1             17.8707050248      -12.4432493232       25.9808128508  WZ4       1422            0.0000000000
     19020      6340  TIP3      H2             18.3501650248      -11.1021393232       25.4675628508  WZ4       1422            0.0000000000
     19021      6341  TIP3      OH2            18.2028250248      -10.9545493232       31.2925328508  WZ4       1423            0.0000000000
     19022      6341  TIP3      H1             19.1356250248      -10.7425593232       31.2581328508  WZ4       1423            0.0000000000
     19023      6341  TIP3      H2             17.9675750248      -10.8533393232       32.2148328508  WZ4       1423            0.0000000000
     19024      6342  TIP3      OH2            18.2044750248      -14.2733593232       25.9048428508  WZ4       1427            0.0000000000
     19025      6342  TIP3      H1             18.3869750248      -14.7222093232       26.7303428508  WZ4       1427            0.0000000000
     19026      6342  TIP3      H2             17.6047650248      -14.8579193232       25.4413028508  WZ4       1427            0.0000000000
     19027      6343  TIP3      OH2             3.7344850248      -13.4579893232       30.4366828508  WZ4       1428            0.0000000000
     19028      6343  TIP3      H1              4.1796450248      -14.2497393232       30.7386528508  WZ4       1428            0.0000000000
     19029      6343  TIP3      H2              4.2007850248      -12.7414693232       30.8672428508  WZ4       1428            0.0000000000
     19030      6344  TIP3      OH2             2.0385150248      -10.4586893232       31.5057028508  WZ4       1429            0.0000000000
     19031      6344  TIP3      H1              2.5304950248      -10.6796393232       30.7149028508  WZ4       1429            0.0000000000
     19032      6344  TIP3      H2              2.4006050248       -9.6183493232       31.7866528508  WZ4       1429            0.0000000000
     19033      6345  TIP3      OH2            20.0710950248      -14.2055493232       22.4328728508  WZ4       1431            0.0000000000
     19034      6345  TIP3      H1             20.4833550248      -14.9269793232       21.9576728508  WZ4       1431            0.0000000000
     19035      6345  TIP3      H2             20.7527450248      -13.5360893232       22.4913028508  WZ4       1431            0.0000000000
     19036      6346  TIP3      OH2             2.3521650248      -14.2007793232       25.5599428508  WZ4       1432            0.0000000000
     19037      6346  TIP3      H1              1.4270050248      -13.9921193232       25.4304928508  WZ4       1432            0.0000000000
     19038      6346  TIP3      H2              2.8061550248      -13.7166993232       24.8701728508  WZ4       1432            0.0000000000
     19039      6347  TIP3      OH2            17.1228850248        0.7833906768       27.5056828508  WZ4       1433            0.0000000000
     19040      6347  TIP3      H1             17.7751750248        0.4356006768       26.8975928508  WZ4       1433            0.0000000000
     19041      6347  TIP3      H2             17.6332650248        1.2717106768       28.1516528508  WZ4       1433            0.0000000000
     19042      6348  TIP3      OH2             2.3157050248      -15.4628793232       33.9041928508  WZ4       1434            0.0000000000
     19043      6348  TIP3      H1              1.6507550248      -15.7088493232       34.5472828508  WZ4       1434            0.0000000000
     19044      6348  TIP3      H2              1.8728350248      -14.8408393232       33.3269928508  WZ4       1434            0.0000000000
     19045      6349  TIP3      OH2             7.4619250248       -1.3133493232       34.3071728508  WZ4       1436            0.0000000000
     19046      6349  TIP3      H1              7.0370350248       -0.5034993232       34.0246328508  WZ4       1436            0.0000000000
     19047      6349  TIP3      H2              8.3662050248       -1.2279393232       34.0051528508  WZ4       1436            0.0000000000
     19048      6350  TIP3      OH2             4.8635950248        1.9430406768       34.3547028508  WZ4       1440            0.0000000000
     19049      6350  TIP3      H1              4.1432350248        2.3831406768       33.9034728508  WZ4       1440            0.0000000000
     19050      6350  TIP3      H2              4.4979950248        1.6925106768       35.2031028508  WZ4       1440            0.0000000000
     19051      6351  TIP3      OH2             7.3308550248        1.5434306768       33.3844228508  WZ4       1441            0.0000000000
     19052      6351  TIP3      H1              6.4660750248        1.6152806768       33.7884328508  WZ4       1441            0.0000000000
     19053      6351  TIP3      H2              7.2757550248        2.0901606768       32.6006728508  WZ4       1441            0.0000000000
     19054      6352  TIP3      OH2             4.2784050248        0.5662906768       31.2648828508  WZ4       1445            0.0000000000
     19055      6352  TIP3      H1              4.2600050248        0.1408006768       32.1221128508  WZ4       1445            0.0000000000
     19056      6352  TIP3      H2              5.0831950248        0.2477906768       30.8561028508  WZ4       1445            0.0000000000
     19057      6353  TIP3      OH2             6.4197150248       -0.7238393232       29.9198728508  WZ4       1446            0.0000000000
     19058      6353  TIP3      H1              6.2007850248       -1.6400993232       30.0894728508  WZ4       1446            0.0000000000
     19059      6353  TIP3      H2              7.2439350248       -0.5837993232       30.3860128508  WZ4       1446            0.0000000000
     19060      6354  TIP3      OH2             8.9569650248       -0.2539093232       30.7686728508  WZ4       1447            0.0000000000
     19061      6354  TIP3      H1              9.1695350248       -1.1420093232       30.4817628508  WZ4       1447            0.0000000000
     19062      6354  TIP3      H2              9.0214750248       -0.2881393232       31.7230728508  WZ4       1447            0.0000000000
     19063      6355  TIP3      OH2            12.4653350248      -14.5898493232       29.9130028508  WZ4       1448            0.0000000000
     19064      6355  TIP3      H1             11.7910150248      -15.2192893232       30.1685828508  WZ4       1448            0.0000000000
     19065      6355  TIP3      H2             13.0292550248      -15.0739593232       29.3097928508  WZ4       1448            0.0000000000
     19066      6356  TIP3      OH2            17.6080550248      -16.4824493232       30.0257128508  WZ4       1449            0.0000000000
     19067      6356  TIP3      H1             18.2118150248      -15.9349093232       29.5238128508  WZ4       1449            0.0000000000
     19068      6356  TIP3      H2             16.7382550248      -16.1634093232       29.7851228508  WZ4       1449            0.0000000000
     19069      6357  TIP3      OH2            19.3350950248      -15.3435793232       28.3588028508  WZ4       1450            0.0000000000
     19070      6357  TIP3      H1             19.9468450248      -15.8580093232       27.8321628508  WZ4       1450            0.0000000000
     19071      6357  TIP3      H2             19.7174350248      -14.4663693232       28.3822428508  WZ4       1450            0.0000000000
     19072      6358  TIP3      OH2             4.7920850248      -15.9558193232       27.7349928508  WZ4       1451            0.0000000000
     19073      6358  TIP3      H1              4.0150650248      -16.1903293232       27.2275828508  WZ4       1451            0.0000000000
     19074      6358  TIP3      H2              5.3224450248      -16.7526093232       27.7437928508  WZ4       1451            0.0000000000
     19075      6359  TIP3      OH2             3.6284250248      -16.1580093232       23.5386028508  WZ4       1452            0.0000000000
     19076      6359  TIP3      H1              4.0674950248      -15.5469593232       22.9469528508  WZ4       1452            0.0000000000
     19077      6359  TIP3      H2              2.9946650248      -15.6195993232       24.0126028508  WZ4       1452            0.0000000000
     19078      6360  TIP3      OH2             9.3713450248      -16.0291093232       27.5483028508  WZ4       1453            0.0000000000
     19079      6360  TIP3      H1             10.2456850248      -15.6406793232       27.5187328508  WZ4       1453            0.0000000000
     19080      6360  TIP3      H2              9.2354250248      -16.2443293232       28.4710228508  WZ4       1453            0.0000000000
     19081      6361  TIP3      OH2            14.9281850248      -15.9991293232       29.1974728508  WZ4       1454            0.0000000000
     19082      6361  TIP3      H1             15.0043450248      -15.9039693232       28.2480728508  WZ4       1454            0.0000000000
     19083      6361  TIP3      H2             14.6531050248      -16.9068393232       29.3263828508  WZ4       1454            0.0000000000
     19084      6362  TIP3      OH2            16.2814450248      -15.9733493232       24.8899728508  WZ4       1455            0.0000000000
     19085      6362  TIP3      H1             15.5785550248      -15.3584293232       24.6801128508  WZ4       1455            0.0000000000
     19086      6362  TIP3      H2             15.8365850248      -16.8106793232       25.0210628508  WZ4       1455            0.0000000000
     19087      6363  TIP3      OH2             3.5293750248       -0.2097893232       24.4361128508  WZ4       1456            0.0000000000
     19088      6363  TIP3      H1              2.8443650248       -0.2478993232       23.7686228508  WZ4       1456            0.0000000000
     19089      6363  TIP3      H2              3.5330950248        0.7029706768       24.7243228508  WZ4       1456            0.0000000000
     19090      6364  TIP3      OH2             5.4893350248      -14.2418593232       21.9810128508  WZ4       1457            0.0000000000
     19091      6364  TIP3      H1              5.9806750248      -14.8716193232       21.4535628508  WZ4       1457            0.0000000000
     19092      6364  TIP3      H2              6.1129650248      -13.9459193232       22.6441328508  WZ4       1457            0.0000000000
     19093      6365  TIP3      OH2            10.5153450248      -13.9487093232       24.4380628508  WZ4       1458            0.0000000000
     19094      6365  TIP3      H1             10.6934750248      -14.5953893232       25.1209228508  WZ4       1458            0.0000000000
     19095      6365  TIP3      H2             10.4619650248      -13.1149393232       24.9051728508  WZ4       1458            0.0000000000
     19096      6366  TIP3      OH2            12.3937250248        0.9997006768       22.8337328508  WZ4       1459            0.0000000000
     19097      6366  TIP3      H1             13.2597450248        1.3664406768       22.6555528508  WZ4       1459            0.0000000000
     19098      6366  TIP3      H2             12.1470050248        0.5605006768       22.0198128508  WZ4       1459            0.0000000000
     19099      6367  TIP3      OH2            19.1026850248        0.5627306768       25.5128428508  WZ4       1460            0.0000000000
     19100      6367  TIP3      H1             18.9083950248       -0.1850593232       24.9478028508  WZ4       1460            0.0000000000
     19101      6367  TIP3      H2             19.0636950248        1.3207406768       24.9296328508  WZ4       1460            0.0000000000
     19102      6368  TIP3      OH2             5.3474950248        0.7102906768       21.4613228508  WZ4       1463            0.0000000000
     19103      6368  TIP3      H1              5.0799550248        0.9965806768       22.3346328508  WZ4       1463            0.0000000000
     19104      6368  TIP3      H2              6.1187550248        0.1642106768       21.6135728508  WZ4       1463            0.0000000000
     19105      6369  TIP3      OH2            21.5613350248       -9.8201593232       26.6333428508  WZ4       1471            0.0000000000
     19106      6369  TIP3      H1             21.1136750248       -8.9742893232       26.6149928508  WZ4       1471            0.0000000000
     19107      6369  TIP3      H2             21.0004550248      -10.3997393232       26.1178528508  WZ4       1471            0.0000000000
     19108      6370  TIP3      OH2            22.2719450248       -7.6581993232       28.7591428508  WZ4       1472            0.0000000000
     19109      6370  TIP3      H1             22.4852950248       -8.4280393232       29.2864428508  WZ4       1472            0.0000000000
     19110      6370  TIP3      H2             23.0097050248       -7.5685293232       28.1559028508  WZ4       1472            0.0000000000
     19111      6371  TIP3      OH2            22.9645950248      -10.2199193232       29.8807628508  WZ4       1478            0.0000000000
     19112      6371  TIP3      H1             23.6182550248      -10.7697493232       30.3127728508  WZ4       1478            0.0000000000
     19113      6371  TIP3      H2             22.9885250248      -10.4940193232       28.9639628508  WZ4       1478            0.0000000000
     19114      6372  TIP3      OH2            22.2522950248       -4.3879993232       25.0491528508  WZ4       1485            0.0000000000
     19115      6372  TIP3      H1             21.9803850248       -4.1588993232       24.1604428508  WZ4       1485            0.0000000000
     19116      6372  TIP3      H2             22.2978650248       -3.5501193232       25.5096828508  WZ4       1485            0.0000000000
     19117      6373  TIP3      OH2            25.4890050248       -7.6462093232       25.5691428508  WZ4       1502            0.0000000000
     19118      6373  TIP3      H1             25.1971350248       -6.8780393232       25.0782728508  WZ4       1502            0.0000000000
     19119      6373  TIP3      H2             24.8145250248       -8.3055893232       25.4062828508  WZ4       1502            0.0000000000
     19120      6374  TIP3      OH2            26.5377850248      -10.3032393232       27.4298428508  WZ4       1517            0.0000000000
     19121      6374  TIP3      H1             25.6450750248      -10.6436293232       27.3712228508  WZ4       1517            0.0000000000
     19122      6374  TIP3      H2             26.9884450248      -10.6801493232       26.6741628508  WZ4       1517            0.0000000000
     19123      6375  TIP3      OH2            27.6566650248      -12.8296693232       21.1836428508  WZ4       1522            0.0000000000
     19124      6375  TIP3      H1             27.2257350248      -13.2746593232       21.9133828508  WZ4       1522            0.0000000000
     19125      6375  TIP3      H2             26.9385350248      -12.4580393232       20.6713928508  WZ4       1522            0.0000000000
     19126      6376  TIP3      OH2            20.8990050248      -13.0877193232       28.2355128508  WZ4       1523            0.0000000000
     19127      6376  TIP3      H1             21.5297750248      -13.1165093232       28.9549028508  WZ4       1523            0.0000000000
     19128      6376  TIP3      H2             21.3484350248      -13.5128493232       27.5051028508  WZ4       1523            0.0000000000
     19129      6377  TIP3      OH2            22.1732150248      -12.3415193232       23.6595528508  WZ4       1524            0.0000000000
     19130      6377  TIP3      H1             22.6473850248      -11.7505293232       23.0746428508  WZ4       1524            0.0000000000
     19131      6377  TIP3      H2             21.4558550248      -11.8112293232       24.0065628508  WZ4       1524            0.0000000000
     19132      6378  TIP3      OH2            23.9476550248      -11.2468593232       27.3430128508  WZ4       1527            0.0000000000
     19133      6378  TIP3      H1             23.0584550248      -11.1473093232       27.0029728508  WZ4       1527            0.0000000000
     19134      6378  TIP3      H2             24.2441450248      -12.0885593232       26.9968028508  WZ4       1527            0.0000000000
     19135      6379  TIP3      OH2            27.6008350248      -11.2465993232       24.9994728508  WZ4       1528            0.0000000000
     19136      6379  TIP3      H1             28.5323850248      -11.1175993232       25.1777828508  WZ4       1528            0.0000000000
     19137      6379  TIP3      H2             27.3858650248      -10.5771693232       24.3499428508  WZ4       1528            0.0000000000
     19138      6380  TIP3      OH2            26.2748550248      -10.0523793232       22.5660828508  WZ4       1530            0.0000000000
     19139      6380  TIP3      H1             25.7323650248      -10.4319993232       21.8748428508  WZ4       1530            0.0000000000
     19140      6380  TIP3      H2             27.1083450248       -9.8579093232       22.1374928508  WZ4       1530            0.0000000000
     19141      6381  TIP3      OH2            29.6101350248       -5.4868093232       24.5018928508  WZ4       1535            0.0000000000
     19142      6381  TIP3      H1             28.8652350248       -5.9942793232       24.1796828508  WZ4       1535            0.0000000000
     19143      6381  TIP3      H2             29.4758550248       -5.4380093232       25.4483728508  WZ4       1535            0.0000000000
     19144      6382  TIP3      OH2            22.8646750248       -7.8115793232       22.2630728508  WZ4       1546            0.0000000000
     19145      6382  TIP3      H1             23.4806650248       -7.1848593232       22.6425528508  WZ4       1546            0.0000000000
     19146      6382  TIP3      H2             22.0029350248       -7.4955993232       22.5347228508  WZ4       1546            0.0000000000
     19147      6383  TIP3      OH2            28.8895450248       -2.7219093232       20.7888328508  WZ4       1556            0.0000000000
     19148      6383  TIP3      H1             29.1285250248       -3.4700993232       20.2417228508  WZ4       1556            0.0000000000
     19149      6383  TIP3      H2             28.6206750248       -3.1097393232       21.6216128508  WZ4       1556            0.0000000000
     19150      6384  TIP3      OH2            27.8266050248       -3.1515293232       23.2450928508  WZ4       1557            0.0000000000
     19151      6384  TIP3      H1             27.9734050248       -3.6715493232       24.0351828508  WZ4       1557            0.0000000000
     19152      6384  TIP3      H2             27.8237750248       -2.2447693232       23.5516828508  WZ4       1557            0.0000000000
     19153      6385  TIP3      OH2            24.2797150248       -5.8991993232       23.7556328508  WZ4       1558            0.0000000000
     19154      6385  TIP3      H1             23.5936450248       -5.5469493232       24.3226028508  WZ4       1558            0.0000000000
     19155      6385  TIP3      H2             24.8025050248       -5.1362393232       23.5090628508  WZ4       1558            0.0000000000
     19156      6386  TIP3      OH2            26.6370750248      -13.7125293232       23.5919628508  WZ4       1566            0.0000000000
     19157      6386  TIP3      H1             26.5535550248      -12.8242193232       23.9386028508  WZ4       1566            0.0000000000
     19158      6386  TIP3      H2             27.5271050248      -13.9778593232       23.8236428508  WZ4       1566            0.0000000000
     19159      6387  TIP3      OH2            24.8956050248       -3.2853093232       22.6524128508  WZ4       1568            0.0000000000
     19160      6387  TIP3      H1             25.4877550248       -2.5858293232       22.9286528508  WZ4       1568            0.0000000000
     19161      6387  TIP3      H2             25.3549050248       -3.7183593232       21.9328728508  WZ4       1568            0.0000000000
     19162      6388  TIP3      OH2            23.2115250248      -10.6210093232       21.7683528508  WZ4       1569            0.0000000000
     19163      6388  TIP3      H1             23.1667850248       -9.6816993232       21.9470528508  WZ4       1569            0.0000000000
     19164      6388  TIP3      H2             22.3238450248      -10.8565193232       21.4985628508  WZ4       1569            0.0000000000
     19165      6389  TIP3      OH2            22.9500550248       -1.8986393232       26.6020328508  WZ4       1571            0.0000000000
     19166      6389  TIP3      H1             22.1179150248       -1.4263693232       26.6291728508  WZ4       1571            0.0000000000
     19167      6389  TIP3      H2             23.4958850248       -1.3888793232       26.0033428508  WZ4       1571            0.0000000000
     19168      6390  TIP3      OH2            30.9277250248       -0.8587693232       20.9274328508  WZ4       1574            0.0000000000
     19169      6390  TIP3      H1             30.2838250248       -1.4899093232       21.2488028508  WZ4       1574            0.0000000000
     19170      6390  TIP3      H2             31.6895550248       -1.3899693232       20.6957828508  WZ4       1574            0.0000000000
     19171      6391  TIP3      OH2            26.4867450248       -5.1322893232       21.0187228508  WZ4       1578            0.0000000000
     19172      6391  TIP3      H1             26.5511550248       -5.9263293232       21.5493628508  WZ4       1578            0.0000000000
     19173      6391  TIP3      H2             27.1396650248       -5.2510093232       20.3289228508  WZ4       1578            0.0000000000
     19174      6392  TIP3      OH2            31.8390850248       -4.0851193232       20.7545228508  WZ4       1580            0.0000000000
     19175      6392  TIP3      H1             31.5704950248       -3.9049093232       21.6554128508  WZ4       1580            0.0000000000
     19176      6392  TIP3      H2             31.6326450248       -5.0104993232       20.6231028508  WZ4       1580            0.0000000000
     19177      6393  TIP3      OH2            27.6361250248       -7.1596693232       23.3245228508  WZ4       1583            0.0000000000
     19178      6393  TIP3      H1             27.1763250248       -7.6438393232       24.0103728508  WZ4       1583            0.0000000000
     19179      6393  TIP3      H2             27.8909950248       -7.8281293232       22.6885728508  WZ4       1583            0.0000000000
     19180      6394  TIP3      OH2            28.7071650248       -8.9164893232       21.5868428508  WZ4       1585            0.0000000000
     19181      6394  TIP3      H1             28.5266650248       -9.0713693232       20.6596728508  WZ4       1585            0.0000000000
     19182      6394  TIP3      H2             29.6572150248       -8.8086193232       21.6316328508  WZ4       1585            0.0000000000
     19183      6395  TIP3      OH2            22.1728250248       -3.5897393232       22.0710128508  WZ4       1601            0.0000000000
     19184      6395  TIP3      H1             23.0867450248       -3.5108493232       22.3444028508  WZ4       1601            0.0000000000
     19185      6395  TIP3      H2             22.1801350248       -4.2767793232       21.4045728508  WZ4       1601            0.0000000000
     19186      6396  TIP3      OH2            20.8218850248        1.8031106768       27.1484028508  WZ4       1602            0.0000000000
     19187      6396  TIP3      H1             20.1745950248        1.3412806768       26.6155228508  WZ4       1602            0.0000000000
     19188      6396  TIP3      H2             21.1763450248        1.1314406768       27.7310228508  WZ4       1602            0.0000000000
     19189      6397  TIP3      OH2            20.8945150248      -10.4586893232       31.5057028508  WZ4       1607            0.0000000000
     19190      6397  TIP3      H1             21.3864950248      -10.6796393232       30.7149028508  WZ4       1607            0.0000000000
     19191      6397  TIP3      H2             21.2566050248       -9.6183493232       31.7866528508  WZ4       1607            0.0000000000
     19192      6398  TIP3      OH2            21.2081650248      -14.2007793232       25.5599428508  WZ4       1608            0.0000000000
     19193      6398  TIP3      H1             20.2830050248      -13.9921193232       25.4304928508  WZ4       1608            0.0000000000
     19194      6398  TIP3      H2             21.6621550248      -13.7166993232       24.8701728508  WZ4       1608            0.0000000000
     19195      6399  TIP3      OH2            22.4844250248      -16.1580093232       23.5386028508  WZ4       1623            0.0000000000
     19196      6399  TIP3      H1             22.9234950248      -15.5469593232       22.9469528508  WZ4       1623            0.0000000000
     19197      6399  TIP3      H2             21.8506650248      -15.6195993232       24.0126028508  WZ4       1623            0.0000000000
     19198      6400  TIP3      OH2            22.3853750248       -0.2097893232       24.4361128508  WZ4       1627            0.0000000000
     19199      6400  TIP3      H1             21.7003650248       -0.2478993232       23.7686228508  WZ4       1627            0.0000000000
     19200      6400  TIP3      H2             22.3890950248        0.7029706768       24.7243228508  WZ4       1627            0.0000000000
     19201      6401  TIP3      OH2            24.3453350248      -14.2418593232       21.9810128508  WZ4       1628            0.0000000000
     19202      6401  TIP3      H1             24.8366750248      -14.8716193232       21.4535628508  WZ4       1628            0.0000000000
     19203      6401  TIP3      H2             24.9689650248      -13.9459193232       22.6441328508  WZ4       1628            0.0000000000
     19204      6402  TIP3      OH2            24.2034950248        0.7102906768       21.4613228508  WZ4       1633            0.0000000000
     19205      6402  TIP3      H1             23.9359550248        0.9965806768       22.3346328508  WZ4       1633            0.0000000000
     19206      6402  TIP3      H2             24.9747550248        0.1642106768       21.6135728508  WZ4       1633            0.0000000000
     19207      6403  TIP3      OH2           -23.8416549752       12.0564106768       27.6937428508  WZ4       1635            0.0000000000
     19208      6403  TIP3      H1            -23.7525449752       13.0002306768       27.5614528508  WZ4       1635            0.0000000000
     19209      6403  TIP3      H2            -24.4798949752       11.7810506768       27.0356828508  WZ4       1635            0.0000000000
     19210      6404  TIP3      OH2           -22.5012849752        6.3700606768       27.5194528508  WZ4       1647            0.0000000000
     19211      6404  TIP3      H1            -21.8548549752        6.0413806768       28.1442128508  WZ4       1647            0.0000000000
     19212      6404  TIP3      H2            -21.9913449752        6.8879606768       26.8965928508  WZ4       1647            0.0000000000
     19213      6405  TIP3      OH2           -24.0443849752       14.6574506768       26.7366128508  WZ4       1652            0.0000000000
     19214      6405  TIP3      H1            -24.3398749752       14.3346806768       25.8853028508  WZ4       1652            0.0000000000
     19215      6405  TIP3      H2            -24.3686049752       15.5571206768       26.7778728508  WZ4       1652            0.0000000000
     19216      6406  TIP3      OH2           -20.7374449752        5.6609906768       29.5000428508  WZ4       1654            0.0000000000
     19217      6406  TIP3      H1            -20.9526449752        4.8953306768       30.0326428508  WZ4       1654            0.0000000000
     19218      6406  TIP3      H2            -20.0817049752        6.1334506768       30.0128928508  WZ4       1654            0.0000000000
     19219      6407  TIP3      OH2           -21.2789649752       15.7717906768       26.8958228508  WZ4       1662            0.0000000000
     19220      6407  TIP3      H1            -21.5364849752       15.0818006768       26.2844128508  WZ4       1662            0.0000000000
     19221      6407  TIP3      H2            -21.2078849752       15.3289106768       27.7414128508  WZ4       1662            0.0000000000
     19222      6408  TIP3      OH2           -25.1204049752       11.3004106768       25.1457728508  WZ4       1664            0.0000000000
     19223      6408  TIP3      H1            -25.8318549752       11.8353806768       24.7938228508  WZ4       1664            0.0000000000
     19224      6408  TIP3      H2            -24.4294449752       11.3556206768       24.4856628508  WZ4       1664            0.0000000000
     19225      6409  TIP3      OH2           -25.0664849752        9.7578406768       22.1842728508  WZ4       1665            0.0000000000
     19226      6409  TIP3      H1            -24.3654949752        9.7805306768       22.8356728508  WZ4       1665            0.0000000000
     19227      6409  TIP3      H2            -24.7641949752        9.1298106768       21.5282028508  WZ4       1665            0.0000000000
     19228      6410  TIP3      OH2           -17.7510149752       10.6782606768       33.4392128508  WZ4       1666            0.0000000000
     19229      6410  TIP3      H1            -18.4036049752       11.3728206768       33.5283028508  WZ4       1666            0.0000000000
     19230      6410  TIP3      H2            -17.2859849752       10.8883506768       32.6293728508  WZ4       1666            0.0000000000
     19231      6411  TIP3      OH2           -21.7146349752       11.5097406768       26.0973628508  WZ4       1667            0.0000000000
     19232      6411  TIP3      H1            -22.4465349752       11.7381106768       26.6704228508  WZ4       1667            0.0000000000
     19233      6411  TIP3      H2            -21.2674149752       10.7960106768       26.5521128508  WZ4       1667            0.0000000000
     19234      6412  TIP3      OH2           -22.8436849752       10.6720306768       23.7824828508  WZ4       1674            0.0000000000
     19235      6412  TIP3      H1            -22.2641349752       10.8220606768       24.5293728508  WZ4       1674            0.0000000000
     19236      6412  TIP3      H2            -22.4296849752       11.1427706768       23.0591228508  WZ4       1674            0.0000000000
     19237      6413  TIP3      OH2           -19.1448449752        2.4220706768       23.5954528508  WZ4       1678            0.0000000000
     19238      6413  TIP3      H1            -20.0447749752        2.5609706768       23.8905128508  WZ4       1678            0.0000000000
     19239      6413  TIP3      H2            -18.8930049752        3.2535306768       23.1936228508  WZ4       1678            0.0000000000
     19240      6414  TIP3      OH2           -17.9557049752       16.7883106768       21.9718428508  WZ4       1680            0.0000000000
     19241      6414  TIP3      H1            -17.8823549752       17.7273306768       22.1423728508  WZ4       1680            0.0000000000
     19242      6414  TIP3      H2            -17.0501949752       16.4831706768       21.9155728508  WZ4       1680            0.0000000000
     19243      6415  TIP3      OH2           -22.5432849752       19.5193706768       22.6349528508  WZ4       1687            0.0000000000
     19244      6415  TIP3      H1            -22.1684449752       18.7749806768       22.1642128508  WZ4       1687            0.0000000000
     19245      6415  TIP3      H2            -22.5389149752       19.2494306768       23.5532828508  WZ4       1687            0.0000000000
     19246      6416  TIP3      OH2           -21.3663749752       11.7048606768       21.4122728508  WZ4       1694            0.0000000000
     19247      6416  TIP3      H1            -21.3242949752       11.4822506768       20.4822728508  WZ4       1694            0.0000000000
     19248      6416  TIP3      H2            -20.5171649752       12.1035706768       21.6022628508  WZ4       1694            0.0000000000
     19249      6417  TIP3      OH2           -25.7936249752        5.5806806768       22.0826028508  WZ4       1695            0.0000000000
     19250      6417  TIP3      H1            -26.0471449752        5.5998406768       23.0054128508  WZ4       1695            0.0000000000
     19251      6417  TIP3      H2            -26.0504149752        4.7092206768       21.7812228508  WZ4       1695            0.0000000000
     19252      6418  TIP3      OH2           -24.4946649752        8.9687906768       26.2469228508  WZ4       1698            0.0000000000
     19253      6418  TIP3      H1            -24.9036349752        9.7836506768       25.9554028508  WZ4       1698            0.0000000000
     19254      6418  TIP3      H2            -23.7740449752        8.8288006768       25.6326328508  WZ4       1698            0.0000000000
     19255      6419  TIP3      OH2           -23.4898949752        8.4148306768       29.0608928508  WZ4       1700            0.0000000000
     19256      6419  TIP3      H1            -23.6854449752        9.0205106768       28.3459528508  WZ4       1700            0.0000000000
     19257      6419  TIP3      H2            -23.3086349752        7.5813506768       28.6265228508  WZ4       1700            0.0000000000
     19258      6420  TIP3      OH2           -28.9113349752        6.0263306768       21.1836428508  WZ4       1702            0.0000000000
     19259      6420  TIP3      H1            -29.3422649752        5.5813406768       21.9133828508  WZ4       1702            0.0000000000
     19260      6420  TIP3      H2            -29.6294649752        6.3979606768       20.6713928508  WZ4       1702            0.0000000000
     19261      6421  TIP3      OH2           -28.9671649752        7.6094006768       24.9994728508  WZ4       1708            0.0000000000
     19262      6421  TIP3      H1            -28.0356149752        7.7384006768       25.1777828508  WZ4       1708            0.0000000000
     19263      6421  TIP3      H2            -29.1821349752        8.2788306768       24.3499428508  WZ4       1708            0.0000000000
     19264      6422  TIP3      OH2           -30.2931449752        8.8036206768       22.5660828508  WZ4       1710            0.0000000000
     19265      6422  TIP3      H1            -30.8356349752        8.4240006768       21.8748428508  WZ4       1710            0.0000000000
     19266      6422  TIP3      H2            -29.4596549752        8.9980906768       22.1374928508  WZ4       1710            0.0000000000
     19267      6423  TIP3      OH2           -26.9578649752       13.3691906768       24.5018928508  WZ4       1716            0.0000000000
     19268      6423  TIP3      H1            -27.7027649752       12.8617206768       24.1796828508  WZ4       1716            0.0000000000
     19269      6423  TIP3      H2            -27.0921449752       13.4179906768       25.4483728508  WZ4       1716            0.0000000000
     19270      6424  TIP3      OH2           -23.0601849752        6.1831806768       22.7011528508  WZ4       1718            0.0000000000
     19271      6424  TIP3      H1            -23.9987649752        6.2947406768       22.5500328508  WZ4       1718            0.0000000000
     19272      6424  TIP3      H2            -22.7629749752        7.0398706768       23.0077228508  WZ4       1718            0.0000000000
     19273      6425  TIP3      OH2           -22.3418349752        8.0504506768       24.3618928508  WZ4       1720            0.0000000000
     19274      6425  TIP3      H1            -21.4499349752        7.9129506768       24.6810128508  WZ4       1720            0.0000000000
     19275      6425  TIP3      H2            -22.2854749752        8.8410606768       23.8252428508  WZ4       1720            0.0000000000
     19276      6426  TIP3      OH2           -24.8324549752       14.8276206768       23.5273528508  WZ4       1722            0.0000000000
     19277      6426  TIP3      H1            -25.1276149752       15.6544106768       23.9088328508  WZ4       1722            0.0000000000
     19278      6426  TIP3      H2            -25.5354549752       14.2083106768       23.7234928508  WZ4       1722            0.0000000000
     19279      6427  TIP3      OH2           -17.4569649752        8.2598606768       24.0565628508  WZ4       1726            0.0000000000
     19280      6427  TIP3      H1            -18.0113349752        7.8636606768       23.3843128508  WZ4       1726            0.0000000000
     19281      6427  TIP3      H2            -17.3566049752        9.1703806768       23.7788928508  WZ4       1726            0.0000000000
     19282      6428  TIP3      OH2           -19.1617949752       17.0459006768       24.5217728508  WZ4       1728            0.0000000000
     19283      6428  TIP3      H1            -19.5346849752       16.2202806768       24.8308328508  WZ4       1728            0.0000000000
     19284      6428  TIP3      H2            -18.8844449752       16.8628406768       23.6241128508  WZ4       1728            0.0000000000
     19285      6429  TIP3      OH2           -21.7692349752       15.0224806768       22.3418328508  WZ4       1736            0.0000000000
     19286      6429  TIP3      H1            -21.4159249752       14.6424606768       23.1461828508  WZ4       1736            0.0000000000
     19287      6429  TIP3      H2            -22.7178849752       14.9289606768       22.4287628508  WZ4       1736            0.0000000000
     19288      6430  TIP3      OH2           -17.2657949752       19.5017306768       22.5428528508  WZ4       1738            0.0000000000
     19289      6430  TIP3      H1            -16.5220049752       20.0877806768       22.4030128508  WZ4       1738            0.0000000000
     19290      6430  TIP3      H2            -17.9599849752       20.0703106768       22.8760928508  WZ4       1738            0.0000000000
     19291      6431  TIP3      OH2           -20.9033049752       13.6946806768       24.5686228508  WZ4       1740            0.0000000000
     19292      6431  TIP3      H1            -21.1805449752       12.9666106768       25.1247328508  WZ4       1740            0.0000000000
     19293      6431  TIP3      H2            -19.9760049752       13.8138806768       24.7738828508  WZ4       1740            0.0000000000
     19294      6432  TIP3      OH2           -27.6784549752       16.1340906768       20.7888328508  WZ4       1742            0.0000000000
     19295      6432  TIP3      H1            -27.4394749752       15.3859006768       20.2417228508  WZ4       1742            0.0000000000
     19296      6432  TIP3      H2            -27.9473249752       15.7462606768       21.6216128508  WZ4       1742            0.0000000000
     19297      6433  TIP3      OH2           -23.6722849752        5.2713506768       25.1317628508  WZ4       1746            0.0000000000
     19298      6433  TIP3      H1            -23.4524549752        5.7428906768       24.3283028508  WZ4       1746            0.0000000000
     19299      6433  TIP3      H2            -23.1138849752        5.6656106768       25.8018228508  WZ4       1746            0.0000000000
     19300      6434  TIP3      OH2           -26.4722949752        6.9992306768       25.9666028508  WZ4       1748            0.0000000000
     19301      6434  TIP3      H1            -25.6600349752        7.5035506768       26.0127728508  WZ4       1748            0.0000000000
     19302      6434  TIP3      H2            -26.7169949752        6.8542006768       26.8805628508  WZ4       1748            0.0000000000
     19303      6435  TIP3      OH2           -29.9309249752        5.1434706768       23.5919628508  WZ4       1752            0.0000000000
     19304      6435  TIP3      H1            -30.0144449752        6.0317806768       23.9386028508  WZ4       1752            0.0000000000
     19305      6435  TIP3      H2            -29.0408949752        4.8781406768       23.8236428508  WZ4       1752            0.0000000000
     19306      6436  TIP3      OH2           -21.1299749752        9.6426306768       30.0819628508  WZ4       1754            0.0000000000
     19307      6436  TIP3      H1            -21.9275349752        9.2276506768       29.7534628508  WZ4       1754            0.0000000000
     19308      6436  TIP3      H2            -20.6848649752        8.9520006768       30.5730128508  WZ4       1754            0.0000000000
     19309      6437  TIP3      OH2           -25.6402749752       17.9972306768       20.9274328508  WZ4       1762            0.0000000000
     19310      6437  TIP3      H1            -26.2841749752       17.3660906768       21.2488028508  WZ4       1762            0.0000000000
     19311      6437  TIP3      H2            -24.8784449752       17.4660306768       20.6957828508  WZ4       1762            0.0000000000
     19312      6438  TIP3      OH2           -21.0359849752       17.8142206768       21.1612328508  WZ4       1764            0.0000000000
     19313      6438  TIP3      H1            -20.7529449752       17.0197406768       21.6139228508  WZ4       1764            0.0000000000
     19314      6438  TIP3      H2            -20.2961949752       18.0473206768       20.6003428508  WZ4       1764            0.0000000000
     19315      6439  TIP3      OH2           -24.7289149752       14.7708806768       20.7545228508  WZ4       1768            0.0000000000
     19316      6439  TIP3      H1            -24.9975049752       14.9510906768       21.6554128508  WZ4       1768            0.0000000000
     19317      6439  TIP3      H2            -24.9353549752       13.8455006768       20.6231028508  WZ4       1768            0.0000000000
     19318      6440  TIP3      OH2           -28.9318749752       11.6963306768       23.3245228508  WZ4       1771            0.0000000000
     19319      6440  TIP3      H1            -29.3916749752       11.2121606768       24.0103728508  WZ4       1771            0.0000000000
     19320      6440  TIP3      H2            -28.6770049752       11.0278706768       22.6885728508  WZ4       1771            0.0000000000
     19321      6441  TIP3      OH2           -27.8608349752        9.9395106768       21.5868428508  WZ4       1773            0.0000000000
     19322      6441  TIP3      H1            -28.0413349752        9.7846306768       20.6596728508  WZ4       1773            0.0000000000
     19323      6441  TIP3      H2            -26.9107849752       10.0473806768       21.6316328508  WZ4       1773            0.0000000000
     19324      6442  TIP3      OH2           -18.4710049752       12.2939306768       21.0326528508  WZ4       1775            0.0000000000
     19325      6442  TIP3      H1            -18.7445249752       11.8694806768       20.2194828508  WZ4       1775            0.0000000000
     19326      6442  TIP3      H2            -18.4315949752       13.2253806768       20.8156928508  WZ4       1775            0.0000000000
     19327      6443  TIP3      OH2           -18.0127249752       13.1627406768       25.0076928508  WZ4       1796            0.0000000000
     19328      6443  TIP3      H1            -17.1625849752       13.5838306768       25.1348528508  WZ4       1796            0.0000000000
     19329      6443  TIP3      H2            -18.0072149752       12.4227506768       25.6148328508  WZ4       1796            0.0000000000
     19330      6444  TIP3      OH2           -17.6181649752       11.2164806768       26.8312628508  WZ4       1797            0.0000000000
     19331      6444  TIP3      H1            -18.3447049752       10.7367406768       27.2290228508  WZ4       1797            0.0000000000
     19332      6444  TIP3      H2            -17.0368349752       11.4219506768       27.5634228508  WZ4       1797            0.0000000000
     19333      6445  TIP3      OH2           -17.3498549752       11.1173306768       23.2223928508  WZ4       1800            0.0000000000
     19334      6445  TIP3      H1            -17.8717449752       11.4737406768       22.5034828508  WZ4       1800            0.0000000000
     19335      6445  TIP3      H2            -17.3829349752       11.7921106768       23.9004828508  WZ4       1800            0.0000000000
     19336      6446  TIP3      OH2           -19.0009549752        8.3568906768       21.7731028508  WZ4       1801            0.0000000000
     19337      6446  TIP3      H1            -18.9045149752        9.0235906768       21.0930728508  WZ4       1801            0.0000000000
     19338      6446  TIP3      H2            -19.1409949752        7.5415206768       21.2916528508  WZ4       1801            0.0000000000
     19339      6447  TIP3      OH2           -19.8314849752        9.7371306768       27.3941328508  WZ4       1802            0.0000000000
     19340      6447  TIP3      H1            -19.9816049752        8.7919906768       27.3739128508  WZ4       1802            0.0000000000
     19341      6447  TIP3      H2            -20.1850349752       10.0182706768       28.2380428508  WZ4       1802            0.0000000000
     19342      6448  TIP3      OH2           -19.7535749752        5.7648706768       20.8906528508  WZ4       1806            0.0000000000
     19343      6448  TIP3      H1            -19.1429949752        5.3935506768       21.5274728508  WZ4       1806            0.0000000000
     19344      6448  TIP3      H2            -20.5904249752        5.3435606768       21.0866528508  WZ4       1806            0.0000000000
     19345      6449  TIP3      OH2           -20.1210049752        7.3197106768       25.8566428508  WZ4       1807            0.0000000000
     19346      6449  TIP3      H1            -19.8412949752        6.4127506768       25.9808128508  WZ4       1807            0.0000000000
     19347      6449  TIP3      H2            -19.3618349752        7.7538606768       25.4675628508  WZ4       1807            0.0000000000
     19348      6450  TIP3      OH2           -19.5091749752        7.9014506768       31.2925328508  WZ4       1808            0.0000000000
     19349      6450  TIP3      H1            -18.5763749752        8.1134406768       31.2581328508  WZ4       1808            0.0000000000
     19350      6450  TIP3      H2            -19.7444249752        8.0026606768       32.2148328508  WZ4       1808            0.0000000000
     19351      6451  TIP3      OH2           -19.5075249752        4.5826406768       25.9048428508  WZ4       1812            0.0000000000
     19352      6451  TIP3      H1            -19.3250249752        4.1337906768       26.7303428508  WZ4       1812            0.0000000000
     19353      6451  TIP3      H2            -20.1072349752        3.9980806768       25.4413028508  WZ4       1812            0.0000000000
     19354      6452  TIP3      OH2           -17.6409049752        4.6504506768       22.4328728508  WZ4       1816            0.0000000000
     19355      6452  TIP3      H1            -17.2286449752        3.9290206768       21.9576728508  WZ4       1816            0.0000000000
     19356      6452  TIP3      H2            -16.9592549752        5.3199106768       22.4913028508  WZ4       1816            0.0000000000
     19357      6453  TIP3      OH2           -18.3769049752        3.5124206768       28.3588028508  WZ4       1835            0.0000000000
     19358      6453  TIP3      H1            -17.7651549752        2.9979906768       27.8321628508  WZ4       1835            0.0000000000
     19359      6453  TIP3      H2            -17.9945649752        4.3896306768       28.3822428508  WZ4       1835            0.0000000000
     19360      6454  TIP3      OH2           -21.4305549752        2.8826506768       24.8899728508  WZ4       1840            0.0000000000
     19361      6454  TIP3      H1            -22.1334449752        3.4975706768       24.6801128508  WZ4       1840            0.0000000000
     19362      6454  TIP3      H2            -21.8754149752        2.0453206768       25.0210628508  WZ4       1840            0.0000000000
     19363      6455  TIP3      OH2           -32.2226649752        4.6141406768       21.9810128508  WZ4       1842            0.0000000000
     19364      6455  TIP3      H1            -31.7313249752        3.9843806768       21.4535628508  WZ4       1842            0.0000000000
     19365      6455  TIP3      H2            -31.5990349752        4.9100806768       22.6441328508  WZ4       1842            0.0000000000
     19366      6456  TIP3      OH2           -27.1966549752        4.9072906768       24.4380628508  WZ4       1843            0.0000000000
     19367      6456  TIP3      H1            -27.0185249752        4.2606106768       25.1209228508  WZ4       1843            0.0000000000
     19368      6456  TIP3      H2            -27.2500349752        5.7410606768       24.9051728508  WZ4       1843            0.0000000000
     19369      6457  TIP3      OH2           -18.6093149752       19.4187306768       25.5128428508  WZ4       1845            0.0000000000
     19370      6457  TIP3      H1            -18.8036049752       18.6709406768       24.9478028508  WZ4       1845            0.0000000000
     19371      6457  TIP3      H2            -18.6483049752       20.1767406768       24.9296328508  WZ4       1845            0.0000000000
     19372      6458  TIP3      OH2            -4.9856549752       12.0564106768       27.6937428508  WZ4       1851            0.0000000000
     19373      6458  TIP3      H1             -4.8965449752       13.0002306768       27.5614528508  WZ4       1851            0.0000000000
     19374      6458  TIP3      H2             -5.6238949752       11.7810506768       27.0356828508  WZ4       1851            0.0000000000
     19375      6459  TIP3      OH2            -6.0525249752       11.3114806768       31.1125628508  WZ4       1852            0.0000000000
     19376      6459  TIP3      H1             -6.0907749752       10.6651106768       31.8175228508  WZ4       1852            0.0000000000
     19377      6459  TIP3      H2             -6.3748749752       10.8449206768       30.3414328508  WZ4       1852            0.0000000000
     19378      6460  TIP3      OH2           -13.6840249752       10.9256906768       32.7055528508  WZ4       1853            0.0000000000
     19379      6460  TIP3      H1            -13.6428149752       10.3000206768       33.4287928508  WZ4       1853            0.0000000000
     19380      6460  TIP3      H2            -12.9812549752       11.5495506768       32.8875928508  WZ4       1853            0.0000000000
     19381      6461  TIP3      OH2            -2.3465049752       14.2505206768       29.4140728508  WZ4       1854            0.0000000000
     19382      6461  TIP3      H1             -2.7872349752       13.5301206768       29.8646328508  WZ4       1854            0.0000000000
     19383      6461  TIP3      H2             -2.3595349752       14.9712406768       30.0438428508  WZ4       1854            0.0000000000
     19384      6462  TIP3      OH2           -12.7607149752       15.3755806768       31.2404628508  WZ4       1855            0.0000000000
     19385      6462  TIP3      H1            -13.1301949752       14.5736306768       30.8708928508  WZ4       1855            0.0000000000
     19386      6462  TIP3      H2            -11.8196049752       15.2070706768       31.2868028508  WZ4       1855            0.0000000000
     19387      6463  TIP3      OH2           -16.1506649752        9.0358406768       26.6333428508  WZ4       1856            0.0000000000
     19388      6463  TIP3      H1            -16.5983249752        9.8817106768       26.6149928508  WZ4       1856            0.0000000000
     19389      6463  TIP3      H2            -16.7115449752        8.4562606768       26.1178528508  WZ4       1856            0.0000000000
     19390      6464  TIP3      OH2           -15.4400549752       11.1978006768       28.7591428508  WZ4       1857            0.0000000000
     19391      6464  TIP3      H1            -15.2267049752       10.4279606768       29.2864428508  WZ4       1857            0.0000000000
     19392      6464  TIP3      H2            -14.7022949752       11.2874706768       28.1559028508  WZ4       1857            0.0000000000
     19393      6465  TIP3      OH2            -5.2349549752       19.3546906768       29.6261128508  WZ4       1858            0.0000000000
     19394      6465  TIP3      H1             -4.6153149752       18.6781606768       29.3530328508  WZ4       1858            0.0000000000
     19395      6465  TIP3      H2             -5.4432149752       19.1367706768       30.5346028508  WZ4       1858            0.0000000000
     19396      6466  TIP3      OH2            -7.6630849752       13.7436206768       31.5186628508  WZ4       1859            0.0000000000
     19397      6466  TIP3      H1             -7.3592949752       13.0577606768       30.9240728508  WZ4       1859            0.0000000000
     19398      6466  TIP3      H2             -6.9416849752       13.8624906768       32.1364628508  WZ4       1859            0.0000000000
     19399      6467  TIP3      OH2             0.9998950248        5.3451506768       32.3792828508  WZ4       1860            0.0000000000
     19400      6467  TIP3      H1              1.0491150248        5.9552706768       33.1151928508  WZ4       1860            0.0000000000
     19401      6467  TIP3      H2              1.4254050248        5.8062406768       31.6563928508  WZ4       1860            0.0000000000
     19402      6468  TIP3      OH2            -4.5223849752        8.1378606768       31.8461428508  WZ4       1861            0.0000000000
     19403      6468  TIP3      H1             -4.3797949752        7.1915606768       31.8663028508  WZ4       1861            0.0000000000
     19404      6468  TIP3      H2             -4.6284849752        8.3448406768       30.9176328508  WZ4       1861            0.0000000000
     19405      6469  TIP3      OH2           -11.3675549752        6.2395006768       29.1186228508  WZ4       1862            0.0000000000
     19406      6469  TIP3      H1            -11.3244449752        7.0993506768       28.7002528508  WZ4       1862            0.0000000000
     19407      6469  TIP3      H2            -11.8251449752        5.6869706768       28.4849428508  WZ4       1862            0.0000000000
     19408      6470  TIP3      OH2            -3.6452849752        6.3700606768       27.5194528508  WZ4       1863            0.0000000000
     19409      6470  TIP3      H1             -2.9988549752        6.0413806768       28.1442128508  WZ4       1863            0.0000000000
     19410      6470  TIP3      H2             -3.1353449752        6.8879606768       26.8965928508  WZ4       1863            0.0000000000
     19411      6471  TIP3      OH2           -14.7474049752        8.6360806768       29.8807628508  WZ4       1864            0.0000000000
     19412      6471  TIP3      H1            -14.0937449752        8.0862506768       30.3127728508  WZ4       1864            0.0000000000
     19413      6471  TIP3      H2            -14.7234749752        8.3619806768       28.9639628508  WZ4       1864            0.0000000000
     19414      6472  TIP3      OH2            -9.5909549752       10.1862106768       29.0959128508  WZ4       1865            0.0000000000
     19415      6472  TIP3      H1             -8.9748549752        9.6597506768       29.6053128508  WZ4       1865            0.0000000000
     19416      6472  TIP3      H2            -10.1770749752        9.5460806768       28.6922728508  WZ4       1865            0.0000000000
     19417      6473  TIP3      OH2             1.3913550248        6.8230706768       34.6152628508  WZ4       1866            0.0000000000
     19418      6473  TIP3      H1              0.7028150248        7.4811406768       34.5199228508  WZ4       1866            0.0000000000
     19419      6473  TIP3      H2              1.4068150248        6.6258606768       35.5518028508  WZ4       1866            0.0000000000
     19420      6474  TIP3      OH2           -12.5573649752        5.1573406768       33.1927028508  WZ4       1867            0.0000000000
     19421      6474  TIP3      H1            -12.7761949752        5.6874006768       32.4263028508  WZ4       1867            0.0000000000
     19422      6474  TIP3      H2            -13.2252749752        5.3838906768       33.8398428508  WZ4       1867            0.0000000000
     19423      6475  TIP3      OH2            -5.1883849752       14.6574506768       26.7366128508  WZ4       1868            0.0000000000
     19424      6475  TIP3      H1             -5.4838749752       14.3346806768       25.8853028508  WZ4       1868            0.0000000000
     19425      6475  TIP3      H2             -5.5126049752       15.5571206768       26.7778728508  WZ4       1868            0.0000000000
     19426      6476  TIP3      OH2            -9.9882249752       12.8329106768       33.4800728508  WZ4       1869            0.0000000000
     19427      6476  TIP3      H1            -10.7283149752       13.4310606768       33.5835928508  WZ4       1869            0.0000000000
     19428      6476  TIP3      H2             -9.2742749752       13.3868706768       33.1644328508  WZ4       1869            0.0000000000
     19429      6477  TIP3      OH2            -1.8814449752        5.6609906768       29.5000428508  WZ4       1870            0.0000000000
     19430      6477  TIP3      H1             -2.0966449752        4.8953306768       30.0326428508  WZ4       1870            0.0000000000
     19431      6477  TIP3      H2             -1.2257049752        6.1334506768       30.0128928508  WZ4       1870            0.0000000000
     19432      6478  TIP3      OH2           -12.9636349752        7.0495206768       31.1449228508  WZ4       1871            0.0000000000
     19433      6478  TIP3      H1            -12.3500049752        7.6822806768       31.5181628508  WZ4       1871            0.0000000000
     19434      6478  TIP3      H2            -12.4515649752        6.5770206768       30.4886128508  WZ4       1871            0.0000000000
     19435      6479  TIP3      OH2           -15.4597049752       14.4680006768       25.0491528508  WZ4       1873            0.0000000000
     19436      6479  TIP3      H1            -15.7316149752       14.6971006768       24.1604428508  WZ4       1873            0.0000000000
     19437      6479  TIP3      H2            -15.4141349752       15.3058806768       25.5096828508  WZ4       1873            0.0000000000
     19438      6480  TIP3      OH2            -1.8347349752       16.0895906768       31.7620028508  WZ4       1874            0.0000000000
     19439      6480  TIP3      H1             -2.7763649752       16.1479806768       31.9236928508  WZ4       1874            0.0000000000
     19440      6480  TIP3      H2             -1.5581249752       16.9956406768       31.6249728508  WZ4       1874            0.0000000000
     19441      6481  TIP3      OH2            -1.5340349752        4.3761206768       33.1793928508  WZ4       1875            0.0000000000
     19442      6481  TIP3      H1             -2.2701149752        4.9868306768       33.1415228508  WZ4       1875            0.0000000000
     19443      6481  TIP3      H2             -0.8506349752        4.7910206768       32.6530328508  WZ4       1875            0.0000000000
     19444      6482  TIP3      OH2            -8.5308949752        2.4628506768       30.6451928508  WZ4       1876            0.0000000000
     19445      6482  TIP3      H1             -8.6484749752        1.5144506768       30.5910228508  WZ4       1876            0.0000000000
     19446      6482  TIP3      H2             -9.3858849752        2.7954606768       30.9183028508  WZ4       1876            0.0000000000
     19447      6483  TIP3      OH2            -3.5826149752       17.8709406768       28.3871628508  WZ4       1877            0.0000000000
     19448      6483  TIP3      H1             -3.1573849752       17.1637306768       27.9021228508  WZ4       1877            0.0000000000
     19449      6483  TIP3      H2             -3.2656149752       18.6722106768       27.9703828508  WZ4       1877            0.0000000000
     19450      6484  TIP3      OH2            -2.4229649752       15.7717906768       26.8958228508  WZ4       1878            0.0000000000
     19451      6484  TIP3      H1             -2.6804849752       15.0818006768       26.2844128508  WZ4       1878            0.0000000000
     19452      6484  TIP3      H2             -2.3518849752       15.3289106768       27.7414128508  WZ4       1878            0.0000000000
     19453      6485  TIP3      OH2            -6.2644049752       11.3004106768       25.1457728508  WZ4       1880            0.0000000000
     19454      6485  TIP3      H1             -6.9758549752       11.8353806768       24.7938228508  WZ4       1880            0.0000000000
     19455      6485  TIP3      H2             -5.5734449752       11.3556206768       24.4856628508  WZ4       1880            0.0000000000
     19456      6486  TIP3      OH2            -6.2104849752        9.7578406768       22.1842728508  WZ4       1881            0.0000000000
     19457      6486  TIP3      H1             -5.5094949752        9.7805306768       22.8356728508  WZ4       1881            0.0000000000
     19458      6486  TIP3      H2             -5.9081949752        9.1298106768       21.5282028508  WZ4       1881            0.0000000000
     19459      6487  TIP3      OH2             1.1049850248       10.6782606768       33.4392128508  WZ4       1882            0.0000000000
     19460      6487  TIP3      H1              0.4523950248       11.3728206768       33.5283028508  WZ4       1882            0.0000000000
     19461      6487  TIP3      H2              1.5700150248       10.8883506768       32.6293728508  WZ4       1882            0.0000000000
     19462      6488  TIP3      OH2            -2.8586349752       11.5097406768       26.0973628508  WZ4       1883            0.0000000000
     19463      6488  TIP3      H1             -3.5905349752       11.7381106768       26.6704228508  WZ4       1883            0.0000000000
     19464      6488  TIP3      H2             -2.4114149752       10.7960106768       26.5521128508  WZ4       1883            0.0000000000
     19465      6489  TIP3      OH2            -2.9612849752        9.6840006768       35.1650628508  WZ4       1884            0.0000000000
     19466      6489  TIP3      H1             -2.8813749752       10.4474406768       35.7369128508  WZ4       1884            0.0000000000
     19467      6489  TIP3      H2             -3.5625149752        9.9632406768       34.4745728508  WZ4       1884            0.0000000000
     19468      6490  TIP3      OH2           -11.2132649752       12.1403606768       27.9798628508  WZ4       1885            0.0000000000
     19469      6490  TIP3      H1            -11.5437449752       11.7697006768       27.1615628508  WZ4       1885            0.0000000000
     19470      6490  TIP3      H2            -10.6248549752       11.4697606768       28.3266928508  WZ4       1885            0.0000000000
     19471      6491  TIP3      OH2            -9.8465149752       15.5684206768       30.6610828508  WZ4       1886            0.0000000000
     19472      6491  TIP3      H1             -9.9413849752       14.9897306768       29.9045428508  WZ4       1886            0.0000000000
     19473      6491  TIP3      H2             -9.1171549752       15.1969906768       31.1573628508  WZ4       1886            0.0000000000
     19474      6492  TIP3      OH2           -10.8467149752       10.9089206768       31.6133628508  WZ4       1887            0.0000000000
     19475      6492  TIP3      H1            -10.2814649752       11.0303406768       30.8504828508  WZ4       1887            0.0000000000
     19476      6492  TIP3      H2            -10.5278249752       11.5464206768       32.2522128508  WZ4       1887            0.0000000000
     19477      6493  TIP3      OH2            -4.5374949752       16.4121106768       32.3474128508  WZ4       1888            0.0000000000
     19478      6493  TIP3      H1             -4.7778349752       17.0744206768       32.9953328508  WZ4       1888            0.0000000000
     19479      6493  TIP3      H2             -4.7356749752       15.5776306768       32.7723728508  WZ4       1888            0.0000000000
     19480      6494  TIP3      OH2            -3.9876849752       10.6720306768       23.7824828508  WZ4       1890            0.0000000000
     19481      6494  TIP3      H1             -3.4081349752       10.8220606768       24.5293728508  WZ4       1890            0.0000000000
     19482      6494  TIP3      H2             -3.5736849752       11.1427706768       23.0591228508  WZ4       1890            0.0000000000
     19483      6495  TIP3      OH2            -6.2611949752       17.4088806768       27.2177928508  WZ4       1892            0.0000000000
     19484      6495  TIP3      H1             -5.7874349752       17.7045106768       27.9952128508  WZ4       1892            0.0000000000
     19485      6495  TIP3      H2             -6.8242649752       18.1470406768       26.9847528508  WZ4       1892            0.0000000000
     19486      6496  TIP3      OH2            -0.2888449752        2.4220706768       23.5954528508  WZ4       1894            0.0000000000
     19487      6496  TIP3      H1             -1.1887749752        2.5609706768       23.8905128508  WZ4       1894            0.0000000000
     19488      6496  TIP3      H2             -0.0370049752        3.2535306768       23.1936228508  WZ4       1894            0.0000000000
     19489      6497  TIP3      OH2           -12.2229949752       11.2097906768       25.5691428508  WZ4       1895            0.0000000000
     19490      6497  TIP3      H1            -12.5148649752       11.9779606768       25.0782728508  WZ4       1895            0.0000000000
     19491      6497  TIP3      H2            -12.8974749752       10.5504106768       25.4062828508  WZ4       1895            0.0000000000
     19492      6498  TIP3      OH2             0.9002950248       16.7883106768       21.9718428508  WZ4       1896            0.0000000000
     19493      6498  TIP3      H1              0.9736450248       17.7273306768       22.1423728508  WZ4       1896            0.0000000000
     19494      6498  TIP3      H2              1.8058050248       16.4831706768       21.9155728508  WZ4       1896            0.0000000000
     19495      6499  TIP3      OH2            -6.7888849752       20.3653506768       25.6327128508  WZ4       1901            0.0000000000
     19496      6499  TIP3      H1             -6.8642849752       20.2440706768       24.6862328508  WZ4       1901            0.0000000000
     19497      6499  TIP3      H2             -6.7560149752       21.3146206768       25.7511728508  WZ4       1901            0.0000000000
     19498      6500  TIP3      OH2           -13.1355049752       19.1540506768       27.4136128508  WZ4       1902            0.0000000000
     19499      6500  TIP3      H1            -12.9834649752       18.8060906768       28.2922628508  WZ4       1902            0.0000000000
     19500      6500  TIP3      H2            -13.9864649752       18.7977806768       27.1583328508  WZ4       1902            0.0000000000
     19501      6501  TIP3      OH2            -3.6872849752       19.5193706768       22.6349528508  WZ4       1903            0.0000000000
     19502      6501  TIP3      H1             -3.3124449752       18.7749806768       22.1642128508  WZ4       1903            0.0000000000
     19503      6501  TIP3      H2             -3.6829149752       19.2494306768       23.5532828508  WZ4       1903            0.0000000000
     19504      6502  TIP3      OH2            -4.0184749752       19.4450806768       25.3841728508  WZ4       1904            0.0000000000
     19505      6502  TIP3      H1             -4.9534949752       19.5452706768       25.5628728508  WZ4       1904            0.0000000000
     19506      6502  TIP3      H2             -3.7382849752       18.7356806768       25.9624928508  WZ4       1904            0.0000000000
     19507      6503  TIP3      OH2           -11.2621349752        3.3663006768       31.4228228508  WZ4       1907            0.0000000000
     19508      6503  TIP3      H1            -12.1237649752        3.2791206768       31.0151128508  WZ4       1907            0.0000000000
     19509      6503  TIP3      H2            -11.2845649752        4.2223106768       31.8505828508  WZ4       1907            0.0000000000
     19510      6504  TIP3      OH2            -6.5993549752        3.0883406768       34.7975228508  WZ4       1908            0.0000000000
     19511      6504  TIP3      H1             -6.1790449752        2.6730506768       35.5505828508  WZ4       1908            0.0000000000
     19512      6504  TIP3      H2             -7.5323949752        2.9096706768       34.9147228508  WZ4       1908            0.0000000000
     19513      6505  TIP3      OH2            -3.2728649752        6.8438606768       35.6509728508  WZ4       1909            0.0000000000
     19514      6505  TIP3      H1             -3.7869149752        6.7180806768       36.4485728508  WZ4       1909            0.0000000000
     19515      6505  TIP3      H2             -3.4283949752        7.7561706768       35.4065928508  WZ4       1909            0.0000000000
     19516      6506  TIP3      OH2            -2.5103749752       11.7048606768       21.4122728508  WZ4       1910            0.0000000000
     19517      6506  TIP3      H1             -2.4682949752       11.4822506768       20.4822728508  WZ4       1910            0.0000000000
     19518      6506  TIP3      H2             -1.6611649752       12.1035706768       21.6022628508  WZ4       1910            0.0000000000
     19519      6507  TIP3      OH2            -6.9376249752        5.5806806768       22.0826028508  WZ4       1911            0.0000000000
     19520      6507  TIP3      H1             -7.1911449752        5.5998406768       23.0054128508  WZ4       1911            0.0000000000
     19521      6507  TIP3      H2             -7.1944149752        4.7092206768       21.7812228508  WZ4       1911            0.0000000000
     19522      6508  TIP3      OH2           -11.1711249752        8.3317506768       32.5178428508  WZ4       1912            0.0000000000
     19523      6508  TIP3      H1            -11.8129149752        8.2914806768       33.2268528508  WZ4       1912            0.0000000000
     19524      6508  TIP3      H2            -11.1339249752        9.2582206768       32.2801428508  WZ4       1912            0.0000000000
     19525      6509  TIP3      OH2           -11.1742149752        8.5527606768       27.4298428508  WZ4       1913            0.0000000000
     19526      6509  TIP3      H1            -12.0669249752        8.2123706768       27.3712228508  WZ4       1913            0.0000000000
     19527      6509  TIP3      H2            -10.7235549752        8.1758506768       26.6741628508  WZ4       1913            0.0000000000
     19528      6510  TIP3      OH2            -5.6386649752        8.9687906768       26.2469228508  WZ4       1914            0.0000000000
     19529      6510  TIP3      H1             -6.0476349752        9.7836506768       25.9554028508  WZ4       1914            0.0000000000
     19530      6510  TIP3      H2             -4.9180449752        8.8288006768       25.6326328508  WZ4       1914            0.0000000000
     19531      6511  TIP3      OH2            -4.6338949752        8.4148306768       29.0608928508  WZ4       1916            0.0000000000
     19532      6511  TIP3      H1             -4.8294449752        9.0205106768       28.3459528508  WZ4       1916            0.0000000000
     19533      6511  TIP3      H2             -4.4526349752        7.5813506768       28.6265228508  WZ4       1916            0.0000000000
     19534      6512  TIP3      OH2           -13.4210749752        8.6521006768       34.3850428508  WZ4       1917            0.0000000000
     19535      6512  TIP3      H1            -13.4591349752        9.0522606768       35.2537528508  WZ4       1917            0.0000000000
     19536      6512  TIP3      H2            -13.9119649752        7.8353406768       34.4753328508  WZ4       1917            0.0000000000
     19537      6513  TIP3      OH2           -10.0553349752        6.0263306768       21.1836428508  WZ4       1918            0.0000000000
     19538      6513  TIP3      H1            -10.4862649752        5.5813406768       21.9133828508  WZ4       1918            0.0000000000
     19539      6513  TIP3      H2            -10.7734649752        6.3979606768       20.6713928508  WZ4       1918            0.0000000000
     19540      6514  TIP3      OH2           -16.8129949752        5.7682806768       28.2355128508  WZ4       1919            0.0000000000
     19541      6514  TIP3      H1            -16.1822249752        5.7394906768       28.9549028508  WZ4       1919            0.0000000000
     19542      6514  TIP3      H2            -16.3635649752        5.3431506768       27.5051028508  WZ4       1919            0.0000000000
     19543      6515  TIP3      OH2           -15.5387849752        6.5144806768       23.6595528508  WZ4       1920            0.0000000000
     19544      6515  TIP3      H1            -15.0646149752        7.1054706768       23.0746428508  WZ4       1920            0.0000000000
     19545      6515  TIP3      H2            -16.2561449752        7.0447706768       24.0065628508  WZ4       1920            0.0000000000
     19546      6516  TIP3      OH2            -5.3699749752       10.0529606768       33.7321328508  WZ4       1921            0.0000000000
     19547      6516  TIP3      H1             -5.0464949752        9.4219306768       33.0891828508  WZ4       1921            0.0000000000
     19548      6516  TIP3      H2             -5.8100449752        9.5181806768       34.3928728508  WZ4       1921            0.0000000000
     19549      6517  TIP3      OH2            -8.5926849752        5.9805106768       28.5162528508  WZ4       1922            0.0000000000
     19550      6517  TIP3      H1             -9.5035749752        6.0371906768       28.8048528508  WZ4       1922            0.0000000000
     19551      6517  TIP3      H2             -8.0873949752        5.9200606768       29.3269728508  WZ4       1922            0.0000000000
     19552      6518  TIP3      OH2           -13.7643449752        7.6091406768       27.3430128508  WZ4       1923            0.0000000000
     19553      6518  TIP3      H1            -14.6535449752        7.7086906768       27.0029728508  WZ4       1923            0.0000000000
     19554      6518  TIP3      H2            -13.4678549752        6.7674406768       26.9968028508  WZ4       1923            0.0000000000
     19555      6519  TIP3      OH2           -10.1111649752        7.6094006768       24.9994728508  WZ4       1924            0.0000000000
     19556      6519  TIP3      H1             -9.1796149752        7.7384006768       25.1777828508  WZ4       1924            0.0000000000
     19557      6519  TIP3      H2            -10.3261349752        8.2788306768       24.3499428508  WZ4       1924            0.0000000000
     19558      6520  TIP3      OH2            -4.1874949752        5.2151406768       31.7804328508  WZ4       1925            0.0000000000
     19559      6520  TIP3      H1             -4.8643349752        5.3464506768       32.4444028508  WZ4       1925            0.0000000000
     19560      6520  TIP3      H2             -4.6730049752        5.0600906768       30.9702028508  WZ4       1925            0.0000000000
     19561      6521  TIP3      OH2           -11.4371449752        8.8036206768       22.5660828508  WZ4       1926            0.0000000000
     19562      6521  TIP3      H1            -11.9796349752        8.4240006768       21.8748428508  WZ4       1926            0.0000000000
     19563      6521  TIP3      H2            -10.6036549752        8.9980906768       22.1374928508  WZ4       1926            0.0000000000
     19564      6522  TIP3      OH2            -7.2727149752        8.7678106768       30.4032128508  WZ4       1929            0.0000000000
     19565      6522  TIP3      H1             -6.7083749752        8.2214706768       29.8561728508  WZ4       1929            0.0000000000
     19566      6522  TIP3      H2             -7.4203749752        8.2460006768       31.1919728508  WZ4       1929            0.0000000000
     19567      6523  TIP3      OH2           -12.2707449752        4.9044206768       26.8216928508  WZ4       1930            0.0000000000
     19568      6523  TIP3      H1            -12.5877949752        4.0019506768       26.7862328508  WZ4       1930            0.0000000000
     19569      6523  TIP3      H2            -11.4893349752        4.9061606768       26.2688528508  WZ4       1930            0.0000000000
     19570      6524  TIP3      OH2            -8.6461249752        7.1564206768       32.8172528508  WZ4       1931            0.0000000000
     19571      6524  TIP3      H1             -9.4815949752        7.6103706768       32.9274928508  WZ4       1931            0.0000000000
     19572      6524  TIP3      H2             -8.1220649752        7.4322706768       33.5692428508  WZ4       1931            0.0000000000
     19573      6525  TIP3      OH2            -8.1018649752       13.3691906768       24.5018928508  WZ4       1932            0.0000000000
     19574      6525  TIP3      H1             -8.8467649752       12.8617206768       24.1796828508  WZ4       1932            0.0000000000
     19575      6525  TIP3      H2             -8.2361449752       13.4179906768       25.4483728508  WZ4       1932            0.0000000000
     19576      6526  TIP3      OH2            -0.9519749752       12.5020106768       33.2886528508  WZ4       1933            0.0000000000
     19577      6526  TIP3      H1             -0.3100949752       12.9586406768       32.7448728508  WZ4       1933            0.0000000000
     19578      6526  TIP3      H2             -1.7822849752       12.6152506768       32.8260628508  WZ4       1933            0.0000000000
     19579      6527  TIP3      OH2            -4.2041849752        6.1831806768       22.7011528508  WZ4       1934            0.0000000000
     19580      6527  TIP3      H1             -5.1427649752        6.2947406768       22.5500328508  WZ4       1934            0.0000000000
     19581      6527  TIP3      H2             -3.9069749752        7.0398706768       23.0077228508  WZ4       1934            0.0000000000
     19582      6528  TIP3      OH2            -3.4858349752        8.0504506768       24.3618928508  WZ4       1936            0.0000000000
     19583      6528  TIP3      H1             -2.5939349752        7.9129506768       24.6810128508  WZ4       1936            0.0000000000
     19584      6528  TIP3      H2             -3.4294749752        8.8410606768       23.8252428508  WZ4       1936            0.0000000000
     19585      6529  TIP3      OH2           -12.9770349752       12.6641906768       30.2716828508  WZ4       1937            0.0000000000
     19586      6529  TIP3      H1            -12.2323149752       12.6617606768       29.6703328508  WZ4       1937            0.0000000000
     19587      6529  TIP3      H2            -12.8993749752       11.8405706768       30.7531928508  WZ4       1937            0.0000000000
     19588      6530  TIP3      OH2            -5.9764549752       14.8276206768       23.5273528508  WZ4       1938            0.0000000000
     19589      6530  TIP3      H1             -6.2716149752       15.6544106768       23.9088328508  WZ4       1938            0.0000000000
     19590      6530  TIP3      H2             -6.6794549752       14.2083106768       23.7234928508  WZ4       1938            0.0000000000
     19591      6531  TIP3      OH2             1.3990350248        8.2598606768       24.0565628508  WZ4       1942            0.0000000000
     19592      6531  TIP3      H1              0.8446650248        7.8636606768       23.3843128508  WZ4       1942            0.0000000000
     19593      6531  TIP3      H2              1.4993950248        9.1703806768       23.7788928508  WZ4       1942            0.0000000000
     19594      6532  TIP3      OH2            -0.3057949752       17.0459006768       24.5217728508  WZ4       1944            0.0000000000
     19595      6532  TIP3      H1             -0.6786849752       16.2202806768       24.8308328508  WZ4       1944            0.0000000000
     19596      6532  TIP3      H2             -0.0284449752       16.8628406768       23.6241128508  WZ4       1944            0.0000000000
     19597      6533  TIP3      OH2            -3.1454049752       11.8538506768       31.5429628508  WZ4       1945            0.0000000000
     19598      6533  TIP3      H1             -4.0737149752       11.6220406768       31.5158928508  WZ4       1945            0.0000000000
     19599      6533  TIP3      H2             -2.6942949752       11.0768306768       31.2128428508  WZ4       1945            0.0000000000
     19600      6534  TIP3      OH2           -10.6020949752       16.1820106768       27.6758328508  WZ4       1946            0.0000000000
     19601      6534  TIP3      H1            -10.0748749752       16.9554506768       27.4757128508  WZ4       1946            0.0000000000
     19602      6534  TIP3      H2            -11.4822449752       16.4069306768       27.3742328508  WZ4       1946            0.0000000000
     19603      6535  TIP3      OH2           -14.8473249752       11.0444206768       22.2630728508  WZ4       1947            0.0000000000
     19604      6535  TIP3      H1            -14.2313349752       11.6711406768       22.6425528508  WZ4       1947            0.0000000000
     19605      6535  TIP3      H2            -15.7090649752       11.3604006768       22.5347228508  WZ4       1947            0.0000000000
     19606      6536  TIP3      OH2            -9.1748649752       13.8450006768       27.2522628508  WZ4       1948            0.0000000000
     19607      6536  TIP3      H1             -9.4158649752       14.7704406768       27.2937928508  WZ4       1948            0.0000000000
     19608      6536  TIP3      H2             -9.9155049752       13.3861306768       27.6486528508  WZ4       1948            0.0000000000
     19609      6537  TIP3      OH2           -10.4917849752       18.8667606768       26.7974828508  WZ4       1950            0.0000000000
     19610      6537  TIP3      H1            -11.4417349752       18.9725006768       26.8488128508  WZ4       1950            0.0000000000
     19611      6537  TIP3      H2            -10.1399749752       19.6875006768       27.1422328508  WZ4       1950            0.0000000000
     19612      6538  TIP3      OH2            -5.1161249752       14.0934306768       33.2679328508  WZ4       1951            0.0000000000
     19613      6538  TIP3      H1             -5.5419949752       13.8656006768       34.0943328508  WZ4       1951            0.0000000000
     19614      6538  TIP3      H2             -4.5355449752       13.3546106768       33.0854628508  WZ4       1951            0.0000000000
     19615      6539  TIP3      OH2            -2.9132349752       15.0224806768       22.3418328508  WZ4       1952            0.0000000000
     19616      6539  TIP3      H1             -2.5599249752       14.6424606768       23.1461828508  WZ4       1952            0.0000000000
     19617      6539  TIP3      H2             -3.8618849752       14.9289606768       22.4287628508  WZ4       1952            0.0000000000
     19618      6540  TIP3      OH2             1.5902050248       19.5017306768       22.5428528508  WZ4       1954            0.0000000000
     19619      6540  TIP3      H1              2.3339950248       20.0877806768       22.4030128508  WZ4       1954            0.0000000000
     19620      6540  TIP3      H2              0.8960150248       20.0703106768       22.8760928508  WZ4       1954            0.0000000000
     19621      6541  TIP3      OH2            -2.0473049752       13.6946806768       24.5686228508  WZ4       1956            0.0000000000
     19622      6541  TIP3      H1             -2.3245449752       12.9666106768       25.1247328508  WZ4       1956            0.0000000000
     19623      6541  TIP3      H2             -1.1200049752       13.8138806768       24.7738828508  WZ4       1956            0.0000000000
     19624      6542  TIP3      OH2            -8.8224549752       16.1340906768       20.7888328508  WZ4       1958            0.0000000000
     19625      6542  TIP3      H1             -8.5834749752       15.3859006768       20.2417228508  WZ4       1958            0.0000000000
     19626      6542  TIP3      H2             -9.0913249752       15.7462606768       21.6216128508  WZ4       1958            0.0000000000
     19627      6543  TIP3      OH2            -9.8853949752       15.7044706768       23.2450928508  WZ4       1959            0.0000000000
     19628      6543  TIP3      H1             -9.7385949752       15.1844506768       24.0351828508  WZ4       1959            0.0000000000
     19629      6543  TIP3      H2             -9.8882249752       16.6112306768       23.5516828508  WZ4       1959            0.0000000000
     19630      6544  TIP3      OH2           -13.4322849752       12.9568006768       23.7556328508  WZ4       1960            0.0000000000
     19631      6544  TIP3      H1            -14.1183549752       13.3090506768       24.3226028508  WZ4       1960            0.0000000000
     19632      6544  TIP3      H2            -12.9094949752       13.7197606768       23.5090628508  WZ4       1960            0.0000000000
     19633      6545  TIP3      OH2            -5.6007749752        5.6191806768       34.0345328508  WZ4       1961            0.0000000000
     19634      6545  TIP3      H1             -4.9019849752        5.6930506768       34.6845028508  WZ4       1961            0.0000000000
     19635      6545  TIP3      H2             -5.9816349752        4.7546806768       34.1888228508  WZ4       1961            0.0000000000
     19636      6546  TIP3      OH2            -4.8162849752        5.2713506768       25.1317628508  WZ4       1962            0.0000000000
     19637      6546  TIP3      H1             -4.5964549752        5.7428906768       24.3283028508  WZ4       1962            0.0000000000
     19638      6546  TIP3      H2             -4.2578849752        5.6656106768       25.8018228508  WZ4       1962            0.0000000000
     19639      6547  TIP3      OH2            -7.1476749752       17.4018306768       23.9945128508  WZ4       1963            0.0000000000
     19640      6547  TIP3      H1             -7.9640649752       17.8988006768       24.0469428508  WZ4       1963            0.0000000000
     19641      6547  TIP3      H2             -6.6180449752       17.8771806768       23.3543928508  WZ4       1963            0.0000000000
     19642      6548  TIP3      OH2            -7.6162949752        6.9992306768       25.9666028508  WZ4       1964            0.0000000000
     19643      6548  TIP3      H1             -6.8040349752        7.5035506768       26.0127728508  WZ4       1964            0.0000000000
     19644      6548  TIP3      H2             -7.8609949752        6.8542006768       26.8805628508  WZ4       1964            0.0000000000
     19645      6549  TIP3      OH2            -7.0806549752        7.9855006768       35.1512628508  WZ4       1965            0.0000000000
     19646      6549  TIP3      H1             -6.9616249752        8.5590406768       35.9083028508  WZ4       1965            0.0000000000
     19647      6549  TIP3      H2             -6.4251949752        7.2974406768       35.2660428508  WZ4       1965            0.0000000000
     19648      6550  TIP3      OH2            -6.7326249752        4.0805306768       26.9047128508  WZ4       1966            0.0000000000
     19649      6550  TIP3      H1             -7.0792749752        4.6975906768       27.5491428508  WZ4       1966            0.0000000000
     19650      6550  TIP3      H2             -6.0739349752        4.5811006768       26.4232628508  WZ4       1966            0.0000000000
     19651      6551  TIP3      OH2            -9.8093649752       18.4455506768       23.9762028508  WZ4       1967            0.0000000000
     19652      6551  TIP3      H1             -9.6484949752       19.2453006768       23.4754628508  WZ4       1967            0.0000000000
     19653      6551  TIP3      H2            -10.0065849752       18.7521506768       24.8612628508  WZ4       1967            0.0000000000
     19654      6552  TIP3      OH2           -11.0749249752        5.1434706768       23.5919628508  WZ4       1968            0.0000000000
     19655      6552  TIP3      H1            -11.1584449752        6.0317806768       23.9386028508  WZ4       1968            0.0000000000
     19656      6552  TIP3      H2            -10.1848949752        4.8781406768       23.8236428508  WZ4       1968            0.0000000000
     19657      6553  TIP3      OH2            -2.2739749752        9.6426306768       30.0819628508  WZ4       1970            0.0000000000
     19658      6553  TIP3      H1             -3.0715349752        9.2276506768       29.7534628508  WZ4       1970            0.0000000000
     19659      6553  TIP3      H2             -1.8288649752        8.9520006768       30.5730128508  WZ4       1970            0.0000000000
     19660      6554  TIP3      OH2           -12.8163949752       15.5706906768       22.6524128508  WZ4       1971            0.0000000000
     19661      6554  TIP3      H1            -12.2242449752       16.2701706768       22.9286528508  WZ4       1971            0.0000000000
     19662      6554  TIP3      H2            -12.3570949752       15.1376406768       21.9328728508  WZ4       1971            0.0000000000
     19663      6555  TIP3      OH2           -14.5004749752        8.2349906768       21.7683528508  WZ4       1972            0.0000000000
     19664      6555  TIP3      H1            -14.5452149752        9.1743006768       21.9470528508  WZ4       1972            0.0000000000
     19665      6555  TIP3      H2            -15.3881549752        7.9994806768       21.4985628508  WZ4       1972            0.0000000000
     19666      6556  TIP3      OH2            -1.1875149752       18.8988806768       31.7043128508  WZ4       1973            0.0000000000
     19667      6556  TIP3      H1             -1.3430849752       19.5773206768       31.0472428508  WZ4       1973            0.0000000000
     19668      6556  TIP3      H2             -0.2548749752       18.9708106768       31.9073728508  WZ4       1973            0.0000000000
     19669      6557  TIP3      OH2           -13.6922749752        3.0166506768       30.4414528508  WZ4       1974            0.0000000000
     19670      6557  TIP3      H1            -13.9212949752        3.0759006768       29.5139528508  WZ4       1974            0.0000000000
     19671      6557  TIP3      H2            -14.1349349752        2.2252006768       30.7478628508  WZ4       1974            0.0000000000
     19672      6558  TIP3      OH2           -14.7619449752       16.9573606768       26.6020328508  WZ4       1975            0.0000000000
     19673      6558  TIP3      H1            -15.5940849752       17.4296306768       26.6291728508  WZ4       1975            0.0000000000
     19674      6558  TIP3      H2            -14.2161149752       17.4671206768       26.0033428508  WZ4       1975            0.0000000000
     19675      6559  TIP3      OH2            -6.7842749752       17.9972306768       20.9274328508  WZ4       1978            0.0000000000
     19676      6559  TIP3      H1             -7.4281749752       17.3660906768       21.2488028508  WZ4       1978            0.0000000000
     19677      6559  TIP3      H2             -6.0224449752       17.4660306768       20.6957828508  WZ4       1978            0.0000000000
     19678      6560  TIP3      OH2            -2.1799849752       17.8142206768       21.1612328508  WZ4       1980            0.0000000000
     19679      6560  TIP3      H1             -1.8969449752       17.0197406768       21.6139228508  WZ4       1980            0.0000000000
     19680      6560  TIP3      H2             -1.4401949752       18.0473206768       20.6003428508  WZ4       1980            0.0000000000
     19681      6561  TIP3      OH2           -11.2252549752       13.7237106768       21.0187228508  WZ4       1982            0.0000000000
     19682      6561  TIP3      H1            -11.1608449752       12.9296706768       21.5493628508  WZ4       1982            0.0000000000
     19683      6561  TIP3      H2            -10.5723349752       13.6049906768       20.3289228508  WZ4       1982            0.0000000000
     19684      6562  TIP3      OH2            -5.8729149752       14.7708806768       20.7545228508  WZ4       1984            0.0000000000
     19685      6562  TIP3      H1             -6.1415049752       14.9510906768       21.6554128508  WZ4       1984            0.0000000000
     19686      6562  TIP3      H2             -6.0793549752       13.8455006768       20.6231028508  WZ4       1984            0.0000000000
     19687      6563  TIP3      OH2           -10.0758749752       11.6963306768       23.3245228508  WZ4       1987            0.0000000000
     19688      6563  TIP3      H1            -10.5356749752       11.2121606768       24.0103728508  WZ4       1987            0.0000000000
     19689      6563  TIP3      H2             -9.8210049752       11.0278706768       22.6885728508  WZ4       1987            0.0000000000
     19690      6564  TIP3      OH2            -9.0048349752        9.9395106768       21.5868428508  WZ4       1989            0.0000000000
     19691      6564  TIP3      H1             -9.1853349752        9.7846306768       20.6596728508  WZ4       1989            0.0000000000
     19692      6564  TIP3      H2             -8.0547849752       10.0473806768       21.6316328508  WZ4       1989            0.0000000000
     19693      6565  TIP3      OH2             0.3849950248       12.2939306768       21.0326528508  WZ4       1991            0.0000000000
     19694      6565  TIP3      H1              0.1114750248       11.8694806768       20.2194828508  WZ4       1991            0.0000000000
     19695      6565  TIP3      H2              0.4244050248       13.2253806768       20.8156928508  WZ4       1991            0.0000000000
     19696      6566  TIP3      OH2           -10.0350049752        5.3137006768       34.2555328508  WZ4       1993            0.0000000000
     19697      6566  TIP3      H1             -9.4992549752        5.7653706768       33.6034628508  WZ4       1993            0.0000000000
     19698      6566  TIP3      H2            -10.8870449752        5.2056806768       33.8329428508  WZ4       1993            0.0000000000
     19699      6567  TIP3      OH2            -8.4531649752       10.7533206768       34.4950528508  WZ4       1994            0.0000000000
     19700      6567  TIP3      H1             -7.7026849752       10.5970706768       33.9218328508  WZ4       1994            0.0000000000
     19701      6567  TIP3      H2             -8.7923349752       11.6049806768       34.2196028508  WZ4       1994            0.0000000000
     19702      6568  TIP3      OH2            -9.2294549752        2.7702706768       34.6868928508  WZ4       1998            0.0000000000
     19703      6568  TIP3      H1             -9.3274949752        3.7165906768       34.5815128508  WZ4       1998            0.0000000000
     19704      6568  TIP3      H2             -9.9718349752        2.3976506768       34.2112428508  WZ4       1998            0.0000000000
     19705      6569  TIP3      OH2            -9.1076649752       20.6298806768       22.5882028508  WZ4       2005            0.0000000000
     19706      6569  TIP3      H1             -8.1745949752       20.7877506768       22.7320428508  WZ4       2005            0.0000000000
     19707      6569  TIP3      H2             -9.3717849752       21.3051806768       21.9633528508  WZ4       2005            0.0000000000
     19708      6570  TIP3      OH2           -15.5391749752       15.2662606768       22.0710128508  WZ4       2006            0.0000000000
     19709      6570  TIP3      H1            -14.6252549752       15.3451506768       22.3444028508  WZ4       2006            0.0000000000
     19710      6570  TIP3      H2            -15.5318649752       14.5792206768       21.4045728508  WZ4       2006            0.0000000000
     19711      6571  TIP3      OH2             0.8432750248       13.1627406768       25.0076928508  WZ4       2012            0.0000000000
     19712      6571  TIP3      H1              1.6934150248       13.5838306768       25.1348528508  WZ4       2012            0.0000000000
     19713      6571  TIP3      H2              0.8487850248       12.4227506768       25.6148328508  WZ4       2012            0.0000000000
     19714      6572  TIP3      OH2             1.2378350248       11.2164806768       26.8312628508  WZ4       2013            0.0000000000
     19715      6572  TIP3      H1              0.5112950248       10.7367406768       27.2290228508  WZ4       2013            0.0000000000
     19716      6572  TIP3      H2              1.8191650248       11.4219506768       27.5634228508  WZ4       2013            0.0000000000
     19717      6573  TIP3      OH2             0.9969550248       14.0012306768       31.7790228508  WZ4       2014            0.0000000000
     19718      6573  TIP3      H1              1.8303750248       13.6232306768       31.4983828508  WZ4       2014            0.0000000000
     19719      6573  TIP3      H2              1.1089850248       14.9443506768       31.6599328508  WZ4       2014            0.0000000000
     19720      6574  TIP3      OH2             1.5061450248       11.1173306768       23.2223928508  WZ4       2016            0.0000000000
     19721      6574  TIP3      H1              0.9842550248       11.4737406768       22.5034828508  WZ4       2016            0.0000000000
     19722      6574  TIP3      H2              1.4730650248       11.7921106768       23.9004828508  WZ4       2016            0.0000000000
     19723      6575  TIP3      OH2            -0.1449549752        8.3568906768       21.7731028508  WZ4       2017            0.0000000000
     19724      6575  TIP3      H1             -0.0485149752        9.0235906768       21.0930728508  WZ4       2017            0.0000000000
     19725      6575  TIP3      H2             -0.2849949752        7.5415206768       21.2916528508  WZ4       2017            0.0000000000
     19726      6576  TIP3      OH2            -0.9754849752        9.7371306768       27.3941328508  WZ4       2018            0.0000000000
     19727      6576  TIP3      H1             -1.1256049752        8.7919906768       27.3739128508  WZ4       2018            0.0000000000
     19728      6576  TIP3      H2             -1.3290349752       10.0182706768       28.2380428508  WZ4       2018            0.0000000000
     19729      6577  TIP3      OH2           -15.9402449752       11.8153506768       31.4045128508  WZ4       2019            0.0000000000
     19730      6577  TIP3      H1            -15.7559549752       11.7335206768       30.4688028508  WZ4       2019            0.0000000000
     19731      6577  TIP3      H2            -15.0909549752       11.6910506768       31.8281528508  WZ4       2019            0.0000000000
     19732      6578  TIP3      OH2            -0.8975749752        5.7648706768       20.8906528508  WZ4       2022            0.0000000000
     19733      6578  TIP3      H1             -0.2869949752        5.3935506768       21.5274728508  WZ4       2022            0.0000000000
     19734      6578  TIP3      H2             -1.7344249752        5.3435606768       21.0866528508  WZ4       2022            0.0000000000
     19735      6579  TIP3      OH2            -1.2650049752        7.3197106768       25.8566428508  WZ4       2023            0.0000000000
     19736      6579  TIP3      H1             -0.9852949752        6.4127506768       25.9808128508  WZ4       2023            0.0000000000
     19737      6579  TIP3      H2             -0.5058349752        7.7538606768       25.4675628508  WZ4       2023            0.0000000000
     19738      6580  TIP3      OH2            -0.6531749752        7.9014506768       31.2925328508  WZ4       2024            0.0000000000
     19739      6580  TIP3      H1              0.2796250248        8.1134406768       31.2581328508  WZ4       2024            0.0000000000
     19740      6580  TIP3      H2             -0.8884249752        8.0026606768       32.2148328508  WZ4       2024            0.0000000000
     19741      6581  TIP3      OH2            -0.6239849752        8.6379806768       34.0684728508  WZ4       2025            0.0000000000
     19742      6581  TIP3      H1             -1.4668549752        8.9060206768       34.4344528508  WZ4       2025            0.0000000000
     19743      6581  TIP3      H2             -0.1815549752        9.4601706768       33.8575828508  WZ4       2025            0.0000000000
     19744      6582  TIP3      OH2            -0.6515249752        4.5826406768       25.9048428508  WZ4       2028            0.0000000000
     19745      6582  TIP3      H1             -0.4690249752        4.1337906768       26.7303428508  WZ4       2028            0.0000000000
     19746      6582  TIP3      H2             -1.2512349752        3.9980806768       25.4413028508  WZ4       2028            0.0000000000
     19747      6583  TIP3      OH2           -15.1215149752        5.3980106768       30.4366828508  WZ4       2029            0.0000000000
     19748      6583  TIP3      H1            -14.6763549752        4.6062606768       30.7386528508  WZ4       2029            0.0000000000
     19749      6583  TIP3      H2            -14.6552149752        6.1145306768       30.8672428508  WZ4       2029            0.0000000000
     19750      6584  TIP3      OH2           -16.8174849752        8.3973106768       31.5057028508  WZ4       2030            0.0000000000
     19751      6584  TIP3      H1            -16.3255049752        8.1763606768       30.7149028508  WZ4       2030            0.0000000000
     19752      6584  TIP3      H2            -16.4553949752        9.2376506768       31.7866528508  WZ4       2030            0.0000000000
     19753      6585  TIP3      OH2             1.2150950248        4.6504506768       22.4328728508  WZ4       2032            0.0000000000
     19754      6585  TIP3      H1              1.6273550248        3.9290206768       21.9576728508  WZ4       2032            0.0000000000
     19755      6585  TIP3      H2              1.8967450248        5.3199106768       22.4913028508  WZ4       2032            0.0000000000
     19756      6586  TIP3      OH2           -16.5038349752        4.6552206768       25.5599428508  WZ4       2033            0.0000000000
     19757      6586  TIP3      H1            -17.4289949752        4.8638806768       25.4304928508  WZ4       2033            0.0000000000
     19758      6586  TIP3      H2            -16.0498449752        5.1393006768       24.8701728508  WZ4       2033            0.0000000000
     19759      6587  TIP3      OH2            -1.7331149752       19.6393906768       27.5056828508  WZ4       2034            0.0000000000
     19760      6587  TIP3      H1             -1.0808249752       19.2916006768       26.8975928508  WZ4       2034            0.0000000000
     19761      6587  TIP3      H2             -1.2227349752       20.1277106768       28.1516528508  WZ4       2034            0.0000000000
     19762      6588  TIP3      OH2             0.1794850248        2.8170906768       35.5901828508  WZ4       2040            0.0000000000
     19763      6588  TIP3      H1             -0.6331649752        3.1421206768       35.2026528508  WZ4       2040            0.0000000000
     19764      6588  TIP3      H2              0.4123350248        2.0569406768       35.0570928508  WZ4       2040            0.0000000000
     19765      6589  TIP3      OH2            -4.4869549752       19.1652806768       33.5050528508  WZ4       2044            0.0000000000
     19766      6589  TIP3      H1             -5.3915849752       19.3303006768       33.2392628508  WZ4       2044            0.0000000000
     19767      6589  TIP3      H2             -4.0580949752       20.0185006768       33.4393928508  WZ4       2044            0.0000000000
     19768      6590  TIP3      OH2           -12.4362849752       18.1321606768       29.9198728508  WZ4       2047            0.0000000000
     19769      6590  TIP3      H1            -12.6552149752       17.2159006768       30.0894728508  WZ4       2047            0.0000000000
     19770      6590  TIP3      H2            -11.6120649752       18.2722006768       30.3860128508  WZ4       2047            0.0000000000
     19771      6591  TIP3      OH2            -9.8990349752       18.6020906768       30.7686728508  WZ4       2048            0.0000000000
     19772      6591  TIP3      H1             -9.6864649752       17.7139906768       30.4817628508  WZ4       2048            0.0000000000
     19773      6591  TIP3      H2             -9.8345249752       18.5678606768       31.7230728508  WZ4       2048            0.0000000000
     19774      6592  TIP3      OH2            -6.3906649752        4.2661506768       29.9130028508  WZ4       2049            0.0000000000
     19775      6592  TIP3      H1             -7.0649849752        3.6367106768       30.1685828508  WZ4       2049            0.0000000000
     19776      6592  TIP3      H2             -5.8267449752        3.7820406768       29.3097928508  WZ4       2049            0.0000000000
     19777      6593  TIP3      OH2            -1.2479449752        2.3735506768       30.0257128508  WZ4       2050            0.0000000000
     19778      6593  TIP3      H1             -0.6441849752        2.9210906768       29.5238128508  WZ4       2050            0.0000000000
     19779      6593  TIP3      H2             -2.1177449752        2.6925906768       29.7851228508  WZ4       2050            0.0000000000
     19780      6594  TIP3      OH2             0.4790950248        3.5124206768       28.3588028508  WZ4       2051            0.0000000000
     19781      6594  TIP3      H1              1.0908450248        2.9979906768       27.8321628508  WZ4       2051            0.0000000000
     19782      6594  TIP3      H2              0.8614350248        4.3896306768       28.3822428508  WZ4       2051            0.0000000000
     19783      6595  TIP3      OH2           -14.0639149752        2.9001806768       27.7349928508  WZ4       2052            0.0000000000
     19784      6595  TIP3      H1            -14.8409349752        2.6656706768       27.2275828508  WZ4       2052            0.0000000000
     19785      6595  TIP3      H2            -13.5335549752        2.1033906768       27.7437928508  WZ4       2052            0.0000000000
     19786      6596  TIP3      OH2           -15.2275749752        2.6979906768       23.5386028508  WZ4       2053            0.0000000000
     19787      6596  TIP3      H1            -14.7885049752        3.3090406768       22.9469528508  WZ4       2053            0.0000000000
     19788      6596  TIP3      H2            -15.8613349752        3.2364006768       24.0126028508  WZ4       2053            0.0000000000
     19789      6597  TIP3      OH2            -9.4846549752        2.8268906768       27.5483028508  WZ4       2054            0.0000000000
     19790      6597  TIP3      H1             -8.6103149752        3.2153206768       27.5187328508  WZ4       2054            0.0000000000
     19791      6597  TIP3      H2             -9.6205749752        2.6116706768       28.4710228508  WZ4       2054            0.0000000000
     19792      6598  TIP3      OH2            -3.9278149752        2.8568706768       29.1974728508  WZ4       2055            0.0000000000
     19793      6598  TIP3      H1             -3.8516549752        2.9520306768       28.2480728508  WZ4       2055            0.0000000000
     19794      6598  TIP3      H2             -4.2028949752        1.9491606768       29.3263828508  WZ4       2055            0.0000000000
     19795      6599  TIP3      OH2            -2.5745549752        2.8826506768       24.8899728508  WZ4       2056            0.0000000000
     19796      6599  TIP3      H1             -3.2774449752        3.4975706768       24.6801128508  WZ4       2056            0.0000000000
     19797      6599  TIP3      H2             -3.0194149752        2.0453206768       25.0210628508  WZ4       2056            0.0000000000
     19798      6600  TIP3      OH2           -15.3266249752       18.6462106768       24.4361128508  WZ4       2057            0.0000000000
     19799      6600  TIP3      H1            -16.0116349752       18.6081006768       23.7686228508  WZ4       2057            0.0000000000
     19800      6600  TIP3      H2            -15.3229049752       19.5589706768       24.7243228508  WZ4       2057            0.0000000000
     19801      6601  TIP3      OH2           -13.3666649752        4.6141406768       21.9810128508  WZ4       2058            0.0000000000
     19802      6601  TIP3      H1            -12.8753249752        3.9843806768       21.4535628508  WZ4       2058            0.0000000000
     19803      6601  TIP3      H2            -12.7430349752        4.9100806768       22.6441328508  WZ4       2058            0.0000000000
     19804      6602  TIP3      OH2            -8.3406549752        4.9072906768       24.4380628508  WZ4       2059            0.0000000000
     19805      6602  TIP3      H1             -8.1625249752        4.2606106768       25.1209228508  WZ4       2059            0.0000000000
     19806      6602  TIP3      H2             -8.3940349752        5.7410606768       24.9051728508  WZ4       2059            0.0000000000
     19807      6603  TIP3      OH2            -6.4622749752       19.8557006768       22.8337328508  WZ4       2060            0.0000000000
     19808      6603  TIP3      H1             -5.5962549752       20.2224406768       22.6555528508  WZ4       2060            0.0000000000
     19809      6603  TIP3      H2             -6.7089949752       19.4165006768       22.0198128508  WZ4       2060            0.0000000000
     19810      6604  TIP3      OH2             0.2466850248       19.4187306768       25.5128428508  WZ4       2061            0.0000000000
     19811      6604  TIP3      H1              0.0523950248       18.6709406768       24.9478028508  WZ4       2061            0.0000000000
     19812      6604  TIP3      H2              0.2076950248       20.1767406768       24.9296328508  WZ4       2061            0.0000000000
     19813      6605  TIP3      OH2           -13.5085049752       19.5662906768       21.4613228508  WZ4       2064            0.0000000000
     19814      6605  TIP3      H1            -13.7760449752       19.8525806768       22.3346328508  WZ4       2064            0.0000000000
     19815      6605  TIP3      H2            -12.7372449752       19.0202106768       21.6135728508  WZ4       2064            0.0000000000
     19816      6606  TIP3      OH2             2.7053350248        9.0358406768       26.6333428508  WZ4       2072            0.0000000000
     19817      6606  TIP3      H1              2.2576750248        9.8817106768       26.6149928508  WZ4       2072            0.0000000000
     19818      6606  TIP3      H2              2.1444550248        8.4562606768       26.1178528508  WZ4       2072            0.0000000000
     19819      6607  TIP3      OH2             3.4159450248       11.1978006768       28.7591428508  WZ4       2073            0.0000000000
     19820      6607  TIP3      H1              3.6292950248       10.4279606768       29.2864428508  WZ4       2073            0.0000000000
     19821      6607  TIP3      H2              4.1537050248       11.2874706768       28.1559028508  WZ4       2073            0.0000000000
     19822      6608  TIP3      OH2             7.4884450248        6.2395006768       29.1186228508  WZ4       2078            0.0000000000
     19823      6608  TIP3      H1              7.5315550248        7.0993506768       28.7002528508  WZ4       2078            0.0000000000
     19824      6608  TIP3      H2              7.0308550248        5.6869706768       28.4849428508  WZ4       2078            0.0000000000
     19825      6609  TIP3      OH2            15.2107150248        6.3700606768       27.5194528508  WZ4       2079            0.0000000000
     19826      6609  TIP3      H1             15.8571450248        6.0413806768       28.1442128508  WZ4       2079            0.0000000000
     19827      6609  TIP3      H2             15.7206550248        6.8879606768       26.8965928508  WZ4       2079            0.0000000000
     19828      6610  TIP3      OH2             4.1085950248        8.6360806768       29.8807628508  WZ4       2080            0.0000000000
     19829      6610  TIP3      H1              4.7622550248        8.0862506768       30.3127728508  WZ4       2080            0.0000000000
     19830      6610  TIP3      H2              4.1325250248        8.3619806768       28.9639628508  WZ4       2080            0.0000000000
     19831      6611  TIP3      OH2             9.2650450248       10.1862106768       29.0959128508  WZ4       2081            0.0000000000
     19832      6611  TIP3      H1              9.8811450248        9.6597506768       29.6053128508  WZ4       2081            0.0000000000
     19833      6611  TIP3      H2              8.6789250248        9.5460806768       28.6922728508  WZ4       2081            0.0000000000
     19834      6612  TIP3      OH2             6.2986350248        5.1573406768       33.1927028508  WZ4       2083            0.0000000000
     19835      6612  TIP3      H1              6.0798050248        5.6874006768       32.4263028508  WZ4       2083            0.0000000000
     19836      6612  TIP3      H2              5.6307250248        5.3838906768       33.8398428508  WZ4       2083            0.0000000000
     19837      6613  TIP3      OH2             5.8923650248        7.0495206768       31.1449228508  WZ4       2087            0.0000000000
     19838      6613  TIP3      H1              6.5059950248        7.6822806768       31.5181628508  WZ4       2087            0.0000000000
     19839      6613  TIP3      H2              6.4044350248        6.5770206768       30.4886128508  WZ4       2087            0.0000000000
     19840      6614  TIP3      OH2             3.3962950248       14.4680006768       25.0491528508  WZ4       2089            0.0000000000
     19841      6614  TIP3      H1              3.1243850248       14.6971006768       24.1604428508  WZ4       2089            0.0000000000
     19842      6614  TIP3      H2              3.4418650248       15.3058806768       25.5096828508  WZ4       2089            0.0000000000
     19843      6615  TIP3      OH2            10.3251050248        2.4628506768       30.6451928508  WZ4       2092            0.0000000000
     19844      6615  TIP3      H1             10.2075250248        1.5144506768       30.5910228508  WZ4       2092            0.0000000000
     19845      6615  TIP3      H2              9.4701150248        2.7954606768       30.9183028508  WZ4       2092            0.0000000000
     19846      6616  TIP3      OH2            12.5915950248       11.3004106768       25.1457728508  WZ4       2096            0.0000000000
     19847      6616  TIP3      H1             11.8801450248       11.8353806768       24.7938228508  WZ4       2096            0.0000000000
     19848      6616  TIP3      H2             13.2825550248       11.3556206768       24.4856628508  WZ4       2096            0.0000000000
     19849      6617  TIP3      OH2            12.6455150248        9.7578406768       22.1842728508  WZ4       2097            0.0000000000
     19850      6617  TIP3      H1             13.3465050248        9.7805306768       22.8356728508  WZ4       2097            0.0000000000
     19851      6617  TIP3      H2             12.9478050248        9.1298106768       21.5282028508  WZ4       2097            0.0000000000
     19852      6618  TIP3      OH2             7.6427350248       12.1403606768       27.9798628508  WZ4       2101            0.0000000000
     19853      6618  TIP3      H1              7.3122550248       11.7697006768       27.1615628508  WZ4       2101            0.0000000000
     19854      6618  TIP3      H2              8.2311450248       11.4697606768       28.3266928508  WZ4       2101            0.0000000000
     19855      6619  TIP3      OH2            14.8683150248       10.6720306768       23.7824828508  WZ4       2106            0.0000000000
     19856      6619  TIP3      H1             15.4478650248       10.8220606768       24.5293728508  WZ4       2106            0.0000000000
     19857      6619  TIP3      H2             15.2823150248       11.1427706768       23.0591228508  WZ4       2106            0.0000000000
     19858      6620  TIP3      OH2            18.5671550248        2.4220706768       23.5954528508  WZ4       2110            0.0000000000
     19859      6620  TIP3      H1             17.6672250248        2.5609706768       23.8905128508  WZ4       2110            0.0000000000
     19860      6620  TIP3      H2             18.8189950248        3.2535306768       23.1936228508  WZ4       2110            0.0000000000
     19861      6621  TIP3      OH2             6.6330050248       11.2097906768       25.5691428508  WZ4       2111            0.0000000000
     19862      6621  TIP3      H1              6.3411350248       11.9779606768       25.0782728508  WZ4       2111            0.0000000000
     19863      6621  TIP3      H2              5.9585250248       10.5504106768       25.4062828508  WZ4       2111            0.0000000000
     19864      6622  TIP3      OH2             5.7204950248       19.1540506768       27.4136128508  WZ4       2118            0.0000000000
     19865      6622  TIP3      H1              5.8725350248       18.8060906768       28.2922628508  WZ4       2118            0.0000000000
     19866      6622  TIP3      H2              4.8695350248       18.7977806768       27.1583328508  WZ4       2118            0.0000000000
     19867      6623  TIP3      OH2            15.1687150248       19.5193706768       22.6349528508  WZ4       2119            0.0000000000
     19868      6623  TIP3      H1             15.5435550248       18.7749806768       22.1642128508  WZ4       2119            0.0000000000
     19869      6623  TIP3      H2             15.1730850248       19.2494306768       23.5532828508  WZ4       2119            0.0000000000
     19870      6624  TIP3      OH2             7.5938650248        3.3663006768       31.4228228508  WZ4       2123            0.0000000000
     19871      6624  TIP3      H1              6.7322350248        3.2791206768       31.0151128508  WZ4       2123            0.0000000000
     19872      6624  TIP3      H2              7.5714350248        4.2223106768       31.8505828508  WZ4       2123            0.0000000000
     19873      6625  TIP3      OH2            16.3456250248       11.7048606768       21.4122728508  WZ4       2126            0.0000000000
     19874      6625  TIP3      H1             16.3877050248       11.4822506768       20.4822728508  WZ4       2126            0.0000000000
     19875      6625  TIP3      H2             17.1948350248       12.1035706768       21.6022628508  WZ4       2126            0.0000000000
     19876      6626  TIP3      OH2            11.9183750248        5.5806806768       22.0826028508  WZ4       2127            0.0000000000
     19877      6626  TIP3      H1             11.6648550248        5.5998406768       23.0054128508  WZ4       2127            0.0000000000
     19878      6626  TIP3      H2             11.6615850248        4.7092206768       21.7812228508  WZ4       2127            0.0000000000
     19879      6627  TIP3      OH2             7.6817850248        8.5527606768       27.4298428508  WZ4       2129            0.0000000000
     19880      6627  TIP3      H1              6.7890750248        8.2123706768       27.3712228508  WZ4       2129            0.0000000000
     19881      6627  TIP3      H2              8.1324450248        8.1758506768       26.6741628508  WZ4       2129            0.0000000000
     19882      6628  TIP3      OH2            13.2173350248        8.9687906768       26.2469228508  WZ4       2130            0.0000000000
     19883      6628  TIP3      H1             12.8083650248        9.7836506768       25.9554028508  WZ4       2130            0.0000000000
     19884      6628  TIP3      H2             13.9379550248        8.8288006768       25.6326328508  WZ4       2130            0.0000000000
     19885      6629  TIP3      OH2             8.8006650248        6.0263306768       21.1836428508  WZ4       2134            0.0000000000
     19886      6629  TIP3      H1              8.3697350248        5.5813406768       21.9133828508  WZ4       2134            0.0000000000
     19887      6629  TIP3      H2              8.0825350248        6.3979606768       20.6713928508  WZ4       2134            0.0000000000
     19888      6630  TIP3      OH2             2.0430050248        5.7682806768       28.2355128508  WZ4       2135            0.0000000000
     19889      6630  TIP3      H1              2.6737750248        5.7394906768       28.9549028508  WZ4       2135            0.0000000000
     19890      6630  TIP3      H2              2.4924350248        5.3431506768       27.5051028508  WZ4       2135            0.0000000000
     19891      6631  TIP3      OH2             3.3172150248        6.5144806768       23.6595528508  WZ4       2136            0.0000000000
     19892      6631  TIP3      H1              3.7913850248        7.1054706768       23.0746428508  WZ4       2136            0.0000000000
     19893      6631  TIP3      H2              2.5998550248        7.0447706768       24.0065628508  WZ4       2136            0.0000000000
     19894      6632  TIP3      OH2            10.2633150248        5.9805106768       28.5162528508  WZ4       2138            0.0000000000
     19895      6632  TIP3      H1              9.3524250248        6.0371906768       28.8048528508  WZ4       2138            0.0000000000
     19896      6632  TIP3      H2             10.7686050248        5.9200606768       29.3269728508  WZ4       2138            0.0000000000
     19897      6633  TIP3      OH2             5.0916550248        7.6091406768       27.3430128508  WZ4       2139            0.0000000000
     19898      6633  TIP3      H1              4.2024550248        7.7086906768       27.0029728508  WZ4       2139            0.0000000000
     19899      6633  TIP3      H2              5.3881450248        6.7674406768       26.9968028508  WZ4       2139            0.0000000000
     19900      6634  TIP3      OH2             8.7448350248        7.6094006768       24.9994728508  WZ4       2140            0.0000000000
     19901      6634  TIP3      H1              9.6763850248        7.7384006768       25.1777828508  WZ4       2140            0.0000000000
     19902      6634  TIP3      H2              8.5298650248        8.2788306768       24.3499428508  WZ4       2140            0.0000000000
     19903      6635  TIP3      OH2             7.4188550248        8.8036206768       22.5660828508  WZ4       2142            0.0000000000
     19904      6635  TIP3      H1              6.8763650248        8.4240006768       21.8748428508  WZ4       2142            0.0000000000
     19905      6635  TIP3      H2              8.2523450248        8.9980906768       22.1374928508  WZ4       2142            0.0000000000
     19906      6636  TIP3      OH2             6.5852550248        4.9044206768       26.8216928508  WZ4       2146            0.0000000000
     19907      6636  TIP3      H1              6.2682050248        4.0019506768       26.7862328508  WZ4       2146            0.0000000000
     19908      6636  TIP3      H2              7.3666650248        4.9061606768       26.2688528508  WZ4       2146            0.0000000000
     19909      6637  TIP3      OH2            10.7541350248       13.3691906768       24.5018928508  WZ4       2148            0.0000000000
     19910      6637  TIP3      H1             10.0092350248       12.8617206768       24.1796828508  WZ4       2148            0.0000000000
     19911      6637  TIP3      H2             10.6198550248       13.4179906768       25.4483728508  WZ4       2148            0.0000000000
     19912      6638  TIP3      OH2            14.6518150248        6.1831806768       22.7011528508  WZ4       2150            0.0000000000
     19913      6638  TIP3      H1             13.7132350248        6.2947406768       22.5500328508  WZ4       2150            0.0000000000
     19914      6638  TIP3      H2             14.9490250248        7.0398706768       23.0077228508  WZ4       2150            0.0000000000
     19915      6639  TIP3      OH2            15.3701650248        8.0504506768       24.3618928508  WZ4       2152            0.0000000000
     19916      6639  TIP3      H1             16.2620650248        7.9129506768       24.6810128508  WZ4       2152            0.0000000000
     19917      6639  TIP3      H2             15.4265250248        8.8410606768       23.8252428508  WZ4       2152            0.0000000000
     19918      6640  TIP3      OH2             5.8789650248       12.6641906768       30.2716828508  WZ4       2153            0.0000000000
     19919      6640  TIP3      H1              6.6236850248       12.6617606768       29.6703328508  WZ4       2153            0.0000000000
     19920      6640  TIP3      H2              5.9566250248       11.8405706768       30.7531928508  WZ4       2153            0.0000000000
     19921      6641  TIP3      OH2            12.8795450248       14.8276206768       23.5273528508  WZ4       2154            0.0000000000
     19922      6641  TIP3      H1             12.5843850248       15.6544106768       23.9088328508  WZ4       2154            0.0000000000
     19923      6641  TIP3      H2             12.1765450248       14.2083106768       23.7234928508  WZ4       2154            0.0000000000
     19924      6642  TIP3      OH2            20.2550350248        8.2598606768       24.0565628508  WZ4       2158            0.0000000000
     19925      6642  TIP3      H1             19.7006650248        7.8636606768       23.3843128508  WZ4       2158            0.0000000000
     19926      6642  TIP3      H2             20.3553950248        9.1703806768       23.7788928508  WZ4       2158            0.0000000000
     19927      6643  TIP3      OH2             8.2539050248       16.1820106768       27.6758328508  WZ4       2162            0.0000000000
     19928      6643  TIP3      H1              8.7811250248       16.9554506768       27.4757128508  WZ4       2162            0.0000000000
     19929      6643  TIP3      H2              7.3737550248       16.4069306768       27.3742328508  WZ4       2162            0.0000000000
     19930      6644  TIP3      OH2             4.0086750248       11.0444206768       22.2630728508  WZ4       2163            0.0000000000
     19931      6644  TIP3      H1              4.6246650248       11.6711406768       22.6425528508  WZ4       2163            0.0000000000
     19932      6644  TIP3      H2              3.1469350248       11.3604006768       22.5347228508  WZ4       2163            0.0000000000
     19933      6645  TIP3      OH2             9.6811350248       13.8450006768       27.2522628508  WZ4       2164            0.0000000000
     19934      6645  TIP3      H1              9.4401350248       14.7704406768       27.2937928508  WZ4       2164            0.0000000000
     19935      6645  TIP3      H2              8.9404950248       13.3861306768       27.6486528508  WZ4       2164            0.0000000000
     19936      6646  TIP3      OH2             8.3642150248       18.8667606768       26.7974828508  WZ4       2166            0.0000000000
     19937      6646  TIP3      H1              7.4142650248       18.9725006768       26.8488128508  WZ4       2166            0.0000000000
     19938      6646  TIP3      H2              8.7160250248       19.6875006768       27.1422328508  WZ4       2166            0.0000000000
     19939      6647  TIP3      OH2            15.9427650248       15.0224806768       22.3418328508  WZ4       2168            0.0000000000
     19940      6647  TIP3      H1             16.2960750248       14.6424606768       23.1461828508  WZ4       2168            0.0000000000
     19941      6647  TIP3      H2             14.9941150248       14.9289606768       22.4287628508  WZ4       2168            0.0000000000
     19942      6648  TIP3      OH2            10.0335450248       16.1340906768       20.7888328508  WZ4       2174            0.0000000000
     19943      6648  TIP3      H1             10.2725250248       15.3859006768       20.2417228508  WZ4       2174            0.0000000000
     19944      6648  TIP3      H2              9.7646750248       15.7462606768       21.6216128508  WZ4       2174            0.0000000000
     19945      6649  TIP3      OH2             8.9706050248       15.7044706768       23.2450928508  WZ4       2175            0.0000000000
     19946      6649  TIP3      H1              9.1174050248       15.1844506768       24.0351828508  WZ4       2175            0.0000000000
     19947      6649  TIP3      H2              8.9677750248       16.6112306768       23.5516828508  WZ4       2175            0.0000000000
     19948      6650  TIP3      OH2             5.4237150248       12.9568006768       23.7556328508  WZ4       2176            0.0000000000
     19949      6650  TIP3      H1              4.7376450248       13.3090506768       24.3226028508  WZ4       2176            0.0000000000
     19950      6650  TIP3      H2              5.9465050248       13.7197606768       23.5090628508  WZ4       2176            0.0000000000
     19951      6651  TIP3      OH2            14.0397150248        5.2713506768       25.1317628508  WZ4       2178            0.0000000000
     19952      6651  TIP3      H1             14.2595450248        5.7428906768       24.3283028508  WZ4       2178            0.0000000000
     19953      6651  TIP3      H2             14.5981150248        5.6656106768       25.8018228508  WZ4       2178            0.0000000000
     19954      6652  TIP3      OH2            11.7083250248       17.4018306768       23.9945128508  WZ4       2179            0.0000000000
     19955      6652  TIP3      H1             10.8919350248       17.8988006768       24.0469428508  WZ4       2179            0.0000000000
     19956      6652  TIP3      H2             12.2379550248       17.8771806768       23.3543928508  WZ4       2179            0.0000000000
     19957      6653  TIP3      OH2            11.2397050248        6.9992306768       25.9666028508  WZ4       2180            0.0000000000
     19958      6653  TIP3      H1             12.0519650248        7.5035506768       26.0127728508  WZ4       2180            0.0000000000
     19959      6653  TIP3      H2             10.9950050248        6.8542006768       26.8805628508  WZ4       2180            0.0000000000
     19960      6654  TIP3      OH2            12.1233750248        4.0805306768       26.9047128508  WZ4       2182            0.0000000000
     19961      6654  TIP3      H1             11.7767250248        4.6975906768       27.5491428508  WZ4       2182            0.0000000000
     19962      6654  TIP3      H2             12.7820650248        4.5811006768       26.4232628508  WZ4       2182            0.0000000000
     19963      6655  TIP3      OH2             9.0466350248       18.4455506768       23.9762028508  WZ4       2183            0.0000000000
     19964      6655  TIP3      H1              9.2075050248       19.2453006768       23.4754628508  WZ4       2183            0.0000000000
     19965      6655  TIP3      H2              8.8494150248       18.7521506768       24.8612628508  WZ4       2183            0.0000000000
     19966      6656  TIP3      OH2             7.7810750248        5.1434706768       23.5919628508  WZ4       2184            0.0000000000
     19967      6656  TIP3      H1              7.6975550248        6.0317806768       23.9386028508  WZ4       2184            0.0000000000
     19968      6656  TIP3      H2              8.6711050248        4.8781406768       23.8236428508  WZ4       2184            0.0000000000
     19969      6657  TIP3      OH2             6.0396050248       15.5706906768       22.6524128508  WZ4       2187            0.0000000000
     19970      6657  TIP3      H1              6.6317550248       16.2701706768       22.9286528508  WZ4       2187            0.0000000000
     19971      6657  TIP3      H2              6.4989050248       15.1376406768       21.9328728508  WZ4       2187            0.0000000000
     19972      6658  TIP3      OH2             4.3555250248        8.2349906768       21.7683528508  WZ4       2188            0.0000000000
     19973      6658  TIP3      H1              4.3107850248        9.1743006768       21.9470528508  WZ4       2188            0.0000000000
     19974      6658  TIP3      H2              3.4678450248        7.9994806768       21.4985628508  WZ4       2188            0.0000000000
     19975      6659  TIP3      OH2             5.1637250248        3.0166506768       30.4414528508  WZ4       2190            0.0000000000
     19976      6659  TIP3      H1              4.9347050248        3.0759006768       29.5139528508  WZ4       2190            0.0000000000
     19977      6659  TIP3      H2              4.7210650248        2.2252006768       30.7478628508  WZ4       2190            0.0000000000
     19978      6660  TIP3      OH2             4.0940550248       16.9573606768       26.6020328508  WZ4       2191            0.0000000000
     19979      6660  TIP3      H1              3.2619150248       17.4296306768       26.6291728508  WZ4       2191            0.0000000000
     19980      6660  TIP3      H2              4.6398850248       17.4671206768       26.0033428508  WZ4       2191            0.0000000000
     19981      6661  TIP3      OH2            12.0717250248       17.9972306768       20.9274328508  WZ4       2194            0.0000000000
     19982      6661  TIP3      H1             11.4278250248       17.3660906768       21.2488028508  WZ4       2194            0.0000000000
     19983      6661  TIP3      H2             12.8335550248       17.4660306768       20.6957828508  WZ4       2194            0.0000000000
     19984      6662  TIP3      OH2            16.6760150248       17.8142206768       21.1612328508  WZ4       2196            0.0000000000
     19985      6662  TIP3      H1             16.9590550248       17.0197406768       21.6139228508  WZ4       2196            0.0000000000
     19986      6662  TIP3      H2             17.4158050248       18.0473206768       20.6003428508  WZ4       2196            0.0000000000
     19987      6663  TIP3      OH2             7.6307450248       13.7237106768       21.0187228508  WZ4       2198            0.0000000000
     19988      6663  TIP3      H1              7.6951550248       12.9296706768       21.5493628508  WZ4       2198            0.0000000000
     19989      6663  TIP3      H2              8.2836650248       13.6049906768       20.3289228508  WZ4       2198            0.0000000000
     19990      6664  TIP3      OH2            12.9830850248       14.7708806768       20.7545228508  WZ4       2200            0.0000000000
     19991      6664  TIP3      H1             12.7144950248       14.9510906768       21.6554128508  WZ4       2200            0.0000000000
     19992      6664  TIP3      H2             12.7766450248       13.8455006768       20.6231028508  WZ4       2200            0.0000000000
     19993      6665  TIP3      OH2             8.7801250248       11.6963306768       23.3245228508  WZ4       2203            0.0000000000
     19994      6665  TIP3      H1              8.3203250248       11.2121606768       24.0103728508  WZ4       2203            0.0000000000
     19995      6665  TIP3      H2              9.0349950248       11.0278706768       22.6885728508  WZ4       2203            0.0000000000
     19996      6666  TIP3      OH2             9.8511650248        9.9395106768       21.5868428508  WZ4       2205            0.0000000000
     19997      6666  TIP3      H1              9.6706650248        9.7846306768       20.6596728508  WZ4       2205            0.0000000000
     19998      6666  TIP3      H2             10.8012150248       10.0473806768       21.6316328508  WZ4       2205            0.0000000000
     19999      6667  TIP3      OH2            19.2409950248       12.2939306768       21.0326528508  WZ4       2207            0.0000000000
     20000      6667  TIP3      H1             18.9674750248       11.8694806768       20.2194828508  WZ4       2207            0.0000000000
     20001      6667  TIP3      H2             19.2804050248       13.2253806768       20.8156928508  WZ4       2207            0.0000000000
     20002      6668  TIP3      OH2             9.7483350248       20.6298806768       22.5882028508  WZ4       2221            0.0000000000
     20003      6668  TIP3      H1             10.6814050248       20.7877506768       22.7320428508  WZ4       2221            0.0000000000
     20004      6668  TIP3      H2              9.4842150248       21.3051806768       21.9633528508  WZ4       2221            0.0000000000
     20005      6669  TIP3      OH2             3.3168250248       15.2662606768       22.0710128508  WZ4       2222            0.0000000000
     20006      6669  TIP3      H1              4.2307450248       15.3451506768       22.3444028508  WZ4       2222            0.0000000000
     20007      6669  TIP3      H2              3.3241350248       14.5792206768       21.4045728508  WZ4       2222            0.0000000000
     20008      6670  TIP3      OH2             1.9658850248       20.6591106768       27.1484028508  WZ4       2223            0.0000000000
     20009      6670  TIP3      H1              1.3185950248       20.1972806768       26.6155228508  WZ4       2223            0.0000000000
     20010      6670  TIP3      H2              2.3203450248       19.9874406768       27.7310228508  WZ4       2223            0.0000000000
     20011      6671  TIP3      OH2             2.8358050248       18.7398106768       28.9530228508  WZ4       2224            0.0000000000
     20012      6671  TIP3      H1              2.5014850248       17.8595406768       29.1250428508  WZ4       2224            0.0000000000
     20013      6671  TIP3      H2              3.0580450248       19.0853106768       29.8175828508  WZ4       2224            0.0000000000
     20014      6672  TIP3      OH2            20.3621450248       11.1173306768       23.2223928508  WZ4       2232            0.0000000000
     20015      6672  TIP3      H1             19.8402550248       11.4737406768       22.5034828508  WZ4       2232            0.0000000000
     20016      6672  TIP3      H2             20.3290650248       11.7921106768       23.9004828508  WZ4       2232            0.0000000000
     20017      6673  TIP3      OH2            18.7110450248        8.3568906768       21.7731028508  WZ4       2233            0.0000000000
     20018      6673  TIP3      H1             18.8074850248        9.0235906768       21.0930728508  WZ4       2233            0.0000000000
     20019      6673  TIP3      H2             18.5710050248        7.5415206768       21.2916528508  WZ4       2233            0.0000000000
     20020      6674  TIP3      OH2             2.9157550248       11.8153506768       31.4045128508  WZ4       2235            0.0000000000
     20021      6674  TIP3      H1              3.1000450248       11.7335206768       30.4688028508  WZ4       2235            0.0000000000
     20022      6674  TIP3      H2              3.7650450248       11.6910506768       31.8281528508  WZ4       2235            0.0000000000
     20023      6675  TIP3      OH2            17.9584250248        5.7648706768       20.8906528508  WZ4       2238            0.0000000000
     20024      6675  TIP3      H1             18.5690050248        5.3935506768       21.5274728508  WZ4       2238            0.0000000000
     20025      6675  TIP3      H2             17.1215750248        5.3435606768       21.0866528508  WZ4       2238            0.0000000000
     20026      6676  TIP3      OH2            17.5909950248        7.3197106768       25.8566428508  WZ4       2239            0.0000000000
     20027      6676  TIP3      H1             17.8707050248        6.4127506768       25.9808128508  WZ4       2239            0.0000000000
     20028      6676  TIP3      H2             18.3501650248        7.7538606768       25.4675628508  WZ4       2239            0.0000000000
     20029      6677  TIP3      OH2            18.2044750248        4.5826406768       25.9048428508  WZ4       2244            0.0000000000
     20030      6677  TIP3      H1             18.3869750248        4.1337906768       26.7303428508  WZ4       2244            0.0000000000
     20031      6677  TIP3      H2             17.6047650248        3.9980806768       25.4413028508  WZ4       2244            0.0000000000
     20032      6678  TIP3      OH2             3.7344850248        5.3980106768       30.4366828508  WZ4       2245            0.0000000000
     20033      6678  TIP3      H1              4.1796450248        4.6062606768       30.7386528508  WZ4       2245            0.0000000000
     20034      6678  TIP3      H2              4.2007850248        6.1145306768       30.8672428508  WZ4       2245            0.0000000000
     20035      6679  TIP3      OH2             2.0385150248        8.3973106768       31.5057028508  WZ4       2246            0.0000000000
     20036      6679  TIP3      H1              2.5304950248        8.1763606768       30.7149028508  WZ4       2246            0.0000000000
     20037      6679  TIP3      H2              2.4006050248        9.2376506768       31.7866528508  WZ4       2246            0.0000000000
     20038      6680  TIP3      OH2            20.0710950248        4.6504506768       22.4328728508  WZ4       2248            0.0000000000
     20039      6680  TIP3      H1             20.4833550248        3.9290206768       21.9576728508  WZ4       2248            0.0000000000
     20040      6680  TIP3      H2             20.7527450248        5.3199106768       22.4913028508  WZ4       2248            0.0000000000
     20041      6681  TIP3      OH2             2.3521650248        4.6552206768       25.5599428508  WZ4       2249            0.0000000000
     20042      6681  TIP3      H1              1.4270050248        4.8638806768       25.4304928508  WZ4       2249            0.0000000000
     20043      6681  TIP3      H2              2.8061550248        5.1393006768       24.8701728508  WZ4       2249            0.0000000000
     20044      6682  TIP3      OH2             2.3157050248        3.3931206768       33.9041928508  WZ4       2251            0.0000000000
     20045      6682  TIP3      H1              1.6507550248        3.1471506768       34.5472828508  WZ4       2251            0.0000000000
     20046      6682  TIP3      H2              1.8728350248        4.0151606768       33.3269928508  WZ4       2251            0.0000000000
     20047      6683  TIP3      OH2            12.4653350248        4.2661506768       29.9130028508  WZ4       2265            0.0000000000
     20048      6683  TIP3      H1             11.7910150248        3.6367106768       30.1685828508  WZ4       2265            0.0000000000
     20049      6683  TIP3      H2             13.0292550248        3.7820406768       29.3097928508  WZ4       2265            0.0000000000
     20050      6684  TIP3      OH2             4.7920850248        2.9001806768       27.7349928508  WZ4       2268            0.0000000000
     20051      6684  TIP3      H1              4.0150650248        2.6656706768       27.2275828508  WZ4       2268            0.0000000000
     20052      6684  TIP3      H2              5.3224450248        2.1033906768       27.7437928508  WZ4       2268            0.0000000000
     20053      6685  TIP3      OH2             3.6284250248        2.6979906768       23.5386028508  WZ4       2269            0.0000000000
     20054      6685  TIP3      H1              4.0674950248        3.3090406768       22.9469528508  WZ4       2269            0.0000000000
     20055      6685  TIP3      H2              2.9946650248        3.2364006768       24.0126028508  WZ4       2269            0.0000000000
     20056      6686  TIP3      OH2             9.3713450248        2.8268906768       27.5483028508  WZ4       2270            0.0000000000
     20057      6686  TIP3      H1             10.2456850248        3.2153206768       27.5187328508  WZ4       2270            0.0000000000
     20058      6686  TIP3      H2              9.2354250248        2.6116706768       28.4710228508  WZ4       2270            0.0000000000
     20059      6687  TIP3      OH2            14.9281850248        2.8568706768       29.1974728508  WZ4       2271            0.0000000000
     20060      6687  TIP3      H1             15.0043450248        2.9520306768       28.2480728508  WZ4       2271            0.0000000000
     20061      6687  TIP3      H2             14.6531050248        1.9491606768       29.3263828508  WZ4       2271            0.0000000000
     20062      6688  TIP3      OH2            16.2814450248        2.8826506768       24.8899728508  WZ4       2272            0.0000000000
     20063      6688  TIP3      H1             15.5785550248        3.4975706768       24.6801128508  WZ4       2272            0.0000000000
     20064      6688  TIP3      H2             15.8365850248        2.0453206768       25.0210628508  WZ4       2272            0.0000000000
     20065      6689  TIP3      OH2             3.5293750248       18.6462106768       24.4361128508  WZ4       2273            0.0000000000
     20066      6689  TIP3      H1              2.8443650248       18.6081006768       23.7686228508  WZ4       2273            0.0000000000
     20067      6689  TIP3      H2              3.5330950248       19.5589706768       24.7243228508  WZ4       2273            0.0000000000
     20068      6690  TIP3      OH2             5.4893350248        4.6141406768       21.9810128508  WZ4       2274            0.0000000000
     20069      6690  TIP3      H1              5.9806750248        3.9843806768       21.4535628508  WZ4       2274            0.0000000000
     20070      6690  TIP3      H2              6.1129650248        4.9100806768       22.6441328508  WZ4       2274            0.0000000000
     20071      6691  TIP3      OH2            10.5153450248        4.9072906768       24.4380628508  WZ4       2275            0.0000000000
     20072      6691  TIP3      H1             10.6934750248        4.2606106768       25.1209228508  WZ4       2275            0.0000000000
     20073      6691  TIP3      H2             10.4619650248        5.7410606768       24.9051728508  WZ4       2275            0.0000000000
     20074      6692  TIP3      OH2            12.3937250248       19.8557006768       22.8337328508  WZ4       2276            0.0000000000
     20075      6692  TIP3      H1             13.2597450248       20.2224406768       22.6555528508  WZ4       2276            0.0000000000
     20076      6692  TIP3      H2             12.1470050248       19.4165006768       22.0198128508  WZ4       2276            0.0000000000
     20077      6693  TIP3      OH2             5.3474950248       19.5662906768       21.4613228508  WZ4       2280            0.0000000000
     20078      6693  TIP3      H1              5.0799550248       19.8525806768       22.3346328508  WZ4       2280            0.0000000000
     20079      6693  TIP3      H2              6.1187550248       19.0202106768       21.6135728508  WZ4       2280            0.0000000000
     20080      6694  TIP3      OH2            27.6566650248        6.0263306768       21.1836428508  WZ4       2339            0.0000000000
     20081      6694  TIP3      H1             27.2257350248        5.5813406768       21.9133828508  WZ4       2339            0.0000000000
     20082      6694  TIP3      H2             26.9385350248        6.3979606768       20.6713928508  WZ4       2339            0.0000000000
     20083      6695  TIP3      OH2            22.1732150248        6.5144806768       23.6595528508  WZ4       2341            0.0000000000
     20084      6695  TIP3      H1             22.6473850248        7.1054706768       23.0746428508  WZ4       2341            0.0000000000
     20085      6695  TIP3      H2             21.4558550248        7.0447706768       24.0065628508  WZ4       2341            0.0000000000
     20086      6696  TIP3      OH2            23.2115250248        8.2349906768       21.7683528508  WZ4       2386            0.0000000000
     20087      6696  TIP3      H1             23.1667850248        9.1743006768       21.9470528508  WZ4       2386            0.0000000000
     20088      6696  TIP3      H2             22.3238450248        7.9994806768       21.4985628508  WZ4       2386            0.0000000000
     20089      6697  TIP3      OH2            21.2081650248        4.6552206768       25.5599428508  WZ4       2425            0.0000000000
     20090      6697  TIP3      H1             20.2830050248        4.8638806768       25.4304928508  WZ4       2425            0.0000000000
     20091      6697  TIP3      H2             21.6621550248        5.1393006768       24.8701728508  WZ4       2425            0.0000000000
     20092      6698  TIP3      OH2            22.4844250248        2.6979906768       23.5386028508  WZ4       2440            0.0000000000
     20093      6698  TIP3      H1             22.9234950248        3.3090406768       22.9469528508  WZ4       2440            0.0000000000
     20094      6698  TIP3      H2             21.8506650248        3.2364006768       24.0126028508  WZ4       2440            0.0000000000
     20095      6699  TIP3      OH2            24.3453350248        4.6141406768       21.9810128508  WZ4       2445            0.0000000000
     20096      6699  TIP3      H1             24.8366750248        3.9843806768       21.4535628508  WZ4       2445            0.0000000000
     20097      6699  TIP3      H2             24.9689650248        4.9100806768       22.6441328508  WZ4       2445            0.0000000000
     20098      6700  TIP3      OH2           -19.1448449752       21.2780706768       23.5954528508  WZ4       2491            0.0000000000
     20099      6700  TIP3      H1            -20.0447749752       21.4169706768       23.8905128508  WZ4       2491            0.0000000000
     20100      6700  TIP3      H2            -18.8930049752       22.1095306768       23.1936228508  WZ4       2491            0.0000000000
     20101      6701  TIP3      OH2           -19.7535749752       24.6208706768       20.8906528508  WZ4       2595            0.0000000000
     20102      6701  TIP3      H1            -19.1429949752       24.2495506768       21.5274728508  WZ4       2595            0.0000000000
     20103      6701  TIP3      H2            -20.5904249752       24.1995606768       21.0866528508  WZ4       2595            0.0000000000
     20104      6702  TIP3      OH2           -17.6409049752       23.5064506768       22.4328728508  WZ4       2605            0.0000000000
     20105      6702  TIP3      H1            -17.2286449752       22.7850206768       21.9576728508  WZ4       2605            0.0000000000
     20106      6702  TIP3      H2            -16.9592549752       24.1759106768       22.4913028508  WZ4       2605            0.0000000000
     20107      6703  TIP3      OH2            -3.6452849752       25.2260606768       27.5194528508  WZ4       2634            0.0000000000
     20108      6703  TIP3      H1             -2.9988549752       24.8973806768       28.1442128508  WZ4       2634            0.0000000000
     20109      6703  TIP3      H2             -3.1353449752       25.7439606768       26.8965928508  WZ4       2634            0.0000000000
     20110      6704  TIP3      OH2            -1.8814449752       24.5169906768       29.5000428508  WZ4       2641            0.0000000000
     20111      6704  TIP3      H1             -2.0966449752       23.7513306768       30.0326428508  WZ4       2641            0.0000000000
     20112      6704  TIP3      H2             -1.2257049752       24.9894506768       30.0128928508  WZ4       2641            0.0000000000
     20113      6705  TIP3      OH2            -8.5308949752       21.3188506768       30.6451928508  WZ4       2647            0.0000000000
     20114      6705  TIP3      H1             -8.6484749752       20.3704506768       30.5910228508  WZ4       2647            0.0000000000
     20115      6705  TIP3      H2             -9.3858849752       21.6514606768       30.9183028508  WZ4       2647            0.0000000000
     20116      6706  TIP3      OH2            -6.2104849752       28.6138406768       22.1842728508  WZ4       2651            0.0000000000
     20117      6706  TIP3      H1             -5.5094949752       28.6365306768       22.8356728508  WZ4       2651            0.0000000000
     20118      6706  TIP3      H2             -5.9081949752       27.9858106768       21.5282028508  WZ4       2651            0.0000000000
     20119      6707  TIP3      OH2            -2.8586349752       30.3657406768       26.0973628508  WZ4       2653            0.0000000000
     20120      6707  TIP3      H1             -3.5905349752       30.5941106768       26.6704228508  WZ4       2653            0.0000000000
     20121      6707  TIP3      H2             -2.4114149752       29.6520106768       26.5521128508  WZ4       2653            0.0000000000
     20122      6708  TIP3      OH2            -3.9876849752       29.5280306768       23.7824828508  WZ4       2660            0.0000000000
     20123      6708  TIP3      H1             -3.4081349752       29.6780606768       24.5293728508  WZ4       2660            0.0000000000
     20124      6708  TIP3      H2             -3.5736849752       29.9987706768       23.0591228508  WZ4       2660            0.0000000000
     20125      6709  TIP3      OH2            -0.2888449752       21.2780706768       23.5954528508  WZ4       2662            0.0000000000
     20126      6709  TIP3      H1             -1.1887749752       21.4169706768       23.8905128508  WZ4       2662            0.0000000000
     20127      6709  TIP3      H2             -0.0370049752       22.1095306768       23.1936228508  WZ4       2662            0.0000000000
     20128      6710  TIP3      OH2            -2.5103749752       30.5608606768       21.4122728508  WZ4       2673            0.0000000000
     20129      6710  TIP3      H1             -2.4682949752       30.3382506768       20.4822728508  WZ4       2673            0.0000000000
     20130      6710  TIP3      H2             -1.6611649752       30.9595706768       21.6022628508  WZ4       2673            0.0000000000
     20131      6711  TIP3      OH2            -6.9376249752       24.4366806768       22.0826028508  WZ4       2674            0.0000000000
     20132      6711  TIP3      H1             -7.1911449752       24.4558406768       23.0054128508  WZ4       2674            0.0000000000
     20133      6711  TIP3      H2             -7.1944149752       23.5652206768       21.7812228508  WZ4       2674            0.0000000000
     20134      6712  TIP3      OH2            -5.6386649752       27.8247906768       26.2469228508  WZ4       2677            0.0000000000
     20135      6712  TIP3      H1             -6.0476349752       28.6396506768       25.9554028508  WZ4       2677            0.0000000000
     20136      6712  TIP3      H2             -4.9180449752       27.6848006768       25.6326328508  WZ4       2677            0.0000000000
     20137      6713  TIP3      OH2           -10.0553349752       24.8823306768       21.1836428508  WZ4       2681            0.0000000000
     20138      6713  TIP3      H1            -10.4862649752       24.4373406768       21.9133828508  WZ4       2681            0.0000000000
     20139      6713  TIP3      H2            -10.7734649752       25.2539606768       20.6713928508  WZ4       2681            0.0000000000
     20140      6714  TIP3      OH2           -10.1111649752       26.4654006768       24.9994728508  WZ4       2687            0.0000000000
     20141      6714  TIP3      H1             -9.1796149752       26.5944006768       25.1777828508  WZ4       2687            0.0000000000
     20142      6714  TIP3      H2            -10.3261349752       27.1348306768       24.3499428508  WZ4       2687            0.0000000000
     20143      6715  TIP3      OH2           -11.4371449752       27.6596206768       22.5660828508  WZ4       2689            0.0000000000
     20144      6715  TIP3      H1            -11.9796349752       27.2800006768       21.8748428508  WZ4       2689            0.0000000000
     20145      6715  TIP3      H2            -10.6036549752       27.8540906768       22.1374928508  WZ4       2689            0.0000000000
     20146      6716  TIP3      OH2           -12.2707449752       23.7604206768       26.8216928508  WZ4       2692            0.0000000000
     20147      6716  TIP3      H1            -12.5877949752       22.8579506768       26.7862328508  WZ4       2692            0.0000000000
     20148      6716  TIP3      H2            -11.4893349752       23.7621606768       26.2688528508  WZ4       2692            0.0000000000
     20149      6717  TIP3      OH2            -4.2041849752       25.0391806768       22.7011528508  WZ4       2696            0.0000000000
     20150      6717  TIP3      H1             -5.1427649752       25.1507406768       22.5500328508  WZ4       2696            0.0000000000
     20151      6717  TIP3      H2             -3.9069749752       25.8958706768       23.0077228508  WZ4       2696            0.0000000000
     20152      6718  TIP3      OH2            -3.4858349752       26.9064506768       24.3618928508  WZ4       2698            0.0000000000
     20153      6718  TIP3      H1             -2.5939349752       26.7689506768       24.6810128508  WZ4       2698            0.0000000000
     20154      6718  TIP3      H2             -3.4294749752       27.6970606768       23.8252428508  WZ4       2698            0.0000000000
     20155      6719  TIP3      OH2             1.3990350248       27.1158606768       24.0565628508  WZ4       2704            0.0000000000
     20156      6719  TIP3      H1              0.8446650248       26.7196606768       23.3843128508  WZ4       2704            0.0000000000
     20157      6719  TIP3      H2              1.4993950248       28.0263806768       23.7788928508  WZ4       2704            0.0000000000
     20158      6720  TIP3      OH2            -2.0473049752       32.5506806768       24.5686228508  WZ4       2713            0.0000000000
     20159      6720  TIP3      H1             -2.3245449752       31.8226106768       25.1247328508  WZ4       2713            0.0000000000
     20160      6720  TIP3      H2             -1.1200049752       32.6698806768       24.7738828508  WZ4       2713            0.0000000000
     20161      6721  TIP3      OH2            -4.8162849752       24.1273506768       25.1317628508  WZ4       2718            0.0000000000
     20162      6721  TIP3      H1             -4.5964549752       24.5988906768       24.3283028508  WZ4       2718            0.0000000000
     20163      6721  TIP3      H2             -4.2578849752       24.5216106768       25.8018228508  WZ4       2718            0.0000000000
     20164      6722  TIP3      OH2            -7.6162949752       25.8552306768       25.9666028508  WZ4       2719            0.0000000000
     20165      6722  TIP3      H1             -6.8040349752       26.3595506768       26.0127728508  WZ4       2719            0.0000000000
     20166      6722  TIP3      H2             -7.8609949752       25.7102006768       26.8805628508  WZ4       2719            0.0000000000
     20167      6723  TIP3      OH2            -6.7326249752       22.9365306768       26.9047128508  WZ4       2721            0.0000000000
     20168      6723  TIP3      H1             -7.0792749752       23.5535906768       27.5491428508  WZ4       2721            0.0000000000
     20169      6723  TIP3      H2             -6.0739349752       23.4371006768       26.4232628508  WZ4       2721            0.0000000000
     20170      6724  TIP3      OH2           -11.0749249752       23.9994706768       23.5919628508  WZ4       2722            0.0000000000
     20171      6724  TIP3      H1            -11.1584449752       24.8877806768       23.9386028508  WZ4       2722            0.0000000000
     20172      6724  TIP3      H2            -10.1848949752       23.7341406768       23.8236428508  WZ4       2722            0.0000000000
     20173      6725  TIP3      OH2           -14.5004749752       27.0909906768       21.7683528508  WZ4       2726            0.0000000000
     20174      6725  TIP3      H1            -14.5452149752       28.0303006768       21.9470528508  WZ4       2726            0.0000000000
     20175      6725  TIP3      H2            -15.3881549752       26.8554806768       21.4985628508  WZ4       2726            0.0000000000
     20176      6726  TIP3      OH2            -9.0048349752       28.7955106768       21.5868428508  WZ4       2738            0.0000000000
     20177      6726  TIP3      H1             -9.1853349752       28.6406306768       20.6596728508  WZ4       2738            0.0000000000
     20178      6726  TIP3      H2             -8.0547849752       28.9033806768       21.6316328508  WZ4       2738            0.0000000000
     20179      6727  TIP3      OH2             0.3849950248       31.1499306768       21.0326528508  WZ4       2740            0.0000000000
     20180      6727  TIP3      H1              0.1114750248       30.7254806768       20.2194828508  WZ4       2740            0.0000000000
     20181      6727  TIP3      H2              0.4244050248       32.0813806768       20.8156928508  WZ4       2740            0.0000000000
     20182      6728  TIP3      OH2             0.8432750248       32.0187406768       25.0076928508  WZ4       2756            0.0000000000
     20183      6728  TIP3      H1              1.6934150248       32.4398306768       25.1348528508  WZ4       2756            0.0000000000
     20184      6728  TIP3      H2              0.8487850248       31.2787506768       25.6148328508  WZ4       2756            0.0000000000
     20185      6729  TIP3      OH2             1.5061450248       29.9733306768       23.2223928508  WZ4       2760            0.0000000000
     20186      6729  TIP3      H1              0.9842550248       30.3297406768       22.5034828508  WZ4       2760            0.0000000000
     20187      6729  TIP3      H2              1.4730650248       30.6481106768       23.9004828508  WZ4       2760            0.0000000000
     20188      6730  TIP3      OH2            -0.1449549752       27.2128906768       21.7731028508  WZ4       2761            0.0000000000
     20189      6730  TIP3      H1             -0.0485149752       27.8795906768       21.0930728508  WZ4       2761            0.0000000000
     20190      6730  TIP3      H2             -0.2849949752       26.3975206768       21.2916528508  WZ4       2761            0.0000000000
     20191      6731  TIP3      OH2            -0.9754849752       28.5931306768       27.3941328508  WZ4       2762            0.0000000000
     20192      6731  TIP3      H1             -1.1256049752       27.6479906768       27.3739128508  WZ4       2762            0.0000000000
     20193      6731  TIP3      H2             -1.3290349752       28.8742706768       28.2380428508  WZ4       2762            0.0000000000
     20194      6732  TIP3      OH2            -0.8975749752       24.6208706768       20.8906528508  WZ4       2766            0.0000000000
     20195      6732  TIP3      H1             -0.2869949752       24.2495506768       21.5274728508  WZ4       2766            0.0000000000
     20196      6732  TIP3      H2             -1.7344249752       24.1995606768       21.0866528508  WZ4       2766            0.0000000000
     20197      6733  TIP3      OH2            -1.2650049752       26.1757106768       25.8566428508  WZ4       2767            0.0000000000
     20198      6733  TIP3      H1             -0.9852949752       25.2687506768       25.9808128508  WZ4       2767            0.0000000000
     20199      6733  TIP3      H2             -0.5058349752       26.6098606768       25.4675628508  WZ4       2767            0.0000000000
     20200      6734  TIP3      OH2            -0.6515249752       23.4386406768       25.9048428508  WZ4       2772            0.0000000000
     20201      6734  TIP3      H1             -0.4690249752       22.9897906768       26.7303428508  WZ4       2772            0.0000000000
     20202      6734  TIP3      H2             -1.2512349752       22.8540806768       25.4413028508  WZ4       2772            0.0000000000
     20203      6735  TIP3      OH2             1.2150950248       23.5064506768       22.4328728508  WZ4       2776            0.0000000000
     20204      6735  TIP3      H1              1.6273550248       22.7850206768       21.9576728508  WZ4       2776            0.0000000000
     20205      6735  TIP3      H2              1.8967450248       24.1759106768       22.4913028508  WZ4       2776            0.0000000000
     20206      6736  TIP3      OH2            -6.3906649752       23.1221506768       29.9130028508  WZ4       2781            0.0000000000
     20207      6736  TIP3      H1             -7.0649849752       22.4927106768       30.1685828508  WZ4       2781            0.0000000000
     20208      6736  TIP3      H2             -5.8267449752       22.6380406768       29.3097928508  WZ4       2781            0.0000000000
     20209      6737  TIP3      OH2            -1.2479449752       21.2295506768       30.0257128508  WZ4       2782            0.0000000000
     20210      6737  TIP3      H1             -0.6441849752       21.7770906768       29.5238128508  WZ4       2782            0.0000000000
     20211      6737  TIP3      H2             -2.1177449752       21.5485906768       29.7851228508  WZ4       2782            0.0000000000
     20212      6738  TIP3      OH2             0.4790950248       22.3684206768       28.3588028508  WZ4       2783            0.0000000000
     20213      6738  TIP3      H1              1.0908450248       21.8539906768       27.8321628508  WZ4       2783            0.0000000000
     20214      6738  TIP3      H2              0.8614350248       23.2456306768       28.3822428508  WZ4       2783            0.0000000000
     20215      6739  TIP3      OH2           -15.2275749752       21.5539906768       23.5386028508  WZ4       2785            0.0000000000
     20216      6739  TIP3      H1            -14.7885049752       22.1650406768       22.9469528508  WZ4       2785            0.0000000000
     20217      6739  TIP3      H2            -15.8613349752       22.0924006768       24.0126028508  WZ4       2785            0.0000000000
     20218      6740  TIP3      OH2            -9.4846549752       21.6828906768       27.5483028508  WZ4       2786            0.0000000000
     20219      6740  TIP3      H1             -8.6103149752       22.0713206768       27.5187328508  WZ4       2786            0.0000000000
     20220      6740  TIP3      H2             -9.6205749752       21.4676706768       28.4710228508  WZ4       2786            0.0000000000
     20221      6741  TIP3      OH2            -3.9278149752       21.7128706768       29.1974728508  WZ4       2787            0.0000000000
     20222      6741  TIP3      H1             -3.8516549752       21.8080306768       28.2480728508  WZ4       2787            0.0000000000
     20223      6741  TIP3      H2             -4.2028949752       20.8051606768       29.3263828508  WZ4       2787            0.0000000000
     20224      6742  TIP3      OH2            -2.5745549752       21.7386506768       24.8899728508  WZ4       2788            0.0000000000
     20225      6742  TIP3      H1             -3.2774449752       22.3535706768       24.6801128508  WZ4       2788            0.0000000000
     20226      6742  TIP3      H2             -3.0194149752       20.9013206768       25.0210628508  WZ4       2788            0.0000000000
     20227      6743  TIP3      OH2           -13.3666649752       23.4701406768       21.9810128508  WZ4       2789            0.0000000000
     20228      6743  TIP3      H1            -12.8753249752       22.8403806768       21.4535628508  WZ4       2789            0.0000000000
     20229      6743  TIP3      H2            -12.7430349752       23.7660806768       22.6441328508  WZ4       2789            0.0000000000
     20230      6744  TIP3      OH2            -8.3406549752       23.7632906768       24.4380628508  WZ4       2790            0.0000000000
     20231      6744  TIP3      H1             -8.1625249752       23.1166106768       25.1209228508  WZ4       2790            0.0000000000
     20232      6744  TIP3      H2             -8.3940349752       24.5970606768       24.9051728508  WZ4       2790            0.0000000000
     20233      6745  TIP3      OH2             2.7053350248       27.8918406768       26.6333428508  WZ4       2799            0.0000000000
     20234      6745  TIP3      H1              2.2576750248       28.7377106768       26.6149928508  WZ4       2799            0.0000000000
     20235      6745  TIP3      H2              2.1444550248       27.3122606768       26.1178528508  WZ4       2799            0.0000000000
     20236      6746  TIP3      OH2            11.9183750248       24.4366806768       22.0826028508  WZ4       2845            0.0000000000
     20237      6746  TIP3      H1             11.6648550248       24.4558406768       23.0054128508  WZ4       2845            0.0000000000
     20238      6746  TIP3      H2             11.6615850248       23.5652206768       21.7812228508  WZ4       2845            0.0000000000
     20239      6747  TIP3      OH2             8.8006650248       24.8823306768       21.1836428508  WZ4       2852            0.0000000000
     20240      6747  TIP3      H1              8.3697350248       24.4373406768       21.9133828508  WZ4       2852            0.0000000000
     20241      6747  TIP3      H2              8.0825350248       25.2539606768       20.6713928508  WZ4       2852            0.0000000000
     20242      6748  TIP3      OH2             2.0430050248       24.6242806768       28.2355128508  WZ4       2853            0.0000000000
     20243      6748  TIP3      H1              2.6737750248       24.5954906768       28.9549028508  WZ4       2853            0.0000000000
     20244      6748  TIP3      H2              2.4924350248       24.1991506768       27.5051028508  WZ4       2853            0.0000000000
     20245      6749  TIP3      OH2             3.3172150248       25.3704806768       23.6595528508  WZ4       2854            0.0000000000
     20246      6749  TIP3      H1              3.7913850248       25.9614706768       23.0746428508  WZ4       2854            0.0000000000
     20247      6749  TIP3      H2              2.5998550248       25.9007706768       24.0065628508  WZ4       2854            0.0000000000
     20248      6750  TIP3      OH2             7.4188550248       27.6596206768       22.5660828508  WZ4       2860            0.0000000000
     20249      6750  TIP3      H1              6.8763650248       27.2800006768       21.8748428508  WZ4       2860            0.0000000000
     20250      6750  TIP3      H2              8.2523450248       27.8540906768       22.1374928508  WZ4       2860            0.0000000000
     20251      6751  TIP3      OH2             4.0086750248       29.9004206768       22.2630728508  WZ4       2879            0.0000000000
     20252      6751  TIP3      H1              4.6246650248       30.5271406768       22.6425528508  WZ4       2879            0.0000000000
     20253      6751  TIP3      H2              3.1469350248       30.2164006768       22.5347228508  WZ4       2879            0.0000000000
     20254      6752  TIP3      OH2             7.7810750248       23.9994706768       23.5919628508  WZ4       2893            0.0000000000
     20255      6752  TIP3      H1              7.6975550248       24.8877806768       23.9386028508  WZ4       2893            0.0000000000
     20256      6752  TIP3      H2              8.6711050248       23.7341406768       23.8236428508  WZ4       2893            0.0000000000
     20257      6753  TIP3      OH2             4.3555250248       27.0909906768       21.7683528508  WZ4       2897            0.0000000000
     20258      6753  TIP3      H1              4.3107850248       28.0303006768       21.9470528508  WZ4       2897            0.0000000000
     20259      6753  TIP3      H2              3.4678450248       26.8554806768       21.4985628508  WZ4       2897            0.0000000000
     20260      6754  TIP3      OH2             7.6307450248       32.5797106768       21.0187228508  WZ4       2902            0.0000000000
     20261      6754  TIP3      H1              7.6951550248       31.7856706768       21.5493628508  WZ4       2902            0.0000000000
     20262      6754  TIP3      H2              8.2836650248       32.4609906768       20.3289228508  WZ4       2902            0.0000000000
     20263      6755  TIP3      OH2             9.8511650248       28.7955106768       21.5868428508  WZ4       2909            0.0000000000
     20264      6755  TIP3      H1              9.6706650248       28.6406306768       20.6596728508  WZ4       2909            0.0000000000
     20265      6755  TIP3      H2             10.8012150248       28.9033806768       21.6316328508  WZ4       2909            0.0000000000
     20266      6756  TIP3      OH2             2.3521650248       23.5112206768       25.5599428508  WZ4       2948            0.0000000000
     20267      6756  TIP3      H1              1.4270050248       23.7198806768       25.4304928508  WZ4       2948            0.0000000000
     20268      6756  TIP3      H2              2.8061550248       23.9953006768       24.8701728508  WZ4       2948            0.0000000000
     20269      6757  TIP3      OH2             4.7920850248       21.7561806768       27.7349928508  WZ4       2955            0.0000000000
     20270      6757  TIP3      H1              4.0150650248       21.5216706768       27.2275828508  WZ4       2955            0.0000000000
     20271      6757  TIP3      H2              5.3224450248       20.9593906768       27.7437928508  WZ4       2955            0.0000000000
     20272      6758  TIP3      OH2             3.6284250248       21.5539906768       23.5386028508  WZ4       2956            0.0000000000
     20273      6758  TIP3      H1              4.0674950248       22.1650406768       22.9469528508  WZ4       2956            0.0000000000
     20274      6758  TIP3      H2              2.9946650248       22.0924006768       24.0126028508  WZ4       2956            0.0000000000
     20275      6759  TIP3      OH2             5.4893350248       23.4701406768       21.9810128508  WZ4       2960            0.0000000000
     20276      6759  TIP3      H1              5.9806750248       22.8403806768       21.4535628508  WZ4       2960            0.0000000000
     20277      6759  TIP3      H2              6.1129650248       23.7660806768       22.6441328508  WZ4       2960            0.0000000000
