PSF EXT CMAP XPLOR

         5 !NTITLE
* SET NIONTYPES = 1                                                             
* SET NPOSTOT = 22                                                              
* SET NNEGTOT = 18                                                              
* SET NIONTOT = 40                                                              
*  DATE:     6/17/26     23:42:40      CREATED BY USER: charmm-gui              

        40 !NATOM
         1 IONS     1        LIT      LIT      LIT       1.00000       6.94100           0
         2 IONS     2        LIT      LIT      LIT       1.00000       6.94100           0
         3 IONS     3        LIT      LIT      LIT       1.00000       6.94100           0
         4 IONS     4        LIT      LIT      LIT       1.00000       6.94100           0
         5 IONS     5        LIT      LIT      LIT       1.00000       6.94100           0
         6 IONS     6        LIT      LIT      LIT       1.00000       6.94100           0
         7 IONS     7        LIT      LIT      LIT       1.00000       6.94100           0
         8 IONS     8        LIT      LIT      LIT       1.00000       6.94100           0
         9 IONS     9        LIT      LIT      LIT       1.00000       6.94100           0
        10 IONS     10       LIT      LIT      LIT       1.00000       6.94100           0
        11 IONS     11       LIT      LIT      LIT       1.00000       6.94100           0
        12 IONS     12       LIT      LIT      LIT       1.00000       6.94100           0
        13 IONS     13       LIT      LIT      LIT       1.00000       6.94100           0
        14 IONS     14       LIT      LIT      LIT       1.00000       6.94100           0
        15 IONS     15       LIT      LIT      LIT       1.00000       6.94100           0
        16 IONS     16       LIT      LIT      LIT       1.00000       6.94100           0
        17 IONS     17       LIT      LIT      LIT       1.00000       6.94100           0
        18 IONS     18       LIT      LIT      LIT       1.00000       6.94100           0
        19 IONS     19       LIT      LIT      LIT       1.00000       6.94100           0
        20 IONS     20       LIT      LIT      LIT       1.00000       6.94100           0
        21 IONS     21       LIT      LIT      LIT       1.00000       6.94100           0
        22 IONS     22       LIT      LIT      LIT       1.00000       6.94100           0
        23 IONS     23       CLA      CLA      CLA      -1.00000       35.4500           0
        24 IONS     24       CLA      CLA      CLA      -1.00000       35.4500           0
        25 IONS     25       CLA      CLA      CLA      -1.00000       35.4500           0
        26 IONS     26       CLA      CLA      CLA      -1.00000       35.4500           0
        27 IONS     27       CLA      CLA      CLA      -1.00000       35.4500           0
        28 IONS     28       CLA      CLA      CLA      -1.00000       35.4500           0
        29 IONS     29       CLA      CLA      CLA      -1.00000       35.4500           0
        30 IONS     30       CLA      CLA      CLA      -1.00000       35.4500           0
        31 IONS     31       CLA      CLA      CLA      -1.00000       35.4500           0
        32 IONS     32       CLA      CLA      CLA      -1.00000       35.4500           0
        33 IONS     33       CLA      CLA      CLA      -1.00000       35.4500           0
        34 IONS     34       CLA      CLA      CLA      -1.00000       35.4500           0
        35 IONS     35       CLA      CLA      CLA      -1.00000       35.4500           0
        36 IONS     36       CLA      CLA      CLA      -1.00000       35.4500           0
        37 IONS     37       CLA      CLA      CLA      -1.00000       35.4500           0
        38 IONS     38       CLA      CLA      CLA      -1.00000       35.4500           0
        39 IONS     39       CLA      CLA      CLA      -1.00000       35.4500           0
        40 IONS     40       CLA      CLA      CLA      -1.00000       35.4500           0

         0 !NBOND: bonds


         0 !NTHETA: angles


         0 !NPHI: dihedrals


         0 !NIMPHI: impropers


         0 !NDON: donors


         0 !NACC: acceptors


         0 !NNB

         0         0         0         0         0         0         0         0
         0         0         0         0         0         0         0         0
         0         0         0         0         0         0         0         0
         0         0         0         0         0         0         0         0
         0         0         0         0         0         0         0         0

        40         0 !NGRP NST2
         0         2         0         1         2         0         2         2         0
         3         2         0         4         2         0         5         2         0
         6         2         0         7         2         0         8         2         0
         9         2         0        10         2         0        11         2         0
        12         2         0        13         2         0        14         2         0
        15         2         0        16         2         0        17         2         0
        18         2         0        19         2         0        20         2         0
        21         2         0        22         2         0        23         2         0
        24         2         0        25         2         0        26         2         0
        27         2         0        28         2         0        29         2         0
        30         2         0        31         2         0        32         2         0
        33         2         0        34         2         0        35         2         0
        36         2         0        37         2         0        38         2         0
        39         2         0

         0         0 !NUMLP NUMLPH

         0 !NCRTERM: cross-terms

