* GENERATED BY CHARMM-GUI (HTTP://WWW.CHARMM-GUI.ORG) V3.7 ON JUN, 17. 2026. JOB
* SOLVATE PROTEIN IN WATER BOX
*  DATE:     6/17/26     23:43: 2      CREATED BY USER: charmm-gui
*
     19942  EXT
         1         1  ASP       N              11.2249258924        1.1904736530       -0.1043256255  PROA      1              55.7300000000
         2         1  ASP       HT1            11.9077371025        0.5831770132       -0.6008733499  PROA      1               0.0000000000
         3         1  ASP       HT2            11.7351334328        1.8470540060        0.5203263910  PROA      1               0.0000000000
         4         1  ASP       HT3            10.6732306041        1.7324067830       -0.7996963378  PROA      1               0.0000000000
         5         1  ASP       CA             10.3246083727        0.3617302481        0.6919203996  PROA      1              56.5200000000
         6         1  ASP       HA             10.9291693361       -0.3149471230        1.2773642091  PROA      1               0.0000000000
         7         1  ASP       CB              9.4599399777        1.2333569952        1.6050273924  PROA      1              51.6900000000
         8         1  ASP       HB1             8.7453549294        1.8100870394        0.9801892542  PROA      1               0.0000000000
         9         1  ASP       HB2            10.1169844949        1.9402767790        2.1547809331  PROA      1               0.0000000000
        10         1  ASP       CG              8.6680969355        0.4268500722        2.6190940469  PROA      1              51.7500000000
        11         1  ASP       OD1             9.2789677295       -0.3017598140        3.4306096085  PROA      1              57.2000000000
        12         1  ASP       OD2             7.4216925730        0.5165458528        2.6043688272  PROA      1              63.8800000000
        13         1  ASP       C               9.4389403143       -0.5019596011       -0.2021785518  PROA      1              58.3300000000
        14         1  ASP       O               8.8370216689       -0.0037879639       -1.1559898351  PROA      1              55.5100000000
        15         2  ALA       N               9.8408210555       -1.6614442596       -0.5409708135  PROA      2              60.5500000000
        16         2  ALA       HN             10.5333014700       -2.1754601232       -0.0408677130  PROA      2               0.0000000000
        17         2  ALA       CA              9.2596728142       -2.2816316490       -1.7287621772  PROA      2              58.5100000000
        18         2  ALA       HA              9.3870945359       -1.6024890847       -2.5586447025  PROA      2               0.0000000000
        19         2  ALA       CB              9.9452856607       -3.6144063978       -2.0219404394  PROA      2              55.1000000000
        20         2  ALA       HB1             9.8195832841       -4.3058554131       -1.1614648896  PROA      2               0.0000000000
        21         2  ALA       HB2            11.0312790124       -3.4519288342       -2.1906816082  PROA      2               0.0000000000
        22         2  ALA       HB3             9.4927388821       -4.0824901311       -2.9221366028  PROA      2               0.0000000000
        23         2  ALA       C               7.7573984516       -2.4869234692       -1.5605807037  PROA      2              60.2700000000
        24         2  ALA       O               7.0211116241       -2.5632773517       -2.5468822764  PROA      2              58.2100000000
        25         3  ASP       N               7.1837305026       -2.3135235963       -0.4147593526  PROA      3              62.5500000000
        26         3  ASP       HN              7.7034940380       -2.1649134167        0.4228483734  PROA      3               0.0000000000
        27         3  ASP       CA              5.7296755905       -2.3251434495       -0.2784534775  PROA      3              61.3700000000
        28         3  ASP       HA              5.3092583426       -2.6877001745       -1.2047189689  PROA      3               0.0000000000
        29         3  ASP       CB              5.3066464596       -3.2239313972        0.8855948804  PROA      3              56.9300000000
        30         3  ASP       HB1             4.2303009594       -3.0525219016        1.0995572824  PROA      3               0.0000000000
        31         3  ASP       HB2             5.9042332464       -2.9557375259        1.7826137430  PROA      3               0.0000000000
        32         3  ASP       CG              5.5095667605       -4.7013076645        0.5976422515  PROA      3              53.7400000000
        33         3  ASP       OD1             5.4888947045       -5.0996747042       -0.5866593856  PROA      3              58.9600000000
        34         3  ASP       OD2             5.6888897077       -5.4741739948        1.5636887908  PROA      3              63.6200000000
        35         3  ASP       C               5.1865415000       -0.9121887881       -0.0745331880  PROA      3              62.8200000000
        36         3  ASP       O               5.3583805707       -0.3234404998        0.9948749599  PROA      3              60.9300000000
        37         4  GLY       N               6.0215646275        0.0850278982       -0.6085381106  PROA      4              67.9800000000
        38         4  GLY       HN              6.9633320489       -0.0417735952       -0.9062614642  PROA      4               0.0000000000
        39         4  GLY       CA              5.4017719680        1.3959429402       -0.7112990561  PROA      4              66.1300000000
        40         4  GLY       HA1             5.1711737165        1.5715070505       -1.7516326577  PROA      4               0.0000000000
        41         4  GLY       HA2             6.1147382446        2.1267590955       -0.3593343584  PROA      4               0.0000000000
        42         4  GLY       C               4.1275607411        1.5179848918        0.1035668907  PROA      4              67.0600000000
        43         4  GLY       O               3.6680171464        0.5409696444        0.6967665965  PROA      4              62.6200000000
        44         5  PRO       N               3.7145987296        2.5133168039        0.6538965754  PROA      5              71.2200000000
        45         5  PRO       CD              3.9556930640        3.4445778494       -0.3648891660  PROA      5              63.5500000000
        46         5  PRO       HD1             3.8583327672        2.9490271543       -1.3539431993  PROA      5               0.0000000000
        47         5  PRO       HD2             4.9770077778        3.8656475089       -0.2513374293  PROA      5               0.0000000000
        48         5  PRO       CA              2.4694120829        2.7514119434        1.3869381291  PROA      5              69.6800000000
        49         5  PRO       HA              2.6046833154        2.5415553909        2.4358350593  PROA      5               0.0000000000
        50         5  PRO       CB              2.1436830275        4.2121078296        1.0635048122  PROA      5              66.2800000000
        51         5  PRO       HB1             2.4662001019        4.8804054018        1.8902047866  PROA      5               0.0000000000
        52         5  PRO       HB2             1.0532718705        4.3457484343        0.8985337439  PROA      5               0.0000000000
        53         5  PRO       CG              2.9091434714        4.5063424538       -0.1857554869  PROA      5              63.6700000000
        54         5  PRO       HG1             2.2212839291        4.5095738693       -1.0581850098  PROA      5               0.0000000000
        55         5  PRO       HG2             3.3925621454        5.5034911333       -0.1064121751  PROA      5               0.0000000000
        56         5  PRO       C               1.3360489601        1.8289460738        0.9412703703  PROA      5              71.0500000000
        57         5  PRO       O               1.2504910517        1.4760072189       -0.2372774687  PROA      5              66.7300000000
        58         6  GLY       N               1.0392756368        0.7808712438        1.6157373786  PROA      6              76.0500000000
        59         6  GLY       HN              1.6854841019        0.4808703916        2.3067893740  PROA      6               0.0000000000
        60         6  GLY       CA             -0.1224733455       -0.0922199913        1.5547128161  PROA      6              75.3600000000
        61         6  GLY       HA1            -0.4119491548       -0.3278209866        2.5681164688  PROA      6               0.0000000000
        62         6  GLY       HA2             0.1674631250       -0.9913975063        1.0315420257  PROA      6               0.0000000000
        63         6  GLY       C              -1.3029870220        0.5358549003        0.8383271727  PROA      6              76.0900000000
        64         6  GLY       O              -1.3792721015        1.7599583999        0.7122152825  PROA      6              73.8700000000
        65         7  ASP       N              -2.1626303939       -0.4104420904       -0.1911038734  PROA      7              75.5800000000
        66         7  ASP       HN             -1.8903405293       -1.3575646135       -0.3294708869  PROA      7               0.0000000000
        67         7  ASP       CA             -3.3343673958       -0.0220160147       -0.9691370231  PROA      7              77.0100000000
        68         7  ASP       HA             -3.0585344855        0.8127839860       -1.5961871001  PROA      7               0.0000000000
        69         7  ASP       CB             -3.8219369674       -1.1926684737       -1.8257452959  PROA      7              73.6300000000
        70         7  ASP       HB1            -4.2149049031       -1.9879383360       -1.1573220266  PROA      7               0.0000000000
        71         7  ASP       HB2            -2.9646703480       -1.5946508943       -2.4064101701  PROA      7               0.0000000000
        72         7  ASP       CG             -4.9186534727       -0.7992781039       -2.7996056165  PROA      7              71.2600000000
        73         7  ASP       OD1            -5.3374806310        0.3784927067       -2.8027247989  PROA      7              73.9100000000
        74         7  ASP       OD2            -5.3689063911       -1.6749417707       -3.5687034335  PROA      7              76.1900000000
        75         7  ASP       C              -4.4599496419        0.4686583579       -0.0620508820  PROA      7              78.5400000000
        76         7  ASP       O              -4.9587500226       -0.2829488393        0.7782745320  PROA      7              77.8600000000
        77         8  PRO       N              -4.5949256496        1.9813530424        0.1082701932  PROA      8              77.5900000000
        78         8  PRO       CD             -3.9556916367        2.9183514807       -0.5653534432  PROA      8              74.1900000000
        79         8  PRO       HD1            -4.0788373779        2.7390220456       -1.6544960493  PROA      8               0.0000000000
        80         8  PRO       HD2            -2.8780265821        2.8952642414       -0.2976585693  PROA      8               0.0000000000
        81         8  PRO       CA             -5.6475512320        2.4324597771        1.0214985858  PROA      8              77.7400000000
        82         8  PRO       HA             -5.4014546890        2.1698065553        2.0378521472  PROA      8               0.0000000000
        83         8  PRO       CB             -5.7276953549        3.9369537898        0.7511290514  PROA      8              75.7300000000
        84         8  PRO       HB1            -5.6320646723        4.5128958037        1.6962345006  PROA      8               0.0000000000
        85         8  PRO       HB2            -6.6923589524        4.1995374434        0.2668226305  PROA      8               0.0000000000
        86         8  PRO       CG             -4.5810690451        4.2231101439       -0.1621352294  PROA      8              73.8700000000
        87         8  PRO       HG1            -4.9417851680        4.7634886064       -1.0633399723  PROA      8               0.0000000000
        88         8  PRO       HG2            -3.8315723028        4.8559042624        0.3595171735  PROA      8               0.0000000000
        89         8  PRO       C              -6.9907575252        1.7576324325        0.7523018013  PROA      8              78.9400000000
        90         8  PRO       O              -7.8516557834        1.7140343267        1.6345825924  PROA      8              78.2700000000
        91         9  ASP       N              -7.1415691229        1.2378463590       -0.3479455799  PROA      9              75.0800000000
        92         9  ASP       HN             -6.4067865229        1.1532321303       -1.0164782534  PROA      9               0.0000000000
        93         9  ASP       CA             -8.4485518267        0.7089277438       -0.7240231124  PROA      9              74.7600000000
        94         9  ASP       HA             -9.1836039624        1.1208606063       -0.0486157402  PROA      9               0.0000000000
        95         9  ASP       CB             -8.7843880938        1.0843947862       -2.1691222445  PROA      9              71.2300000000
        96         9  ASP       HB1            -9.7348801417        0.5876388023       -2.4580394852  PROA      9               0.0000000000
        97         9  ASP       HB2            -7.9689144411        0.7258423501       -2.8325359051  PROA      9               0.0000000000
        98         9  ASP       CG             -8.9443194417        2.5807295843       -2.3710854493  PROA      9              69.1300000000
        99         9  ASP       OD1            -8.9275594245        3.3362838527       -1.3755640536  PROA      9              69.2800000000
       100         9  ASP       OD2            -9.0911637653        3.0083118622       -3.5369945968  PROA      9              70.6800000000
       101         9  ASP       C              -8.4989452038       -0.8073094925       -0.5502095606  PROA      9              73.3700000000
       102         9  ASP       O              -9.5403793400       -1.4283352261       -0.7708064287  PROA      9              70.5400000000
       103        10  ALA       N              -7.2758037132       -1.4234459420       -0.1175321176  PROA      10             75.6900000000
       104        10  ALA       HN             -6.4354582006       -0.9358723816        0.1032759944  PROA      10              0.0000000000
       105        10  ALA       CA             -7.3033187230       -2.8792186610       -0.0039067910  PROA      10             73.6500000000
       106        10  ALA       HA             -7.6628796196       -3.2821453583       -0.9390752334  PROA      10              0.0000000000
       107        10  ALA       CB             -5.9074578013       -3.4155657040        0.3043936091  PROA      10             72.1700000000
       108        10  ALA       HB1            -5.3949905451       -2.7505019770        1.0319845316  PROA      10              0.0000000000
       109        10  ALA       HB2            -5.3031638331       -3.4547199871       -0.6270299480  PROA      10              0.0000000000
       110        10  ALA       HB3            -5.9819824163       -4.4326951042        0.7450158573  PROA      10              0.0000000000
       111        10  ALA       C              -8.2909553424       -3.3273408266        1.0690771011  PROA      10             73.8400000000
       112        10  ALA       O              -8.1967475793       -2.9045733579        2.2239998538  PROA      10             72.3800000000
       113        11  GLY       N              -9.4390004759       -3.0294893339        1.4824145655  PROA      11             76.0100000000
       114        11  GLY       HN             -9.6510989382       -2.0786731251        1.3644980908  PROA      11              0.0000000000
       115        11  GLY       CA            -10.6022023081       -3.6466557244        2.1005117618  PROA      11             75.7400000000
       116        11  GLY       HA1           -10.8631140654       -3.0618198968        2.9700985868  PROA      11              0.0000000000
       117        11  GLY       HA2           -10.3270281306       -4.6487442535        2.3944282267  PROA      11              0.0000000000
       118        11  GLY       C             -11.8022914018       -3.7165831934        1.1757094497  PROA      11             76.8600000000
       119        11  GLY       OT1           -11.6792343347       -3.2524310076        0.0107975618  PROA      11              0.0000000000
       120        11  GLY       OT2           -12.8614546952       -4.2352809454        1.6192472272  PROA      11              0.0000000000
       121        12  TIP3      OH2           -17.0378649752      -20.6929393232      -19.6174871492  SOLV      1               0.0000000000
       122        12  TIP3      H1            -17.0871849752      -21.6481293232      -19.6547271492  SOLV      1               0.0000000000
       123        12  TIP3      H2            -17.8646349752      -20.4254093232      -19.2161071492  SOLV      1               0.0000000000
       124        13  TIP3      OH2           -19.7559849752      -16.8253193232      -18.5108071492  SOLV      2               0.0000000000
       125        13  TIP3      H1            -19.5561149752      -16.4011293232      -19.3452771492  SOLV      2               0.0000000000
       126        13  TIP3      H2            -19.1006149752      -16.4814993232      -17.9037671492  SOLV      2               0.0000000000
       127        14  TIP3      OH2           -17.7644249752      -18.5954393232      -21.7125871492  SOLV      3               0.0000000000
       128        14  TIP3      H1            -18.2515549752      -19.3310293232      -22.0838471492  SOLV      3               0.0000000000
       129        14  TIP3      H2            -17.2151549752      -18.9890493232      -21.0346471492  SOLV      3               0.0000000000
       130        15  TIP3      OH2           -19.3136949752      -22.8056293232      -17.0745571492  SOLV      4               0.0000000000
       131        15  TIP3      H1            -20.1795849752      -22.9106593232      -16.6803271492  SOLV      4               0.0000000000
       132        15  TIP3      H2            -18.9371049752      -22.0472993232      -16.6280871492  SOLV      4               0.0000000000
       133        16  TIP3      OH2           -19.3916949752      -19.5420293232      -18.9049771492  SOLV      5               0.0000000000
       134        16  TIP3      H1            -20.1735049752      -19.7282293232      -19.4249171492  SOLV      5               0.0000000000
       135        16  TIP3      H2            -19.4637049752      -18.6125993232      -18.6877271492  SOLV      5               0.0000000000
       136        17  TIP3      OH2            -2.3465049752      -23.4614793232      -27.1539271492  SOLV      6               0.0000000000
       137        17  TIP3      H1             -2.7872349752      -24.1818793232      -26.7033671492  SOLV      6               0.0000000000
       138        17  TIP3      H2             -2.3595349752      -22.7407593232      -26.5241571492  SOLV      6               0.0000000000
       139        18  TIP3      OH2            -5.2349549752      -18.3573093232      -26.9418871492  SOLV      7               0.0000000000
       140        18  TIP3      H1             -4.6153149752      -19.0338393232      -27.2149671492  SOLV      7               0.0000000000
       141        18  TIP3      H2             -5.4432149752      -18.5752293232      -26.0333971492  SOLV      7               0.0000000000
       142        19  TIP3      OH2            -7.6630849752      -23.9683793232      -25.0493371492  SOLV      8               0.0000000000
       143        19  TIP3      H1             -7.3592949752      -24.6542393232      -25.6439271492  SOLV      8               0.0000000000
       144        19  TIP3      H2             -6.9416849752      -23.8495093232      -24.4315371492  SOLV      8               0.0000000000
       145        20  TIP3      OH2             0.9998950248      -32.3668493232      -24.1887171492  SOLV      9               0.0000000000
       146        20  TIP3      H1              1.0491150248      -31.7567293232      -23.4528071492  SOLV      9               0.0000000000
       147        20  TIP3      H2              1.4254050248      -31.9057593232      -24.9116071492  SOLV      9               0.0000000000
       148        21  TIP3      OH2             1.3913550248      -30.8889293232      -21.9527371492  SOLV      10              0.0000000000
       149        21  TIP3      H1              0.7028150248      -30.2308593232      -22.0480771492  SOLV      10              0.0000000000
       150        21  TIP3      H2              1.4068150248      -31.0861393232      -21.0161971492  SOLV      10              0.0000000000
       151        22  TIP3      OH2            -9.9882249752      -24.8790893232      -23.0879271492  SOLV      11              0.0000000000
       152        22  TIP3      H1            -10.7283149752      -24.2809393232      -22.9844071492  SOLV      11              0.0000000000
       153        22  TIP3      H2             -9.2742749752      -24.3251293232      -23.4035671492  SOLV      11              0.0000000000
       154        23  TIP3      OH2           -11.5807949752      -22.9147893232      -22.3007771492  SOLV      12              0.0000000000
       155        23  TIP3      H1            -11.5860349752      -22.0354393232      -22.6788471492  SOLV      12              0.0000000000
       156        23  TIP3      H2            -12.4343849752      -22.9983793232      -21.8757871492  SOLV      12              0.0000000000
       157        24  TIP3      OH2            -1.8347349752      -21.6224093232      -24.8059971492  SOLV      13              0.0000000000
       158        24  TIP3      H1             -2.7763649752      -21.5640193232      -24.6443071492  SOLV      13              0.0000000000
       159        24  TIP3      H2             -1.5581249752      -20.7163593232      -24.9430271492  SOLV      13              0.0000000000
       160        25  TIP3      OH2            -3.5826149752      -19.8410593232      -28.1808371492  SOLV      14              0.0000000000
       161        25  TIP3      H1             -3.1573849752      -20.5482693232      -28.6658771492  SOLV      14              0.0000000000
       162        25  TIP3      H2             -3.2656149752      -19.0397893232      -28.5976171492  SOLV      14              0.0000000000
       163        26  TIP3      OH2            -0.7369449752      -23.3735393232      -21.1948271492  SOLV      15              0.0000000000
       164        26  TIP3      H1             -0.5973149752      -23.9652893232      -21.9341271492  SOLV      15              0.0000000000
       165        26  TIP3      H2             -0.5696649752      -22.5009493232      -21.5509471492  SOLV      15              0.0000000000
       166        27  TIP3      OH2             1.1049850248      -27.0337393232      -23.1287871492  SOLV      16              0.0000000000
       167        27  TIP3      H1              0.4523950248      -26.3391793232      -23.0396971492  SOLV      16              0.0000000000
       168        27  TIP3      H2              1.5700150248      -26.8236493232      -23.9386271492  SOLV      16              0.0000000000
       169        28  TIP3      OH2            -2.9612849752      -28.0279993232      -21.4029371492  SOLV      17              0.0000000000
       170        28  TIP3      H1             -2.8813749752      -27.2645593232      -20.8310871492  SOLV      17              0.0000000000
       171        28  TIP3      H2             -3.5625149752      -27.7487593232      -22.0934271492  SOLV      17              0.0000000000
       172        29  TIP3      OH2            -4.5374949752      -21.2998893232      -24.2205871492  SOLV      18              0.0000000000
       173        29  TIP3      H1             -4.7778349752      -20.6375793232      -23.5726671492  SOLV      18              0.0000000000
       174        29  TIP3      H2             -4.7356749752      -22.1343693232      -23.7956271492  SOLV      18              0.0000000000
       175        30  TIP3      OH2            -9.9666449752      -22.4038093232      -20.2374471492  SOLV      19              0.0000000000
       176        30  TIP3      H1            -10.2778949752      -21.6214893232      -19.7821271492  SOLV      19              0.0000000000
       177        30  TIP3      H2            -10.6166249752      -22.5568993232      -20.9232471492  SOLV      19              0.0000000000
       178        31  TIP3      OH2           -13.0466549752      -26.2056993232      -21.0088771492  SOLV      20              0.0000000000
       179        31  TIP3      H1            -12.9763349752      -25.5550193232      -20.3103771492  SOLV      20              0.0000000000
       180        31  TIP3      H2            -13.9374349752      -26.1029493232      -21.3437871492  SOLV      20              0.0000000000
       181        32  TIP3      OH2           -11.7270549752      -20.3323093232      -19.4740671492  SOLV      21              0.0000000000
       182        32  TIP3      H1            -11.7195249752      -20.4683393232      -20.4215171492  SOLV      21              0.0000000000
       183        32  TIP3      H2            -12.6430149752      -20.4494993232      -19.2220671492  SOLV      21              0.0000000000
       184        33  TIP3      OH2             1.8181350248      -20.6929393232      -19.6174871492  SOLV      22              0.0000000000
       185        33  TIP3      H1              1.7688150248      -21.6481293232      -19.6547271492  SOLV      22              0.0000000000
       186        33  TIP3      H2              0.9913650248      -20.4254093232      -19.2161071492  SOLV      22              0.0000000000
       187        34  TIP3      OH2            -7.2034649752      -21.1190193232      -20.7413471492  SOLV      23              0.0000000000
       188        34  TIP3      H1             -7.1160049752      -20.2925593232      -20.2664371492  SOLV      23              0.0000000000
       189        34  TIP3      H2             -8.0669549752      -21.4486393232      -20.4924171492  SOLV      23              0.0000000000
       190        35  TIP3      OH2            -1.0298849752      -29.1996893232      -19.1372671492  SOLV      24              0.0000000000
       191        35  TIP3      H1             -1.4372049752      -28.7191293232      -19.8579371492  SOLV      24              0.0000000000
       192        35  TIP3      H2             -0.9893149752      -30.1050893232      -19.4451871492  SOLV      24              0.0000000000
       193        36  TIP3      OH2           -13.8809349752      -22.8157493232      -21.1405971492  SOLV      25              0.0000000000
       194        36  TIP3      H1            -13.6648049752      -23.1771893232      -20.2810171492  SOLV      25              0.0000000000
       195        36  TIP3      H2            -14.7364649752      -23.1903693232      -21.3502471492  SOLV      25              0.0000000000
       196        37  TIP3      OH2            -3.2728649752      -30.8681393232      -20.9170271492  SOLV      26              0.0000000000
       197        37  TIP3      H1             -3.7869149752      -30.9939193232      -20.1194271492  SOLV      26              0.0000000000
       198        37  TIP3      H2             -3.4283949752      -29.9558293232      -21.1614071492  SOLV      26              0.0000000000
       199        38  TIP3      OH2            -6.5365049752      -28.5675693232      -18.8330071492  SOLV      27              0.0000000000
       200        38  TIP3      H1             -7.0991249752      -29.2724093232      -18.5122271492  SOLV      27              0.0000000000
       201        38  TIP3      H2             -5.7101649752      -28.6883793232      -18.3652471492  SOLV      27              0.0000000000
       202        39  TIP3      OH2            -5.3699749752      -27.6590393232      -22.8358671492  SOLV      28              0.0000000000
       203        39  TIP3      H1             -5.0464949752      -28.2900693232      -23.4788171492  SOLV      28              0.0000000000
       204        39  TIP3      H2             -5.8100449752      -28.1938193232      -22.1751271492  SOLV      28              0.0000000000
       205        40  TIP3      OH2            -0.8999849752      -16.8253193232      -18.5108071492  SOLV      29              0.0000000000
       206        40  TIP3      H1             -0.7001149752      -16.4011293232      -19.3452771492  SOLV      29              0.0000000000
       207        40  TIP3      H2             -0.2446149752      -16.4814993232      -17.9037671492  SOLV      29              0.0000000000
       208        41  TIP3      OH2           -13.3020049752      -24.3511893232      -18.9027571492  SOLV      30              0.0000000000
       209        41  TIP3      H1            -12.5697649752      -24.0965993232      -18.3413071492  SOLV      30              0.0000000000
       210        41  TIP3      H2            -14.0821349752      -24.1466493232      -18.3872171492  SOLV      30              0.0000000000
       211        42  TIP3      OH2            -0.9519749752      -25.2099893232      -23.2793471492  SOLV      31              0.0000000000
       212        42  TIP3      H1             -0.3100949752      -24.7533593232      -23.8231271492  SOLV      31              0.0000000000
       213        42  TIP3      H2             -1.7822849752      -25.0967493232      -23.7419371492  SOLV      31              0.0000000000
       214        43  TIP3      OH2            -6.5826549752      -24.1584793232      -20.8291971492  SOLV      32              0.0000000000
       215        43  TIP3      H1             -6.9280449752      -24.5402393232      -20.0222371492  SOLV      32              0.0000000000
       216        43  TIP3      H2             -6.7826449752      -23.2251193232      -20.7579071492  SOLV      32              0.0000000000
       217        44  TIP3      OH2            -8.9525749752      -27.0701293232      -18.7684971492  SOLV      33              0.0000000000
       218        44  TIP3      H1             -9.2484949752      -27.2358293232      -19.6635871492  SOLV      33              0.0000000000
       219        44  TIP3      H2             -8.0210549752      -27.2900993232      -18.7791071492  SOLV      33              0.0000000000
       220        45  TIP3      OH2            -4.3322949752      -21.6969293232      -20.8786971492  SOLV      34              0.0000000000
       221        45  TIP3      H1             -5.2328649752      -21.5136693232      -21.1463071492  SOLV      34              0.0000000000
       222        45  TIP3      H2             -4.2981849752      -21.4379993232      -19.9578171492  SOLV      34              0.0000000000
       223        46  TIP3      OH2             1.3622350248      -23.6519693232      -19.6742871492  SOLV      35              0.0000000000
       224        46  TIP3      H1              0.5110850248      -23.4135893232      -20.0416471492  SOLV      35              0.0000000000
       225        46  TIP3      H2              1.9525750248      -23.6686493232      -20.4275771492  SOLV      35              0.0000000000
       226        47  TIP3      OH2            -3.1454049752      -25.8581493232      -25.0250371492  SOLV      36              0.0000000000
       227        47  TIP3      H1             -4.0737149752      -26.0899593232      -25.0521071492  SOLV      36              0.0000000000
       228        47  TIP3      H2             -2.6942949752      -26.6351693232      -25.3551571492  SOLV      36              0.0000000000
       229        48  TIP3      OH2            -8.6602049752      -19.7176393232      -23.0006271492  SOLV      37              0.0000000000
       230        48  TIP3      H1             -8.2977349752      -18.8630793232      -23.2341871492  SOLV      37              0.0000000000
       231        48  TIP3      H2             -8.1286849752      -20.0094793232      -22.2599971492  SOLV      37              0.0000000000
       232        49  TIP3      OH2            -5.1161249752      -23.6185693232      -23.3000671492  SOLV      38              0.0000000000
       233        49  TIP3      H1             -5.5419949752      -23.8463993232      -22.4736671492  SOLV      38              0.0000000000
       234        49  TIP3      H2             -4.5355449752      -24.3573893232      -23.4825371492  SOLV      38              0.0000000000
       235        50  TIP3      OH2            -2.4577049752      -19.0666193232      -20.8305871492  SOLV      39              0.0000000000
       236        50  TIP3      H1             -3.0593849752      -19.6223293232      -21.3259571492  SOLV      39              0.0000000000
       237        50  TIP3      H2             -2.1763349752      -18.3996393232      -21.4568471492  SOLV      39              0.0000000000
       238        51  TIP3      OH2           -14.6839149752      -20.0294093232      -22.9883871492  SOLV      40              0.0000000000
       239        51  TIP3      H1            -14.4668849752      -20.9611693232      -23.0194171492  SOLV      40              0.0000000000
       240        51  TIP3      H2            -14.4375649752      -19.7549093232      -22.1051071492  SOLV      40              0.0000000000
       241        52  TIP3      OH2            -5.6007749752      -32.0928193232      -22.5334671492  SOLV      41              0.0000000000
       242        52  TIP3      H1             -4.9019849752      -32.0189493232      -21.8834971492  SOLV      41              0.0000000000
       243        52  TIP3      H2             -5.9816349752      -32.9573193232      -22.3791771492  SOLV      41              0.0000000000
       244        53  TIP3      OH2            -7.0806549752      -29.7264993232      -21.4167371492  SOLV      42              0.0000000000
       245        53  TIP3      H1             -6.9616249752      -29.1529593232      -20.6596971492  SOLV      42              0.0000000000
       246        53  TIP3      H2             -6.4251949752      -30.4145593232      -21.3019571492  SOLV      42              0.0000000000
       247        54  TIP3      OH2            -0.8760749752      -31.8194693232      -20.5817671492  SOLV      43              0.0000000000
       248        54  TIP3      H1             -1.7924949752      -31.5572993232      -20.6693971492  SOLV      43              0.0000000000
       249        54  TIP3      H2             -0.5405749752      -31.8225693232      -21.4782371492  SOLV      43              0.0000000000
       250        55  TIP3      OH2            -2.2739749752      -28.0693693232      -26.4860371492  SOLV      44              0.0000000000
       251        55  TIP3      H1             -3.0715349752      -28.4843493232      -26.8145371492  SOLV      44              0.0000000000
       252        55  TIP3      H2             -1.8288649752      -28.7599993232      -25.9949871492  SOLV      44              0.0000000000
       253        56  TIP3      OH2            -1.1875149752      -18.8131193232      -24.8636871492  SOLV      45              0.0000000000
       254        56  TIP3      H1             -1.3430849752      -18.1346793232      -25.5207571492  SOLV      45              0.0000000000
       255        56  TIP3      H2             -0.2548749752      -18.7411893232      -24.6606271492  SOLV      45              0.0000000000
       256        57  TIP3      OH2           -15.4735749752      -18.1422693232      -18.6361671492  SOLV      46              0.0000000000
       257        57  TIP3      H1            -14.9333549752      -18.3588693232      -17.8762471492  SOLV      46              0.0000000000
       258        57  TIP3      H2            -15.9547749752      -18.9476693232      -18.8259171492  SOLV      46              0.0000000000
       259        58  TIP3      OH2           -10.8762349752      -19.2228293232      -17.0157471492  SOLV      47              0.0000000000
       260        58  TIP3      H1            -10.1085149752      -19.6817493232      -16.6748271492  SOLV      47              0.0000000000
       261        58  TIP3      H2            -10.8976149752      -19.4488493232      -17.9456271492  SOLV      47              0.0000000000
       262        59  TIP3      OH2            -4.2993649752      -20.8427193232      -18.2865971492  SOLV      48              0.0000000000
       263        59  TIP3      H1             -4.6504149752      -21.6994193232      -18.0435571492  SOLV      48              0.0000000000
       264        59  TIP3      H2             -3.5730449752      -20.7000493232      -17.6796971492  SOLV      48              0.0000000000
       265        60  TIP3      OH2           -15.5666249752      -24.3318593232      -17.6817371492  SOLV      49              0.0000000000
       266        60  TIP3      H1            -15.4225749752      -25.2337893232      -17.9680671492  SOLV      49              0.0000000000
       267        60  TIP3      H2            -16.3388849752      -24.0456493232      -18.1695071492  SOLV      49              0.0000000000
       268        61  TIP3      OH2            -8.9110149752      -24.3620493232      -18.2490971492  SOLV      50              0.0000000000
       269        61  TIP3      H1             -9.2396349752      -24.0912393232      -19.1063571492  SOLV      50              0.0000000000
       270        61  TIP3      H2             -8.7591949752      -25.3030693232      -18.3365971492  SOLV      50              0.0000000000
       271        62  TIP3      OH2            -3.1764949752      -24.4463193232      -20.8658671492  SOLV      51              0.0000000000
       272        62  TIP3      H1             -2.4310149752      -23.8579493232      -20.9854671492  SOLV      51              0.0000000000
       273        62  TIP3      H2             -3.9338149752      -23.8643493232      -20.8025571492  SOLV      51              0.0000000000
       274        63  TIP3      OH2           -14.7339749752      -27.1315293232      -18.2618071492  SOLV      52              0.0000000000
       275        63  TIP3      H1            -14.3258549752      -27.9888693232      -18.3827471492  SOLV      52              0.0000000000
       276        63  TIP3      H2            -14.9942149752      -27.1173993232      -17.3407771492  SOLV      52              0.0000000000
       277        64  TIP3      OH2           -10.7869449752      -28.1229593232      -20.8875171492  SOLV      53              0.0000000000
       278        64  TIP3      H1            -11.4053349752      -27.4482993232      -20.6070471492  SOLV      53              0.0000000000
       279        64  TIP3      H2            -10.4428249752      -27.8015693232      -21.7208971492  SOLV      53              0.0000000000
       280        65  TIP3      OH2            -5.7671249752      -25.6514293232      -17.6100371492  SOLV      54              0.0000000000
       281        65  TIP3      H1             -4.8140049752      -25.5675193232      -17.6374371492  SOLV      54              0.0000000000
       282        65  TIP3      H2             -5.9276649752      -26.3632493232      -16.9905471492  SOLV      54              0.0000000000
       283        66  TIP3      OH2           -10.4475749752      -30.7678793232      -19.8052071492  SOLV      55              0.0000000000
       284        66  TIP3      H1            -10.2974849752      -31.4967493232      -20.4072371492  SOLV      55              0.0000000000
       285        66  TIP3      H2            -10.4453349752      -29.9907093232      -20.3639871492  SOLV      55              0.0000000000
       286        67  TIP3      OH2            -8.4531649752      -26.9586793232      -22.0729471492  SOLV      56              0.0000000000
       287        67  TIP3      H1             -7.7026849752      -27.1149293232      -22.6461671492  SOLV      56              0.0000000000
       288        67  TIP3      H2             -8.7923349752      -26.1070193232      -22.3483971492  SOLV      56              0.0000000000
       289        68  TIP3      OH2            -4.0375449752      -29.1434993232      -17.0444171492  SOLV      57              0.0000000000
       290        68  TIP3      H1             -3.8454149752      -30.0745593232      -17.1559671492  SOLV      57              0.0000000000
       291        68  TIP3      H2             -3.1799149752      -28.7185493232      -17.0548771492  SOLV      57              0.0000000000
       292        69  TIP3      OH2            -2.7208249752      -26.3549793232      -18.9671471492  SOLV      58              0.0000000000
       293        69  TIP3      H1             -3.0023249752      -25.6455193232      -19.5447671492  SOLV      58              0.0000000000
       294        69  TIP3      H2             -1.7783949752      -26.4276793232      -19.1180271492  SOLV      58              0.0000000000
       295        70  TIP3      OH2           -11.9689449752      -29.5695293232      -17.8936471492  SOLV      59              0.0000000000
       296        70  TIP3      H1            -12.7360449752      -30.1020493232      -18.1038871492  SOLV      59              0.0000000000
       297        70  TIP3      H2            -11.2900449752      -29.8794893232      -18.4930171492  SOLV      59              0.0000000000
       298        71  TIP3      OH2            -7.9654049752      -30.6201893232      -18.3172671492  SOLV      60              0.0000000000
       299        71  TIP3      H1             -8.2008649752      -30.8395193232      -17.4157771492  SOLV      60              0.0000000000
       300        71  TIP3      H2             -8.7487149752      -30.8270693232      -18.8270171492  SOLV      60              0.0000000000
       301        72  TIP3      OH2            -5.2497449752      -31.4928393232      -19.2419171492  SOLV      61              0.0000000000
       302        72  TIP3      H1             -6.1972049752      -31.4608693232      -19.1095871492  SOLV      61              0.0000000000
       303        72  TIP3      H2             -4.9370749752      -32.1181293232      -18.5880971492  SOLV      61              0.0000000000
       304        73  TIP3      OH2           -13.7886649752      -31.6491493232      -18.1891771492  SOLV      62              0.0000000000
       305        73  TIP3      H1            -13.5769249752      -32.3555393232      -18.7994271492  SOLV      62              0.0000000000
       306        73  TIP3      H2            -13.8999149752      -32.0865493232      -17.3450571492  SOLV      62              0.0000000000
       307        74  TIP3      OH2             1.5282850248      -18.1625493232      -24.6344971492  SOLV      63              0.0000000000
       308        74  TIP3      H1              1.5069550248      -17.9777093232      -23.6955571492  SOLV      63              0.0000000000
       309        74  TIP3      H2              2.2189050248      -17.5941493232      -24.9753571492  SOLV      63              0.0000000000
       310        75  TIP3      OH2             1.0915750248      -18.5954393232      -21.7125871492  SOLV      64              0.0000000000
       311        75  TIP3      H1              0.6044450248      -19.3310293232      -22.0838471492  SOLV      64              0.0000000000
       312        75  TIP3      H2              1.6408450248      -18.9890493232      -21.0346471492  SOLV      64              0.0000000000
       313        76  TIP3      OH2            -0.4576949752      -22.8056293232      -17.0745571492  SOLV      65              0.0000000000
       314        76  TIP3      H1             -1.3235849752      -22.9106593232      -16.6803271492  SOLV      65              0.0000000000
       315        76  TIP3      H2             -0.0811049752      -22.0472993232      -16.6280871492  SOLV      65              0.0000000000
       316        77  TIP3      OH2             1.2378350248      -26.4955193232      -29.7367371492  SOLV      66              0.0000000000
       317        77  TIP3      H1              0.5112950248      -26.9752593232      -29.3389771492  SOLV      66              0.0000000000
       318        77  TIP3      H2              1.8191650248      -26.2900493232      -29.0045771492  SOLV      66              0.0000000000
       319        78  TIP3      OH2             0.9969550248      -23.7107693232      -24.7889771492  SOLV      67              0.0000000000
       320        78  TIP3      H1              1.8303750248      -24.0887693232      -25.0696171492  SOLV      67              0.0000000000
       321        78  TIP3      H2              1.1089850248      -22.7676493232      -24.9080671492  SOLV      67              0.0000000000
       322        79  TIP3      OH2            -0.5168149752      -20.8330193232      -22.4821371492  SOLV      68              0.0000000000
       323        79  TIP3      H1             -1.1642849752      -20.5078693232      -21.8566171492  SOLV      68              0.0000000000
       324        79  TIP3      H2             -1.0344149752      -21.2732493232      -23.1563071492  SOLV      68              0.0000000000
       325        80  TIP3      OH2            -0.1191949752      -26.0045393232      -19.5350371492  SOLV      69              0.0000000000
       326        80  TIP3      H1              0.4635350248      -26.7393093232      -19.3433171492  SOLV      69              0.0000000000
       327        80  TIP3      H2              0.4447350248      -25.2325093232      -19.4884571492  SOLV      69              0.0000000000
       328        81  TIP3      OH2             1.3775150248      -28.1019593232      -18.8504971492  SOLV      70              0.0000000000
       329        81  TIP3      H1              0.5141850248      -28.4807493232      -19.0160271492  SOLV      70              0.0000000000
       330        81  TIP3      H2              1.9818850248      -28.8404793232      -18.9249171492  SOLV      70              0.0000000000
       331        82  TIP3      OH2            -0.6531749752      -29.8105493232      -25.2754671492  SOLV      71              0.0000000000
       332        82  TIP3      H1              0.2796250248      -29.5985593232      -25.3098671492  SOLV      71              0.0000000000
       333        82  TIP3      H2             -0.8884249752      -29.7093393232      -24.3531671492  SOLV      71              0.0000000000
       334        83  TIP3      OH2            -0.6239849752      -29.0740193232      -22.4995271492  SOLV      72              0.0000000000
       335        83  TIP3      H1             -1.4668549752      -28.8059793232      -22.1335471492  SOLV      72              0.0000000000
       336        83  TIP3      H2             -0.1815549752      -28.2518293232      -22.7104171492  SOLV      72              0.0000000000
       337        84  TIP3      OH2            -1.7331149752      -18.0726093232      -29.0623171492  SOLV      73              0.0000000000
       338        84  TIP3      H1             -1.0808249752      -18.4203993232      -29.6704071492  SOLV      73              0.0000000000
       339        84  TIP3      H2             -1.2227349752      -17.5842893232      -28.4163471492  SOLV      73              0.0000000000
       340        85  TIP3      OH2           -14.3483649752      -21.1434693232      -18.5192271492  SOLV      74              0.0000000000
       341        85  TIP3      H1            -15.1691149752      -20.9688193232      -18.9797571492  SOLV      74              0.0000000000
       342        85  TIP3      H2            -14.6005849752      -21.2169993232      -17.5987871492  SOLV      74              0.0000000000
       343        86  TIP3      OH2           -11.3940749752      -20.1693493232      -22.2608271492  SOLV      75              0.0000000000
       344        86  TIP3      H1            -11.8189649752      -19.3594993232      -22.5433671492  SOLV      75              0.0000000000
       345        86  TIP3      H2            -10.4897949752      -20.0839393232      -22.5628471492  SOLV      75              0.0000000000
       346        87  TIP3      OH2            -7.0829349752      -18.7703493232      -19.3014571492  SOLV      76              0.0000000000
       347        87  TIP3      H1             -6.8981849752      -19.1037393232      -18.4234271492  SOLV      76              0.0000000000
       348        87  TIP3      H2             -6.2364849752      -18.4604893232      -19.6235371492  SOLV      76              0.0000000000
       349        88  TIP3      OH2            -4.7378949752      -17.4844593232      -20.0573171492  SOLV      77              0.0000000000
       350        88  TIP3      H1             -4.0610049752      -18.1172293232      -20.2973971492  SOLV      77              0.0000000000
       351        88  TIP3      H2             -4.4160149752      -17.0834093232      -19.2499871492  SOLV      77              0.0000000000
       352        89  TIP3      OH2           -13.9924049752      -16.9129593232      -22.2132971492  SOLV      78              0.0000000000
       353        89  TIP3      H1            -14.7127649752      -16.4728593232      -22.6645271492  SOLV      78              0.0000000000
       354        89  TIP3      H2            -14.3580049752      -17.1634893232      -21.3648971492  SOLV      78              0.0000000000
       355        90  TIP3      OH2           -11.5251449752      -17.3125693232      -23.1835771492  SOLV      79              0.0000000000
       356        90  TIP3      H1            -12.3899249752      -17.2407193232      -22.7795671492  SOLV      79              0.0000000000
       357        90  TIP3      H2            -11.5802449752      -16.7658393232      -23.9673271492  SOLV      79              0.0000000000
       358        91  TIP3      OH2            -6.8145849752      -17.4246793232      -24.0079771492  SOLV      80              0.0000000000
       359        91  TIP3      H1             -7.2711849752      -16.8957093232      -24.6621371492  SOLV      80              0.0000000000
       360        91  TIP3      H2             -6.6517849752      -16.8215393232      -23.2827471492  SOLV      80              0.0000000000
       361        92  TIP3      OH2            -4.4869549752      -18.5467193232      -23.0629471492  SOLV      81              0.0000000000
       362        92  TIP3      H1             -5.3915849752      -18.3816993232      -23.3287371492  SOLV      81              0.0000000000
       363        92  TIP3      H2             -4.0580949752      -17.6934993232      -23.1286071492  SOLV      81              0.0000000000
       364        93  TIP3      OH2            -1.8827649752      -16.9768093232      -22.7681671492  SOLV      82              0.0000000000
       365        93  TIP3      H1             -2.0645649752      -16.0609193232      -22.9786771492  SOLV      82              0.0000000000
       366        93  TIP3      H2             -1.7059849752      -17.3870993232      -23.6147071492  SOLV      82              0.0000000000
       367        94  TIP3      OH2            -9.8990349752      -19.1099093232      -25.7993271492  SOLV      83              0.0000000000
       368        94  TIP3      H1             -9.6864649752      -19.9980093232      -26.0862371492  SOLV      83              0.0000000000
       369        94  TIP3      H2             -9.8345249752      -19.1441393232      -24.8449271492  SOLV      83              0.0000000000
       370        95  TIP3      OH2             0.2466850248      -18.2932693232      -31.0551571492  SOLV      84              0.0000000000
       371        95  TIP3      H1              0.0523950248      -19.0410593232      -31.6201971492  SOLV      84              0.0000000000
       372        95  TIP3      H2              0.2076950248      -17.5352593232      -31.6383671492  SOLV      84              0.0000000000
       373        96  TIP3      OH2            -0.5356949752      -19.5420293232      -18.9049771492  SOLV      85              0.0000000000
       374        96  TIP3      H1             -1.3175049752      -19.7282293232      -19.4249171492  SOLV      85              0.0000000000
       375        96  TIP3      H2             -0.6077049752      -18.6125993232      -18.6877271492  SOLV      85              0.0000000000
       376        97  TIP3      OH2             5.1719750248      -26.7863093232      -23.8624471492  SOLV      86              0.0000000000
       377        97  TIP3      H1              5.2131850248      -27.4119793232      -23.1392071492  SOLV      86              0.0000000000
       378        97  TIP3      H2              5.8747450248      -26.1624493232      -23.6804071492  SOLV      86              0.0000000000
       379        98  TIP3      OH2             6.0952850248      -22.3364193232      -25.3275371492  SOLV      87              0.0000000000
       380        98  TIP3      H1              5.7258050248      -23.1383693232      -25.6971071492  SOLV      87              0.0000000000
       381        98  TIP3      H2              7.0363950248      -22.5049293232      -25.2811971492  SOLV      87              0.0000000000
       382        99  TIP3      OH2             3.4159450248      -26.5141993232      -27.8088571492  SOLV      88              0.0000000000
       383        99  TIP3      H1              3.6292950248      -27.2840393232      -27.2815571492  SOLV      88              0.0000000000
       384        99  TIP3      H2              4.1537050248      -26.4245293232      -28.4120971492  SOLV      88              0.0000000000
       385       100  TIP3      OH2            13.6210450248      -18.3573093232      -26.9418871492  SOLV      89              0.0000000000
       386       100  TIP3      H1             14.2406850248      -19.0338393232      -27.2149671492  SOLV      89              0.0000000000
       387       100  TIP3      H2             13.4127850248      -18.5752293232      -26.0333971492  SOLV      89              0.0000000000
       388       101  TIP3      OH2            11.1929150248      -23.9683793232      -25.0493371492  SOLV      90              0.0000000000
       389       101  TIP3      H1             11.4967050248      -24.6542393232      -25.6439271492  SOLV      90              0.0000000000
       390       101  TIP3      H2             11.9143150248      -23.8495093232      -24.4315371492  SOLV      90              0.0000000000
       391       102  TIP3      OH2             8.8677750248      -24.8790893232      -23.0879271492  SOLV      91              0.0000000000
       392       102  TIP3      H1              8.1276850248      -24.2809393232      -22.9844071492  SOLV      91              0.0000000000
       393       102  TIP3      H2              9.5817250248      -24.3251293232      -23.4035671492  SOLV      91              0.0000000000
       394       103  TIP3      OH2             7.2752050248      -22.9147893232      -22.3007771492  SOLV      92              0.0000000000
       395       103  TIP3      H1              7.2699650248      -22.0354393232      -22.6788471492  SOLV      92              0.0000000000
       396       103  TIP3      H2              6.4216150248      -22.9983793232      -21.8757871492  SOLV      92              0.0000000000
       397       104  TIP3      OH2             3.3962950248      -23.2439993232      -31.5188471492  SOLV      93              0.0000000000
       398       104  TIP3      H1              3.1243850248      -23.0148993232      -32.4075571492  SOLV      93              0.0000000000
       399       104  TIP3      H2              3.4418650248      -22.4061193232      -31.0583171492  SOLV      93              0.0000000000
       400       105  TIP3      OH2            17.0212650248      -21.6224093232      -24.8059971492  SOLV      94              0.0000000000
       401       105  TIP3      H1             16.0796350248      -21.5640193232      -24.6443071492  SOLV      94              0.0000000000
       402       105  TIP3      H2             17.2978750248      -20.7163593232      -24.9430271492  SOLV      94              0.0000000000
       403       106  TIP3      OH2            18.1190550248      -23.3735393232      -21.1948271492  SOLV      95              0.0000000000
       404       106  TIP3      H1             18.2586850248      -23.9652893232      -21.9341271492  SOLV      95              0.0000000000
       405       106  TIP3      H2             18.2863350248      -22.5009493232      -21.5509471492  SOLV      95              0.0000000000
       406       107  TIP3      OH2            15.8947150248      -28.0279993232      -21.4029371492  SOLV      96              0.0000000000
       407       107  TIP3      H1             15.9746250248      -27.2645593232      -20.8310871492  SOLV      96              0.0000000000
       408       107  TIP3      H2             15.2934850248      -27.7487593232      -22.0934271492  SOLV      96              0.0000000000
       409       108  TIP3      OH2             9.0094850248      -22.1435793232      -25.9069171492  SOLV      97              0.0000000000
       410       108  TIP3      H1              8.9146150248      -22.7222693232      -26.6634571492  SOLV      97              0.0000000000
       411       108  TIP3      H2              9.7388450248      -22.5150093232      -25.4106371492  SOLV      97              0.0000000000
       412       109  TIP3      OH2             8.0092850248      -26.8030793232      -24.9546371492  SOLV      98              0.0000000000
       413       109  TIP3      H1              8.5745350248      -26.6816593232      -25.7175171492  SOLV      98              0.0000000000
       414       109  TIP3      H2              8.3281750248      -26.1655793232      -24.3157871492  SOLV      98              0.0000000000
       415       110  TIP3      OH2            14.3185050248      -21.2998893232      -24.2205871492  SOLV      99              0.0000000000
       416       110  TIP3      H1             14.0781650248      -20.6375793232      -23.5726671492  SOLV      99              0.0000000000
       417       110  TIP3      H2             14.1203250248      -22.1343693232      -23.7956271492  SOLV      99              0.0000000000
       418       111  TIP3      OH2             8.8893550248      -22.4038093232      -20.2374471492  SOLV      100             0.0000000000
       419       111  TIP3      H1              8.5781050248      -21.6214893232      -19.7821271492  SOLV      100             0.0000000000
       420       111  TIP3      H2              8.2393750248      -22.5568993232      -20.9232471492  SOLV      100             0.0000000000
       421       112  TIP3      OH2             5.8093450248      -26.2056993232      -21.0088771492  SOLV      101             0.0000000000
       422       112  TIP3      H1              5.8796650248      -25.5550193232      -20.3103771492  SOLV      101             0.0000000000
       423       112  TIP3      H2              4.9185650248      -26.1029493232      -21.3437871492  SOLV      101             0.0000000000
       424       113  TIP3      OH2            12.5948050248      -20.3031193232      -29.3502071492  SOLV      102             0.0000000000
       425       113  TIP3      H1             13.0685650248      -20.0074893232      -28.5727871492  SOLV      102             0.0000000000
       426       113  TIP3      H2             12.0317350248      -19.5649593232      -29.5832471492  SOLV      102             0.0000000000
       427       114  TIP3      OH2             7.1289450248      -20.3323093232      -19.4740671492  SOLV      103             0.0000000000
       428       114  TIP3      H1              7.1364750248      -20.4683393232      -20.4215171492  SOLV      103             0.0000000000
       429       114  TIP3      H2              6.2129850248      -20.4494993232      -19.2220671492  SOLV      103             0.0000000000
       430       115  TIP3      OH2             2.7260150248      -24.1392893232      -22.1838771492  SOLV      104             0.0000000000
       431       115  TIP3      H1              2.2248550248      -24.1673493232      -22.9989071492  SOLV      104             0.0000000000
       432       115  TIP3      H2              2.7313850248      -25.0449693232      -21.8741471492  SOLV      104             0.0000000000
       433       116  TIP3      OH2             2.4762850248      -21.3589093232      -25.2998571492  SOLV      105             0.0000000000
       434       116  TIP3      H1              3.4223450248      -21.5032093232      -25.3189071492  SOLV      105             0.0000000000
       435       116  TIP3      H2              2.3639150248      -20.5746293232      -24.7627371492  SOLV      105             0.0000000000
       436       117  TIP3      OH2            20.6741350248      -20.6929393232      -19.6174871492  SOLV      106             0.0000000000
       437       117  TIP3      H1             20.6248150248      -21.6481293232      -19.6547271492  SOLV      106             0.0000000000
       438       117  TIP3      H2             19.8473650248      -20.4254093232      -19.2161071492  SOLV      106             0.0000000000
       439       118  TIP3      OH2            11.6525350248      -21.1190193232      -20.7413471492  SOLV      107             0.0000000000
       440       118  TIP3      H1             11.7399950248      -20.2925593232      -20.2664371492  SOLV      107             0.0000000000
       441       118  TIP3      H2             10.7890450248      -21.4486393232      -20.4924171492  SOLV      107             0.0000000000
       442       119  TIP3      OH2            12.0671150248      -17.3466493232      -30.9352871492  SOLV      108             0.0000000000
       443       119  TIP3      H1             11.9917150248      -17.4679293232      -31.8817671492  SOLV      108             0.0000000000
       444       119  TIP3      H2             12.0999850248      -16.3973793232      -30.8168271492  SOLV      108             0.0000000000
       445       120  TIP3      OH2             5.7204950248      -18.5579493232      -29.1543871492  SOLV      109             0.0000000000
       446       120  TIP3      H1              5.8725350248      -18.9059093232      -28.2757371492  SOLV      109             0.0000000000
       447       120  TIP3      H2              4.8695350248      -18.9142193232      -29.4096671492  SOLV      109             0.0000000000
       448       121  TIP3      OH2             4.9750650248      -22.8157493232      -21.1405971492  SOLV      110             0.0000000000
       449       121  TIP3      H1              5.1911950248      -23.1771893232      -20.2810171492  SOLV      110             0.0000000000
       450       121  TIP3      H2              4.1195350248      -23.1903693232      -21.3502471492  SOLV      110             0.0000000000
       451       122  TIP3      OH2             7.6848750248      -29.3802493232      -24.0501571492  SOLV      111             0.0000000000
       452       122  TIP3      H1              7.0430850248      -29.4205193232      -23.3411471492  SOLV      111             0.0000000000
       453       122  TIP3      H2              7.7220750248      -28.4537793232      -24.2878571492  SOLV      111             0.0000000000
       454       123  TIP3      OH2            12.3194950248      -28.5675693232      -18.8330071492  SOLV      112             0.0000000000
       455       123  TIP3      H1             11.7568750248      -29.2724093232      -18.5122271492  SOLV      112             0.0000000000
       456       123  TIP3      H2             13.1458350248      -28.6883793232      -18.3652471492  SOLV      112             0.0000000000
       457       124  TIP3      OH2             5.4349250248      -29.0598993232      -22.1829571492  SOLV      113             0.0000000000
       458       124  TIP3      H1              5.3968650248      -28.6597393232      -21.3142471492  SOLV      113             0.0000000000
       459       124  TIP3      H2              4.9440350248      -29.8766593232      -22.0926671492  SOLV      113             0.0000000000
       460       125  TIP3      OH2            17.9560150248      -16.8253193232      -18.5108071492  SOLV      114             0.0000000000
       461       125  TIP3      H1             18.1558850248      -16.4011293232      -19.3452771492  SOLV      114             0.0000000000
       462       125  TIP3      H2             18.6113850248      -16.4814993232      -17.9037671492  SOLV      114             0.0000000000
       463       126  TIP3      OH2             5.5539950248      -24.3511893232      -18.9027571492  SOLV      115             0.0000000000
       464       126  TIP3      H1              6.2862350248      -24.0965993232      -18.3413071492  SOLV      115             0.0000000000
       465       126  TIP3      H2              4.7738650248      -24.1466493232      -18.3872171492  SOLV      115             0.0000000000
       466       127  TIP3      OH2            12.2733450248      -24.1584793232      -20.8291971492  SOLV      116             0.0000000000
       467       127  TIP3      H1             11.9279550248      -24.5402393232      -20.0222371492  SOLV      116             0.0000000000
       468       127  TIP3      H2             12.0733550248      -23.2251193232      -20.7579071492  SOLV      116             0.0000000000
       469       128  TIP3      OH2             5.8789650248      -25.0478093232      -26.2963171492  SOLV      117             0.0000000000
       470       128  TIP3      H1              6.6236850248      -25.0502393232      -26.8976671492  SOLV      117             0.0000000000
       471       128  TIP3      H2              5.9566250248      -25.8714293232      -25.8148071492  SOLV      117             0.0000000000
       472       129  TIP3      OH2             2.8869350248      -26.5871193232      -20.9814671492  SOLV      118             0.0000000000
       473       129  TIP3      H1              3.1097950248      -27.0051593232      -20.1497171492  SOLV      118             0.0000000000
       474       129  TIP3      H2              2.2849450248      -27.1996193232      -21.4041871492  SOLV      118             0.0000000000
       475       130  TIP3      OH2             9.9034250248      -27.0701293232      -18.7684971492  SOLV      119             0.0000000000
       476       130  TIP3      H1              9.6075050248      -27.2358293232      -19.6635871492  SOLV      119             0.0000000000
       477       130  TIP3      H2             10.8349450248      -27.2900993232      -18.7791071492  SOLV      119             0.0000000000
       478       131  TIP3      OH2            14.5237050248      -21.6969293232      -20.8786971492  SOLV      120             0.0000000000
       479       131  TIP3      H1             13.6231350248      -21.5136693232      -21.1463071492  SOLV      120             0.0000000000
       480       131  TIP3      H2             14.5578150248      -21.4379993232      -19.9578171492  SOLV      120             0.0000000000
       481       132  TIP3      OH2            20.2182350248      -23.6519693232      -19.6742871492  SOLV      121             0.0000000000
       482       132  TIP3      H1             19.3670850248      -23.4135893232      -20.0416471492  SOLV      121             0.0000000000
       483       132  TIP3      H2             20.8085750248      -23.6686493232      -20.4275771492  SOLV      121             0.0000000000
       484       133  TIP3      OH2             8.2539050248      -21.5299893232      -28.8921671492  SOLV      122             0.0000000000
       485       133  TIP3      H1              8.7811250248      -20.7565493232      -29.0922871492  SOLV      122             0.0000000000
       486       133  TIP3      H2              7.3737550248      -21.3050693232      -29.1937671492  SOLV      122             0.0000000000
       487       134  TIP3      OH2            10.1957950248      -19.7176393232      -23.0006271492  SOLV      123             0.0000000000
       488       134  TIP3      H1             10.5582650248      -18.8630793232      -23.2341871492  SOLV      123             0.0000000000
       489       134  TIP3      H2             10.7273150248      -20.0094793232      -22.2599971492  SOLV      123             0.0000000000
       490       135  TIP3      OH2             8.3642150248      -18.8452393232      -29.7705171492  SOLV      124             0.0000000000
       491       135  TIP3      H1              7.4142650248      -18.7394993232      -29.7191871492  SOLV      124             0.0000000000
       492       135  TIP3      H2              8.7160250248      -18.0244993232      -29.4257671492  SOLV      124             0.0000000000
       493       136  TIP3      OH2            13.7398750248      -23.6185693232      -23.3000671492  SOLV      125             0.0000000000
       494       136  TIP3      H1             13.3140050248      -23.8463993232      -22.4736671492  SOLV      125             0.0000000000
       495       136  TIP3      H2             14.3204550248      -24.3573893232      -23.4825371492  SOLV      125             0.0000000000
       496       137  TIP3      OH2            16.3982950248      -19.0666193232      -20.8305871492  SOLV      126             0.0000000000
       497       137  TIP3      H1             15.7966150248      -19.6223293232      -21.3259571492  SOLV      126             0.0000000000
       498       137  TIP3      H2             16.6796650248      -18.3996393232      -21.4568471492  SOLV      126             0.0000000000
       499       138  TIP3      OH2             4.5208850248      -31.8338493232      -21.4233271492  SOLV      127             0.0000000000
       500       138  TIP3      H1              3.6281150248      -31.4953093232      -21.4909271492  SOLV      127             0.0000000000
       501       138  TIP3      H2              4.4221650248      -32.6892393232      -21.0052471492  SOLV      127             0.0000000000
       502       139  TIP3      OH2             4.1720850248      -20.0294093232      -22.9883871492  SOLV      128             0.0000000000
       503       139  TIP3      H1              4.3891150248      -20.9611693232      -23.0194171492  SOLV      128             0.0000000000
       504       139  TIP3      H2              4.4184350248      -19.7549093232      -22.1051071492  SOLV      128             0.0000000000
       505       140  TIP3      OH2            11.7753450248      -29.7264993232      -21.4167371492  SOLV      129             0.0000000000
       506       140  TIP3      H1             11.8943750248      -29.1529593232      -20.6596971492  SOLV      129             0.0000000000
       507       140  TIP3      H2             12.4308050248      -30.4145593232      -21.3019571492  SOLV      129             0.0000000000
       508       141  TIP3      OH2            17.6684850248      -18.8131193232      -24.8636871492  SOLV      130             0.0000000000
       509       141  TIP3      H1             17.5129150248      -18.1346793232      -25.5207571492  SOLV      130             0.0000000000
       510       141  TIP3      H2             18.6011250248      -18.7411893232      -24.6606271492  SOLV      130             0.0000000000
       511       142  TIP3      OH2             4.0940550248      -20.7546393232      -29.9659671492  SOLV      131             0.0000000000
       512       142  TIP3      H1              3.2619150248      -20.2823693232      -29.9388271492  SOLV      131             0.0000000000
       513       142  TIP3      H2              4.6398850248      -20.2448793232      -30.5646571492  SOLV      131             0.0000000000
       514       143  TIP3      OH2             3.3824250248      -18.1422693232      -18.6361671492  SOLV      132             0.0000000000
       515       143  TIP3      H1              3.9226450248      -18.3588693232      -17.8762471492  SOLV      132             0.0000000000
       516       143  TIP3      H2              2.9012250248      -18.9476693232      -18.8259171492  SOLV      132             0.0000000000
       517       144  TIP3      OH2             7.9797650248      -19.2228293232      -17.0157471492  SOLV      133             0.0000000000
       518       144  TIP3      H1              8.7474850248      -19.6817493232      -16.6748271492  SOLV      133             0.0000000000
       519       144  TIP3      H2              7.9583850248      -19.4488493232      -17.9456271492  SOLV      133             0.0000000000
       520       145  TIP3      OH2            14.5566350248      -20.8427193232      -18.2865971492  SOLV      134             0.0000000000
       521       145  TIP3      H1             14.2055850248      -21.6994193232      -18.0435571492  SOLV      134             0.0000000000
       522       145  TIP3      H2             15.2829550248      -20.7000493232      -17.6796971492  SOLV      134             0.0000000000
       523       146  TIP3      OH2             3.2893750248      -24.3318593232      -17.6817371492  SOLV      135             0.0000000000
       524       146  TIP3      H1              3.4334250248      -25.2337893232      -17.9680671492  SOLV      135             0.0000000000
       525       146  TIP3      H2              2.5171150248      -24.0456493232      -18.1695071492  SOLV      135             0.0000000000
       526       147  TIP3      OH2             9.9449850248      -24.3620493232      -18.2490971492  SOLV      136             0.0000000000
       527       147  TIP3      H1              9.6163650248      -24.0912393232      -19.1063571492  SOLV      136             0.0000000000
       528       147  TIP3      H2             10.0968050248      -25.3030693232      -18.3365971492  SOLV      136             0.0000000000
       529       148  TIP3      OH2            15.6795050248      -24.4463193232      -20.8658671492  SOLV      137             0.0000000000
       530       148  TIP3      H1             16.4249850248      -23.8579493232      -20.9854671492  SOLV      137             0.0000000000
       531       148  TIP3      H2             14.9221850248      -23.8643493232      -20.8025571492  SOLV      137             0.0000000000
       532       149  TIP3      OH2             4.1220250248      -27.1315293232      -18.2618071492  SOLV      138             0.0000000000
       533       149  TIP3      H1              4.5301450248      -27.9888693232      -18.3827471492  SOLV      138             0.0000000000
       534       149  TIP3      H2              3.8617850248      -27.1173993232      -17.3407771492  SOLV      138             0.0000000000
       535       150  TIP3      OH2             8.0690550248      -28.1229593232      -20.8875171492  SOLV      139             0.0000000000
       536       150  TIP3      H1              7.4506650248      -27.4482993232      -20.6070471492  SOLV      139             0.0000000000
       537       150  TIP3      H2              8.4131750248      -27.8015693232      -21.7208971492  SOLV      139             0.0000000000
       538       151  TIP3      OH2            13.0888750248      -25.6514293232      -17.6100371492  SOLV      140             0.0000000000
       539       151  TIP3      H1             14.0419950248      -25.5675193232      -17.6374371492  SOLV      140             0.0000000000
       540       151  TIP3      H2             12.9283350248      -26.3632493232      -16.9905471492  SOLV      140             0.0000000000
       541       152  TIP3      OH2             8.4084250248      -30.7678793232      -19.8052071492  SOLV      141             0.0000000000
       542       152  TIP3      H1              8.5585150248      -31.4967493232      -20.4072371492  SOLV      141             0.0000000000
       543       152  TIP3      H2              8.4106650248      -29.9907093232      -20.3639871492  SOLV      141             0.0000000000
       544       153  TIP3      OH2            10.4028350248      -26.9586793232      -22.0729471492  SOLV      142             0.0000000000
       545       153  TIP3      H1             11.1533150248      -27.1149293232      -22.6461671492  SOLV      142             0.0000000000
       546       153  TIP3      H2             10.0636650248      -26.1070193232      -22.3483971492  SOLV      142             0.0000000000
       547       154  TIP3      OH2            14.8184550248      -29.1434993232      -17.0444171492  SOLV      143             0.0000000000
       548       154  TIP3      H1             15.0105850248      -30.0745593232      -17.1559671492  SOLV      143             0.0000000000
       549       154  TIP3      H2             15.6760850248      -28.7185493232      -17.0548771492  SOLV      143             0.0000000000
       550       155  TIP3      OH2            16.1351750248      -26.3549793232      -18.9671471492  SOLV      144             0.0000000000
       551       155  TIP3      H1             15.8536750248      -25.6455193232      -19.5447671492  SOLV      144             0.0000000000
       552       155  TIP3      H2             17.0776050248      -26.4276793232      -19.1180271492  SOLV      144             0.0000000000
       553       156  TIP3      OH2             6.8870550248      -29.5695293232      -17.8936471492  SOLV      145             0.0000000000
       554       156  TIP3      H1              6.1199550248      -30.1020493232      -18.1038871492  SOLV      145             0.0000000000
       555       156  TIP3      H2              7.5659550248      -29.8794893232      -18.4930171492  SOLV      145             0.0000000000
       556       157  TIP3      OH2            10.8905950248      -30.6201893232      -18.3172671492  SOLV      146             0.0000000000
       557       157  TIP3      H1             10.6551350248      -30.8395193232      -17.4157771492  SOLV      146             0.0000000000
       558       157  TIP3      H2             10.1072850248      -30.8270693232      -18.8270171492  SOLV      146             0.0000000000
       559       158  TIP3      OH2            13.6062550248      -31.4928393232      -19.2419171492  SOLV      147             0.0000000000
       560       158  TIP3      H1             12.6587950248      -31.4608693232      -19.1095871492  SOLV      147             0.0000000000
       561       158  TIP3      H2             13.9189250248      -32.1181293232      -18.5880971492  SOLV      147             0.0000000000
       562       159  TIP3      OH2             5.0673350248      -31.6491493232      -18.1891771492  SOLV      148             0.0000000000
       563       159  TIP3      H1              5.2790750248      -32.3555393232      -18.7994271492  SOLV      148             0.0000000000
       564       159  TIP3      H2              4.9560850248      -32.0865493232      -17.3450571492  SOLV      148             0.0000000000
       565       160  TIP3      OH2             1.9658850248      -17.0528893232      -29.4195971492  SOLV      149             0.0000000000
       566       160  TIP3      H1              1.3185950248      -17.5147193232      -29.9524771492  SOLV      149             0.0000000000
       567       160  TIP3      H2              2.3203450248      -17.7245593232      -28.8369771492  SOLV      149             0.0000000000
       568       161  TIP3      OH2             2.8358050248      -18.9721893232      -27.6149771492  SOLV      150             0.0000000000
       569       161  TIP3      H1              2.5014850248      -19.8524593232      -27.4429571492  SOLV      150             0.0000000000
       570       161  TIP3      H2              3.0580450248      -18.6266893232      -26.7504171492  SOLV      150             0.0000000000
       571       162  TIP3      OH2            20.3842850248      -18.1625493232      -24.6344971492  SOLV      151             0.0000000000
       572       162  TIP3      H1             20.3629550248      -17.9777093232      -23.6955571492  SOLV      151             0.0000000000
       573       162  TIP3      H2             21.0749050248      -17.5941493232      -24.9753571492  SOLV      151             0.0000000000
       574       163  TIP3      OH2            19.9475750248      -18.5954393232      -21.7125871492  SOLV      152             0.0000000000
       575       163  TIP3      H1             19.4604450248      -19.3310293232      -22.0838471492  SOLV      152             0.0000000000
       576       163  TIP3      H2             20.4968450248      -18.9890493232      -21.0346471492  SOLV      152             0.0000000000
       577       164  TIP3      OH2            18.3983050248      -22.8056293232      -17.0745571492  SOLV      153             0.0000000000
       578       164  TIP3      H1             17.5324150248      -22.9106593232      -16.6803271492  SOLV      153             0.0000000000
       579       164  TIP3      H2             18.7748950248      -22.0472993232      -16.6280871492  SOLV      153             0.0000000000
       580       165  TIP3      OH2            18.3391850248      -20.8330193232      -22.4821371492  SOLV      154             0.0000000000
       581       165  TIP3      H1             17.6917150248      -20.5078693232      -21.8566171492  SOLV      154             0.0000000000
       582       165  TIP3      H2             17.8215850248      -21.2732493232      -23.1563071492  SOLV      154             0.0000000000
       583       166  TIP3      OH2             2.9157550248      -25.8966493232      -25.1634871492  SOLV      155             0.0000000000
       584       166  TIP3      H1              3.1000450248      -25.9784793232      -26.0991971492  SOLV      155             0.0000000000
       585       166  TIP3      H2              3.7650450248      -26.0209493232      -24.7398471492  SOLV      155             0.0000000000
       586       167  TIP3      OH2            18.7368050248      -26.0045393232      -19.5350371492  SOLV      156             0.0000000000
       587       167  TIP3      H1             19.3195350248      -26.7393093232      -19.3433171492  SOLV      156             0.0000000000
       588       167  TIP3      H2             19.3007350248      -25.2325093232      -19.4884571492  SOLV      156             0.0000000000
       589       168  TIP3      OH2             2.5132350248      -30.6261493232      -19.0226071492  SOLV      157             0.0000000000
       590       168  TIP3      H1              3.4327250248      -30.7483193232      -18.7862971492  SOLV      157             0.0000000000
       591       168  TIP3      H2              2.0636850248      -31.3761793232      -18.6332571492  SOLV      157             0.0000000000
       592       169  TIP3      OH2             2.0385150248      -29.3146893232      -25.0622971492  SOLV      158             0.0000000000
       593       169  TIP3      H1              2.5304950248      -29.5356393232      -25.8530971492  SOLV      158             0.0000000000
       594       169  TIP3      H2              2.4006050248      -28.4743493232      -24.7813471492  SOLV      158             0.0000000000
       595       170  TIP3      OH2             4.5076350248      -21.1434693232      -18.5192271492  SOLV      159             0.0000000000
       596       170  TIP3      H1              3.6868850248      -20.9688193232      -18.9797571492  SOLV      159             0.0000000000
       597       170  TIP3      H2              4.2554150248      -21.2169993232      -17.5987871492  SOLV      159             0.0000000000
       598       171  TIP3      OH2             7.4619250248      -20.1693493232      -22.2608271492  SOLV      160             0.0000000000
       599       171  TIP3      H1              7.0370350248      -19.3594993232      -22.5433671492  SOLV      160             0.0000000000
       600       171  TIP3      H2              8.3662050248      -20.0839393232      -22.5628471492  SOLV      160             0.0000000000
       601       172  TIP3      OH2            11.7730650248      -18.7703493232      -19.3014571492  SOLV      161             0.0000000000
       602       172  TIP3      H1             11.9578150248      -19.1037393232      -18.4234271492  SOLV      161             0.0000000000
       603       172  TIP3      H2             12.6195150248      -18.4604893232      -19.6235371492  SOLV      161             0.0000000000
       604       173  TIP3      OH2            14.1181050248      -17.4844593232      -20.0573171492  SOLV      162             0.0000000000
       605       173  TIP3      H1             14.7949950248      -18.1172293232      -20.2973971492  SOLV      162             0.0000000000
       606       173  TIP3      H2             14.4399850248      -17.0834093232      -19.2499871492  SOLV      162             0.0000000000
       607       174  TIP3      OH2             4.8635950248      -16.9129593232      -22.2132971492  SOLV      163             0.0000000000
       608       174  TIP3      H1              4.1432350248      -16.4728593232      -22.6645271492  SOLV      163             0.0000000000
       609       174  TIP3      H2              4.4979950248      -17.1634893232      -21.3648971492  SOLV      163             0.0000000000
       610       175  TIP3      OH2             7.3308550248      -17.3125693232      -23.1835771492  SOLV      164             0.0000000000
       611       175  TIP3      H1              6.4660750248      -17.2407193232      -22.7795671492  SOLV      164             0.0000000000
       612       175  TIP3      H2              7.2757550248      -16.7658393232      -23.9673271492  SOLV      164             0.0000000000
       613       176  TIP3      OH2            12.0414150248      -17.4246793232      -24.0079771492  SOLV      165             0.0000000000
       614       176  TIP3      H1             11.5848150248      -16.8957093232      -24.6621371492  SOLV      165             0.0000000000
       615       176  TIP3      H2             12.2042150248      -16.8215393232      -23.2827471492  SOLV      165             0.0000000000
       616       177  TIP3      OH2            14.3690450248      -18.5467193232      -23.0629471492  SOLV      166             0.0000000000
       617       177  TIP3      H1             13.4644150248      -18.3816993232      -23.3287371492  SOLV      166             0.0000000000
       618       177  TIP3      H2             14.7979050248      -17.6934993232      -23.1286071492  SOLV      166             0.0000000000
       619       178  TIP3      OH2            16.9732350248      -16.9768093232      -22.7681671492  SOLV      167             0.0000000000
       620       178  TIP3      H1             16.7914350248      -16.0609193232      -22.9786771492  SOLV      167             0.0000000000
       621       178  TIP3      H2             17.1500150248      -17.3870993232      -23.6147071492  SOLV      167             0.0000000000
       622       179  TIP3      OH2             4.2784050248      -18.2897093232      -25.3031171492  SOLV      168             0.0000000000
       623       179  TIP3      H1              4.2600050248      -18.7151993232      -24.4458871492  SOLV      168             0.0000000000
       624       179  TIP3      H2              5.0831950248      -18.6082093232      -25.7118971492  SOLV      168             0.0000000000
       625       180  TIP3      OH2             6.4197150248      -19.5798393232      -26.6481271492  SOLV      169             0.0000000000
       626       180  TIP3      H1              6.2007850248      -20.4960993232      -26.4785271492  SOLV      169             0.0000000000
       627       180  TIP3      H2              7.2439350248      -19.4397993232      -26.1819871492  SOLV      169             0.0000000000
       628       181  TIP3      OH2             8.9569650248      -19.1099093232      -25.7993271492  SOLV      170             0.0000000000
       629       181  TIP3      H1              9.1695350248      -19.9980093232      -26.0862371492  SOLV      170             0.0000000000
       630       181  TIP3      H2              9.0214750248      -19.1441393232      -24.8449271492  SOLV      170             0.0000000000
       631       182  TIP3      OH2             3.5293750248      -19.0657893232      -32.1318871492  SOLV      171             0.0000000000
       632       182  TIP3      H1              2.8443650248      -19.1038993232      -32.7993771492  SOLV      171             0.0000000000
       633       182  TIP3      H2              3.5330950248      -18.1530293232      -31.8436771492  SOLV      171             0.0000000000
       634       183  TIP3      OH2             5.3474950248      -18.1457093232      -35.1066771492  SOLV      172             0.0000000000
       635       183  TIP3      H1              5.0799550248      -17.8594193232      -34.2333671492  SOLV      172             0.0000000000
       636       183  TIP3      H2              6.1187550248      -18.6917893232      -34.9544271492  SOLV      172             0.0000000000
       637       184  TIP3      OH2            18.3203050248      -19.5420293232      -18.9049771492  SOLV      173             0.0000000000
       638       184  TIP3      H1             17.5384950248      -19.7282293232      -19.4249171492  SOLV      173             0.0000000000
       639       184  TIP3      H2             18.2482950248      -18.6125993232      -18.6877271492  SOLV      173             0.0000000000
       640       185  TIP3      OH2            25.9849450248      -20.3323093232      -19.4740671492  SOLV      174             0.0000000000
       641       185  TIP3      H1             25.9924750248      -20.4683393232      -20.4215171492  SOLV      174             0.0000000000
       642       185  TIP3      H2             25.0689850248      -20.4494993232      -19.2220671492  SOLV      174             0.0000000000
       643       186  TIP3      OH2            24.4099950248      -24.3511893232      -18.9027571492  SOLV      175             0.0000000000
       644       186  TIP3      H1             25.1422350248      -24.0965993232      -18.3413071492  SOLV      175             0.0000000000
       645       186  TIP3      H2             23.6298650248      -24.1466493232      -18.3872171492  SOLV      175             0.0000000000
       646       187  TIP3      OH2            23.0280850248      -20.0294093232      -22.9883871492  SOLV      176             0.0000000000
       647       187  TIP3      H1             23.2451150248      -20.9611693232      -23.0194171492  SOLV      176             0.0000000000
       648       187  TIP3      H2             23.2744350248      -19.7549093232      -22.1051071492  SOLV      176             0.0000000000
       649       188  TIP3      OH2            22.2384250248      -18.1422693232      -18.6361671492  SOLV      177             0.0000000000
       650       188  TIP3      H1             22.7786450248      -18.3588693232      -17.8762471492  SOLV      177             0.0000000000
       651       188  TIP3      H2             21.7572250248      -18.9476693232      -18.8259171492  SOLV      177             0.0000000000
       652       189  TIP3      OH2            26.8357650248      -19.2228293232      -17.0157471492  SOLV      178             0.0000000000
       653       189  TIP3      H1             27.6034850248      -19.6817493232      -16.6748271492  SOLV      178             0.0000000000
       654       189  TIP3      H2             26.8143850248      -19.4488493232      -17.9456271492  SOLV      178             0.0000000000
       655       190  TIP3      OH2            22.1453750248      -24.3318593232      -17.6817371492  SOLV      179             0.0000000000
       656       190  TIP3      H1             22.2894250248      -25.2337893232      -17.9680671492  SOLV      179             0.0000000000
       657       190  TIP3      H2             21.3731150248      -24.0456493232      -18.1695071492  SOLV      179             0.0000000000
       658       191  TIP3      OH2            23.3636350248      -21.1434693232      -18.5192271492  SOLV      180             0.0000000000
       659       191  TIP3      H1             22.5428850248      -20.9688193232      -18.9797571492  SOLV      180             0.0000000000
       660       191  TIP3      H2             23.1114150248      -21.2169993232      -17.5987871492  SOLV      180             0.0000000000
       661       192  TIP3      OH2            23.7195950248      -16.9129593232      -22.2132971492  SOLV      181             0.0000000000
       662       192  TIP3      H1             22.9992350248      -16.4728593232      -22.6645271492  SOLV      181             0.0000000000
       663       192  TIP3      H2             23.3539950248      -17.1634893232      -21.3648971492  SOLV      181             0.0000000000
       664       193  TIP3      OH2            26.1868550248      -17.3125693232      -23.1835771492  SOLV      182             0.0000000000
       665       193  TIP3      H1             25.3220750248      -17.2407193232      -22.7795671492  SOLV      182             0.0000000000
       666       193  TIP3      H2             26.1317550248      -16.7658393232      -23.9673271492  SOLV      182             0.0000000000
       667       194  TIP3      OH2           -17.4646449752      -12.0329293232      -21.9527371492  SOLV      183             0.0000000000
       668       194  TIP3      H1            -18.1531849752      -11.3748593232      -22.0480771492  SOLV      183             0.0000000000
       669       194  TIP3      H2            -17.4491849752      -12.2301393232      -21.0161971492  SOLV      183             0.0000000000
       670       195  TIP3      OH2           -20.6907349752       -2.7664093232      -24.8059971492  SOLV      184             0.0000000000
       671       195  TIP3      H1            -21.6323649752       -2.7080193232      -24.6443071492  SOLV      184             0.0000000000
       672       195  TIP3      H2            -20.4141249752       -1.8603593232      -24.9430271492  SOLV      184             0.0000000000
       673       196  TIP3      OH2           -19.5929449752       -4.5175393232      -21.1948271492  SOLV      185             0.0000000000
       674       196  TIP3      H1            -19.4533149752       -5.1092893232      -21.9341271492  SOLV      185             0.0000000000
       675       196  TIP3      H2            -19.4256649752       -3.6449493232      -21.5509471492  SOLV      185             0.0000000000
       676       197  TIP3      OH2           -17.7510149752       -8.1777393232      -23.1287871492  SOLV      186             0.0000000000
       677       197  TIP3      H1            -18.4036049752       -7.4831793232      -23.0396971492  SOLV      186             0.0000000000
       678       197  TIP3      H2            -17.2859849752       -7.9676493232      -23.9386271492  SOLV      186             0.0000000000
       679       198  TIP3      OH2           -21.8172849752       -9.1719993232      -21.4029371492  SOLV      187             0.0000000000
       680       198  TIP3      H1            -21.7373749752       -8.4085593232      -20.8310871492  SOLV      187             0.0000000000
       681       198  TIP3      H2            -22.4185149752       -8.8927593232      -22.0934271492  SOLV      187             0.0000000000
       682       199  TIP3      OH2           -23.3934949752       -2.4438893232      -24.2205871492  SOLV      188             0.0000000000
       683       199  TIP3      H1            -23.6338349752       -1.7815793232      -23.5726671492  SOLV      188             0.0000000000
       684       199  TIP3      H2            -23.5916749752       -3.2783693232      -23.7956271492  SOLV      188             0.0000000000
       685       200  TIP3      OH2           -28.8226449752       -3.5478093232      -20.2374471492  SOLV      189             0.0000000000
       686       200  TIP3      H1            -29.1338949752       -2.7654893232      -19.7821271492  SOLV      189             0.0000000000
       687       200  TIP3      H2            -29.4726249752       -3.7008993232      -20.9232471492  SOLV      189             0.0000000000
       688       201  TIP3      OH2           -30.5830549752       -1.4763093232      -19.4740671492  SOLV      190             0.0000000000
       689       201  TIP3      H1            -30.5755249752       -1.6123393232      -20.4215171492  SOLV      190             0.0000000000
       690       201  TIP3      H2            -31.4990149752       -1.5934993232      -19.2220671492  SOLV      190             0.0000000000
       691       202  TIP3      OH2           -17.0378649752       -1.8369393232      -19.6174871492  SOLV      191             0.0000000000
       692       202  TIP3      H1            -17.0871849752       -2.7921293232      -19.6547271492  SOLV      191             0.0000000000
       693       202  TIP3      H2            -17.8646349752       -1.5694093232      -19.2161071492  SOLV      191             0.0000000000
       694       203  TIP3      OH2           -26.0594649752       -2.2630193232      -20.7413471492  SOLV      192             0.0000000000
       695       203  TIP3      H1            -25.9720049752       -1.4365593232      -20.2664371492  SOLV      192             0.0000000000
       696       203  TIP3      H2            -26.9229549752       -2.5926393232      -20.4924171492  SOLV      192             0.0000000000
       697       204  TIP3      OH2           -19.8858849752      -10.3436893232      -19.1372671492  SOLV      193             0.0000000000
       698       204  TIP3      H1            -20.2932049752       -9.8631293232      -19.8579371492  SOLV      193             0.0000000000
       699       204  TIP3      H2            -19.8453149752      -11.2490893232      -19.4451871492  SOLV      193             0.0000000000
       700       205  TIP3      OH2           -22.1288649752      -12.0121393232      -20.9170271492  SOLV      194             0.0000000000
       701       205  TIP3      H1            -22.6429149752      -12.1379193232      -20.1194271492  SOLV      194             0.0000000000
       702       205  TIP3      H2            -22.2843949752      -11.0998293232      -21.1614071492  SOLV      194             0.0000000000
       703       206  TIP3      OH2           -25.3925049752       -9.7115693232      -18.8330071492  SOLV      195             0.0000000000
       704       206  TIP3      H1            -25.9551249752      -10.4164093232      -18.5122271492  SOLV      195             0.0000000000
       705       206  TIP3      H2            -24.5661649752       -9.8323793232      -18.3652471492  SOLV      195             0.0000000000
       706       207  TIP3      OH2           -19.7559849752        2.0306806768      -18.5108071492  SOLV      196             0.0000000000
       707       207  TIP3      H1            -19.5561149752        2.4548706768      -19.3452771492  SOLV      196             0.0000000000
       708       207  TIP3      H2            -19.1006149752        2.3745006768      -17.9037671492  SOLV      196             0.0000000000
       709       208  TIP3      OH2           -32.1580049752       -5.4951893232      -18.9027571492  SOLV      197             0.0000000000
       710       208  TIP3      H1            -31.4257649752       -5.2405993232      -18.3413071492  SOLV      197             0.0000000000
       711       208  TIP3      H2            -32.9381349752       -5.2906493232      -18.3872171492  SOLV      197             0.0000000000
       712       209  TIP3      OH2           -19.8079749752       -6.3539893232      -23.2793471492  SOLV      198             0.0000000000
       713       209  TIP3      H1            -19.1660949752       -5.8973593232      -23.8231271492  SOLV      198             0.0000000000
       714       209  TIP3      H2            -20.6382849752       -6.2407493232      -23.7419371492  SOLV      198             0.0000000000
       715       210  TIP3      OH2           -25.4386549752       -5.3024793232      -20.8291971492  SOLV      199             0.0000000000
       716       210  TIP3      H1            -25.7840449752       -5.6842393232      -20.0222371492  SOLV      199             0.0000000000
       717       210  TIP3      H2            -25.6386449752       -4.3691193232      -20.7579071492  SOLV      199             0.0000000000
       718       211  TIP3      OH2           -27.8085749752       -8.2141293232      -18.7684971492  SOLV      200             0.0000000000
       719       211  TIP3      H1            -28.1044949752       -8.3798293232      -19.6635871492  SOLV      200             0.0000000000
       720       211  TIP3      H2            -26.8770549752       -8.4340993232      -18.7791071492  SOLV      200             0.0000000000
       721       212  TIP3      OH2           -23.1882949752       -2.8409293232      -20.8786971492  SOLV      201             0.0000000000
       722       212  TIP3      H1            -24.0888649752       -2.6576693232      -21.1463071492  SOLV      201             0.0000000000
       723       212  TIP3      H2            -23.1541849752       -2.5819993232      -19.9578171492  SOLV      201             0.0000000000
       724       213  TIP3      OH2           -17.4937649752       -4.7959693232      -19.6742871492  SOLV      202             0.0000000000
       725       213  TIP3      H1            -18.3449149752       -4.5575893232      -20.0416471492  SOLV      202             0.0000000000
       726       213  TIP3      H2            -16.9034249752       -4.8126493232      -20.4275771492  SOLV      202             0.0000000000
       727       214  TIP3      OH2           -27.5162049752       -0.8616393232      -23.0006271492  SOLV      203             0.0000000000
       728       214  TIP3      H1            -27.1537349752       -0.0070793232      -23.2341871492  SOLV      203             0.0000000000
       729       214  TIP3      H2            -26.9846849752       -1.1534793232      -22.2599971492  SOLV      203             0.0000000000
       730       215  TIP3      OH2           -23.9721249752       -4.7625693232      -23.3000671492  SOLV      204             0.0000000000
       731       215  TIP3      H1            -24.3979949752       -4.9903993232      -22.4736671492  SOLV      204             0.0000000000
       732       215  TIP3      H2            -23.3915449752       -5.5013893232      -23.4825371492  SOLV      204             0.0000000000
       733       216  TIP3      OH2           -21.3137049752       -0.2106193232      -20.8305871492  SOLV      205             0.0000000000
       734       216  TIP3      H1            -21.9153849752       -0.7663293232      -21.3259571492  SOLV      205             0.0000000000
       735       216  TIP3      H2            -21.0323349752        0.4563606768      -21.4568471492  SOLV      205             0.0000000000
       736       217  TIP3      OH2           -19.7320749752      -12.9634693232      -20.5817671492  SOLV      206             0.0000000000
       737       217  TIP3      H1            -20.6484949752      -12.7012993232      -20.6693971492  SOLV      206             0.0000000000
       738       217  TIP3      H2            -19.3965749752      -12.9665693232      -21.4782371492  SOLV      206             0.0000000000
       739       218  TIP3      OH2           -20.0435149752        0.0428806768      -24.8636871492  SOLV      207             0.0000000000
       740       218  TIP3      H1            -20.1990849752        0.7213206768      -25.5207571492  SOLV      207             0.0000000000
       741       218  TIP3      H2            -19.1108749752        0.1148106768      -24.6606271492  SOLV      207             0.0000000000
       742       219  TIP3      OH2           -34.3295749752        0.7137306768      -18.6361671492  SOLV      208             0.0000000000
       743       219  TIP3      H1            -33.7893549752        0.4971306768      -17.8762471492  SOLV      208             0.0000000000
       744       219  TIP3      H2            -34.8107749752       -0.0916693232      -18.8259171492  SOLV      208             0.0000000000
       745       220  TIP3      OH2           -29.7322349752       -0.3668293232      -17.0157471492  SOLV      209             0.0000000000
       746       220  TIP3      H1            -28.9645149752       -0.8257493232      -16.6748271492  SOLV      209             0.0000000000
       747       220  TIP3      H2            -29.7536149752       -0.5928493232      -17.9456271492  SOLV      209             0.0000000000
       748       221  TIP3      OH2           -23.1553649752       -1.9867193232      -18.2865971492  SOLV      210             0.0000000000
       749       221  TIP3      H1            -23.5064149752       -2.8434193232      -18.0435571492  SOLV      210             0.0000000000
       750       221  TIP3      H2            -22.4290449752       -1.8440493232      -17.6796971492  SOLV      210             0.0000000000
       751       222  TIP3      OH2           -27.7670149752       -5.5060493232      -18.2490971492  SOLV      211             0.0000000000
       752       222  TIP3      H1            -28.0956349752       -5.2352393232      -19.1063571492  SOLV      211             0.0000000000
       753       222  TIP3      H2            -27.6151949752       -6.4470693232      -18.3365971492  SOLV      211             0.0000000000
       754       223  TIP3      OH2           -22.0324949752       -5.5903193232      -20.8658671492  SOLV      212             0.0000000000
       755       223  TIP3      H1            -21.2870149752       -5.0019493232      -20.9854671492  SOLV      212             0.0000000000
       756       223  TIP3      H2            -22.7898149752       -5.0083493232      -20.8025571492  SOLV      212             0.0000000000
       757       224  TIP3      OH2           -24.6231249752       -6.7954293232      -17.6100371492  SOLV      213             0.0000000000
       758       224  TIP3      H1            -23.6700049752       -6.7115193232      -17.6374371492  SOLV      213             0.0000000000
       759       224  TIP3      H2            -24.7836649752       -7.5072493232      -16.9905471492  SOLV      213             0.0000000000
       760       225  TIP3      OH2           -22.8935449752      -10.2874993232      -17.0444171492  SOLV      214             0.0000000000
       761       225  TIP3      H1            -22.7014149752      -11.2185593232      -17.1559671492  SOLV      214             0.0000000000
       762       225  TIP3      H2            -22.0359149752       -9.8625493232      -17.0548771492  SOLV      214             0.0000000000
       763       226  TIP3      OH2           -21.5768249752       -7.4989793232      -18.9671471492  SOLV      215             0.0000000000
       764       226  TIP3      H1            -21.8583249752       -6.7895193232      -19.5447671492  SOLV      215             0.0000000000
       765       226  TIP3      H2            -20.6343949752       -7.5716793232      -19.1180271492  SOLV      215             0.0000000000
       766       227  TIP3      OH2           -26.8214049752      -11.7641893232      -18.3172671492  SOLV      216             0.0000000000
       767       227  TIP3      H1            -27.0568649752      -11.9835193232      -17.4157771492  SOLV      216             0.0000000000
       768       227  TIP3      H2            -27.6047149752      -11.9710693232      -18.8270171492  SOLV      216             0.0000000000
       769       228  TIP3      OH2           -24.1057449752      -12.6368393232      -19.2419171492  SOLV      217             0.0000000000
       770       228  TIP3      H1            -25.0532049752      -12.6048693232      -19.1095871492  SOLV      217             0.0000000000
       771       228  TIP3      H2            -23.7930749752      -13.2621293232      -18.5880971492  SOLV      217             0.0000000000
       772       229  TIP3      OH2           -22.4715949752      -14.0027293232      -17.2367271492  SOLV      218             0.0000000000
       773       229  TIP3      H1            -22.5684149752      -14.9549993232      -17.2425371492  SOLV      218             0.0000000000
       774       229  TIP3      H2            -22.7932849752      -13.7340493232      -16.3761771492  SOLV      218             0.0000000000
       775       230  TIP3      OH2           -27.5098949752      -15.1091493232      -17.1561971492  SOLV      219             0.0000000000
       776       230  TIP3      H1            -27.6416749752      -15.5847693232      -17.9763471492  SOLV      219             0.0000000000
       777       230  TIP3      H2            -28.1091549752      -14.3647893232      -17.2114871492  SOLV      219             0.0000000000
       778       231  TIP3      OH2           -17.3277149752        0.6934506768      -24.6344971492  SOLV      220             0.0000000000
       779       231  TIP3      H1            -17.3490449752        0.8782906768      -23.6955571492  SOLV      220             0.0000000000
       780       231  TIP3      H2            -16.6370949752        1.2618506768      -24.9753571492  SOLV      220             0.0000000000
       781       232  TIP3      OH2           -17.7644249752        0.2605606768      -21.7125871492  SOLV      221             0.0000000000
       782       232  TIP3      H1            -18.2515549752       -0.4750293232      -22.0838471492  SOLV      221             0.0000000000
       783       232  TIP3      H2            -17.2151549752       -0.1330493232      -21.0346471492  SOLV      221             0.0000000000
       784       233  TIP3      OH2           -19.3136949752       -3.9496293232      -17.0745571492  SOLV      222             0.0000000000
       785       233  TIP3      H1            -20.1795849752       -4.0546593232      -16.6803271492  SOLV      222             0.0000000000
       786       233  TIP3      H2            -18.9371049752       -3.1912993232      -16.6280871492  SOLV      222             0.0000000000
       787       234  TIP3      OH2           -17.8590449752       -4.8547693232      -24.7889771492  SOLV      223             0.0000000000
       788       234  TIP3      H1            -17.0256249752       -5.2327693232      -25.0696171492  SOLV      223             0.0000000000
       789       234  TIP3      H2            -17.7470149752       -3.9116493232      -24.9080671492  SOLV      223             0.0000000000
       790       235  TIP3      OH2           -19.3728149752       -1.9770193232      -22.4821371492  SOLV      224             0.0000000000
       791       235  TIP3      H1            -20.0202849752       -1.6518693232      -21.8566171492  SOLV      224             0.0000000000
       792       235  TIP3      H2            -19.8904149752       -2.4172493232      -23.1563071492  SOLV      224             0.0000000000
       793       236  TIP3      OH2           -18.9751949752       -7.1485393232      -19.5350371492  SOLV      225             0.0000000000
       794       236  TIP3      H1            -18.3924649752       -7.8833093232      -19.3433171492  SOLV      225             0.0000000000
       795       236  TIP3      H2            -18.4112649752       -6.3765093232      -19.4884571492  SOLV      225             0.0000000000
       796       237  TIP3      OH2           -17.4784849752       -9.2459593232      -18.8504971492  SOLV      226             0.0000000000
       797       237  TIP3      H1            -18.3418149752       -9.6247493232      -19.0160271492  SOLV      226             0.0000000000
       798       237  TIP3      H2            -16.8741149752       -9.9844793232      -18.9249171492  SOLV      226             0.0000000000
       799       238  TIP3      OH2           -19.4799849752      -10.2180193232      -22.4995271492  SOLV      227             0.0000000000
       800       238  TIP3      H1            -20.3228549752       -9.9499793232      -22.1335471492  SOLV      227             0.0000000000
       801       238  TIP3      H2            -19.0375549752       -9.3958293232      -22.7104171492  SOLV      227             0.0000000000
       802       239  TIP3      OH2           -17.1968249752      -16.2379993232      -17.1460271492  SOLV      228             0.0000000000
       803       239  TIP3      H1            -16.8471249752      -16.8916493232      -17.7515571492  SOLV      228             0.0000000000
       804       239  TIP3      H2            -17.0498749752      -15.4005893232      -17.5857671492  SOLV      228             0.0000000000
       805       240  TIP3      OH2           -17.6771049752      -14.1285393232      -18.7968971492  SOLV      229             0.0000000000
       806       240  TIP3      H1            -18.5945349752      -13.8578293232      -18.8325471492  SOLV      229             0.0000000000
       807       240  TIP3      H2            -17.5541649752      -14.6636993232      -19.5809271492  SOLV      229             0.0000000000
       808       241  TIP3      OH2           -33.2043649752       -2.2874693232      -18.5192271492  SOLV      230             0.0000000000
       809       241  TIP3      H1            -34.0251149752       -2.1128193232      -18.9797571492  SOLV      230             0.0000000000
       810       241  TIP3      H2            -33.4565849752       -2.3609993232      -17.5987871492  SOLV      230             0.0000000000
       811       242  TIP3      OH2           -25.9389349752        0.0856506768      -19.3014571492  SOLV      231             0.0000000000
       812       242  TIP3      H1            -25.7541849752       -0.2477393232      -18.4234271492  SOLV      231             0.0000000000
       813       242  TIP3      H2            -25.0924849752        0.3955106768      -19.6235371492  SOLV      231             0.0000000000
       814       243  TIP3      OH2           -23.5938949752        1.3715406768      -20.0573171492  SOLV      232             0.0000000000
       815       243  TIP3      H1            -22.9170049752        0.7387706768      -20.2973971492  SOLV      232             0.0000000000
       816       243  TIP3      H2            -23.2720149752        1.7725906768      -19.2499871492  SOLV      232             0.0000000000
       817       244  TIP3      OH2           -18.6765149752      -16.0389093232      -20.9778171492  SOLV      233             0.0000000000
       818       244  TIP3      H1            -19.4891649752      -15.7138793232      -21.3653471492  SOLV      233             0.0000000000
       819       244  TIP3      H2            -18.4436649752      -16.7990593232      -21.5109071492  SOLV      233             0.0000000000
       820       245  TIP3      OH2           -25.6705849752        1.4313206768      -24.0079771492  SOLV      234             0.0000000000
       821       245  TIP3      H1            -26.1271849752        1.9602906768      -24.6621371492  SOLV      234             0.0000000000
       822       245  TIP3      H2            -25.5077849752        2.0344606768      -23.2827471492  SOLV      234             0.0000000000
       823       246  TIP3      OH2           -23.3429549752        0.3092806768      -23.0629471492  SOLV      235             0.0000000000
       824       246  TIP3      H1            -24.2475849752        0.4743006768      -23.3287371492  SOLV      235             0.0000000000
       825       246  TIP3      H2            -22.9140949752        1.1625006768      -23.1286071492  SOLV      235             0.0000000000
       826       247  TIP3      OH2           -20.7387649752        1.8791906768      -22.7681671492  SOLV      236             0.0000000000
       827       247  TIP3      H1            -20.9205649752        2.7950806768      -22.9786771492  SOLV      236             0.0000000000
       828       247  TIP3      H2            -20.5619849752        1.4689006768      -23.6147071492  SOLV      236             0.0000000000
       829       248  TIP3      OH2           -22.5678049752      -16.7586593232      -17.5973971492  SOLV      237             0.0000000000
       830       248  TIP3      H1            -22.4910849752      -17.1845893232      -16.7436271492  SOLV      237             0.0000000000
       831       248  TIP3      H2            -21.6741449752      -16.7451893232      -17.9400471492  SOLV      237             0.0000000000
       832       249  TIP3      OH2           -19.3916949752       -0.6860293232      -18.9049771492  SOLV      238             0.0000000000
       833       249  TIP3      H1            -20.1735049752       -0.8722293232      -19.4249171492  SOLV      238             0.0000000000
       834       249  TIP3      H2            -19.4637049752        0.2434006768      -18.6877271492  SOLV      238             0.0000000000
       835       250  TIP3      OH2            -4.9856549752       -6.7995893232      -28.8742571492  SOLV      239             0.0000000000
       836       250  TIP3      H1             -4.8965449752       -5.8557693232      -29.0065471492  SOLV      239             0.0000000000
       837       250  TIP3      H2             -5.6238949752       -7.0749493232      -29.5323171492  SOLV      239             0.0000000000
       838       251  TIP3      OH2            -6.0525249752       -7.5445193232      -25.4554371492  SOLV      240             0.0000000000
       839       251  TIP3      H1             -6.0907749752       -8.1908893232      -24.7504771492  SOLV      240             0.0000000000
       840       251  TIP3      H2             -6.3748749752       -8.0110793232      -26.2265671492  SOLV      240             0.0000000000
       841       252  TIP3      OH2           -13.6840249752       -7.9303093232      -23.8624471492  SOLV      241             0.0000000000
       842       252  TIP3      H1            -13.6428149752       -8.5559793232      -23.1392071492  SOLV      241             0.0000000000
       843       252  TIP3      H2            -12.9812549752       -7.3064493232      -23.6804071492  SOLV      241             0.0000000000
       844       253  TIP3      OH2            -2.3465049752       -4.6054793232      -27.1539271492  SOLV      242             0.0000000000
       845       253  TIP3      H1             -2.7872349752       -5.3258793232      -26.7033671492  SOLV      242             0.0000000000
       846       253  TIP3      H2             -2.3595349752       -3.8847593232      -26.5241571492  SOLV      242             0.0000000000
       847       254  TIP3      OH2           -12.7607149752       -3.4804193232      -25.3275371492  SOLV      243             0.0000000000
       848       254  TIP3      H1            -13.1301949752       -4.2823693232      -25.6971071492  SOLV      243             0.0000000000
       849       254  TIP3      H2            -11.8196049752       -3.6489293232      -25.2811971492  SOLV      243             0.0000000000
       850       255  TIP3      OH2            -5.2349549752        0.4986906768      -26.9418871492  SOLV      244             0.0000000000
       851       255  TIP3      H1             -4.6153149752       -0.1778393232      -27.2149671492  SOLV      244             0.0000000000
       852       255  TIP3      H2             -5.4432149752        0.2807706768      -26.0333971492  SOLV      244             0.0000000000
       853       256  TIP3      OH2            -7.6630849752       -5.1123793232      -25.0493371492  SOLV      245             0.0000000000
       854       256  TIP3      H1             -7.3592949752       -5.7982393232      -25.6439271492  SOLV      245             0.0000000000
       855       256  TIP3      H2             -6.9416849752       -4.9935093232      -24.4315371492  SOLV      245             0.0000000000
       856       257  TIP3      OH2             0.9998950248      -13.5108493232      -24.1887171492  SOLV      246             0.0000000000
       857       257  TIP3      H1              1.0491150248      -12.9007293232      -23.4528071492  SOLV      246             0.0000000000
       858       257  TIP3      H2              1.4254050248      -13.0497593232      -24.9116071492  SOLV      246             0.0000000000
       859       258  TIP3      OH2            -4.5223849752      -10.7181393232      -24.7218571492  SOLV      247             0.0000000000
       860       258  TIP3      H1             -4.3797949752      -11.6644393232      -24.7016971492  SOLV      247             0.0000000000
       861       258  TIP3      H2             -4.6284849752      -10.5111593232      -25.6503671492  SOLV      247             0.0000000000
       862       259  TIP3      OH2           -11.3675549752      -12.6164993232      -27.4493771492  SOLV      248             0.0000000000
       863       259  TIP3      H1            -11.3244449752      -11.7566493232      -27.8677471492  SOLV      248             0.0000000000
       864       259  TIP3      H2            -11.8251449752      -13.1690293232      -28.0830571492  SOLV      248             0.0000000000
       865       260  TIP3      OH2            -3.6452849752      -12.4859393232      -29.0485471492  SOLV      249             0.0000000000
       866       260  TIP3      H1             -2.9988549752      -12.8146193232      -28.4237871492  SOLV      249             0.0000000000
       867       260  TIP3      H2             -3.1353449752      -11.9680393232      -29.6714071492  SOLV      249             0.0000000000
       868       261  TIP3      OH2           -14.7474049752      -10.2199193232      -26.6872371492  SOLV      250             0.0000000000
       869       261  TIP3      H1            -14.0937449752      -10.7697493232      -26.2552271492  SOLV      250             0.0000000000
       870       261  TIP3      H2            -14.7234749752      -10.4940193232      -27.6040371492  SOLV      250             0.0000000000
       871       262  TIP3      OH2            -9.5909549752       -8.6697893232      -27.4720871492  SOLV      251             0.0000000000
       872       262  TIP3      H1             -8.9748549752       -9.1962493232      -26.9626871492  SOLV      251             0.0000000000
       873       262  TIP3      H2            -10.1770749752       -9.3099193232      -27.8757271492  SOLV      251             0.0000000000
       874       263  TIP3      OH2             1.3913550248      -12.0329293232      -21.9527371492  SOLV      252             0.0000000000
       875       263  TIP3      H1              0.7028150248      -11.3748593232      -22.0480771492  SOLV      252             0.0000000000
       876       263  TIP3      H2              1.4068150248      -12.2301393232      -21.0161971492  SOLV      252             0.0000000000
       877       264  TIP3      OH2           -12.5573649752      -13.6986593232      -23.3752971492  SOLV      253             0.0000000000
       878       264  TIP3      H1            -12.7761949752      -13.1685993232      -24.1416971492  SOLV      253             0.0000000000
       879       264  TIP3      H2            -13.2252749752      -13.4721093232      -22.7281571492  SOLV      253             0.0000000000
       880       265  TIP3      OH2            -5.1883849752       -4.1985493232      -29.8313871492  SOLV      254             0.0000000000
       881       265  TIP3      H1             -5.4838749752       -4.5213193232      -30.6826971492  SOLV      254             0.0000000000
       882       265  TIP3      H2             -5.5126049752       -3.2988793232      -29.7901271492  SOLV      254             0.0000000000
       883       266  TIP3      OH2            -9.9882249752       -6.0230893232      -23.0879271492  SOLV      255             0.0000000000
       884       266  TIP3      H1            -10.7283149752       -5.4249393232      -22.9844071492  SOLV      255             0.0000000000
       885       266  TIP3      H2             -9.2742749752       -5.4691293232      -23.4035671492  SOLV      255             0.0000000000
       886       267  TIP3      OH2            -1.8814449752      -13.1950093232      -27.0679571492  SOLV      256             0.0000000000
       887       267  TIP3      H1             -2.0966449752      -13.9606693232      -26.5353571492  SOLV      256             0.0000000000
       888       267  TIP3      H2             -1.2257049752      -12.7225493232      -26.5551071492  SOLV      256             0.0000000000
       889       268  TIP3      OH2           -12.9636349752      -11.8064793232      -25.4230771492  SOLV      257             0.0000000000
       890       268  TIP3      H1            -12.3500049752      -11.1737193232      -25.0498371492  SOLV      257             0.0000000000
       891       268  TIP3      H2            -12.4515649752      -12.2789793232      -26.0793871492  SOLV      257             0.0000000000
       892       269  TIP3      OH2           -11.5807949752       -4.0587893232      -22.3007771492  SOLV      258             0.0000000000
       893       269  TIP3      H1            -11.5860349752       -3.1794393232      -22.6788471492  SOLV      258             0.0000000000
       894       269  TIP3      H2            -12.4343849752       -4.1423793232      -21.8757871492  SOLV      258             0.0000000000
       895       270  TIP3      OH2            -1.8347349752       -2.7664093232      -24.8059971492  SOLV      259             0.0000000000
       896       270  TIP3      H1             -2.7763649752       -2.7080193232      -24.6443071492  SOLV      259             0.0000000000
       897       270  TIP3      H2             -1.5581249752       -1.8603593232      -24.9430271492  SOLV      259             0.0000000000
       898       271  TIP3      OH2            -1.5340349752      -14.4798793232      -23.3886071492  SOLV      260             0.0000000000
       899       271  TIP3      H1             -2.2701149752      -13.8691693232      -23.4264771492  SOLV      260             0.0000000000
       900       271  TIP3      H2             -0.8506349752      -14.0649793232      -23.9149671492  SOLV      260             0.0000000000
       901       272  TIP3      OH2            -8.5308949752      -16.3931493232      -25.9228071492  SOLV      261             0.0000000000
       902       272  TIP3      H1             -8.6484749752      -17.3415493232      -25.9769771492  SOLV      261             0.0000000000
       903       272  TIP3      H2             -9.3858849752      -16.0605393232      -25.6496971492  SOLV      261             0.0000000000
       904       273  TIP3      OH2            -3.5826149752       -0.9850593232      -28.1808371492  SOLV      262             0.0000000000
       905       273  TIP3      H1             -3.1573849752       -1.6922693232      -28.6658771492  SOLV      262             0.0000000000
       906       273  TIP3      H2             -3.2656149752       -0.1837893232      -28.5976171492  SOLV      262             0.0000000000
       907       274  TIP3      OH2            -2.4229649752       -3.0842093232      -29.6721771492  SOLV      263             0.0000000000
       908       274  TIP3      H1             -2.6804849752       -3.7741993232      -30.2835871492  SOLV      263             0.0000000000
       909       274  TIP3      H2             -2.3518849752       -3.5270893232      -28.8265871492  SOLV      263             0.0000000000
       910       275  TIP3      OH2            -0.7369449752       -4.5175393232      -21.1948271492  SOLV      264             0.0000000000
       911       275  TIP3      H1             -0.5973149752       -5.1092893232      -21.9341271492  SOLV      264             0.0000000000
       912       275  TIP3      H2             -0.5696649752       -3.6449493232      -21.5509471492  SOLV      264             0.0000000000
       913       276  TIP3      OH2            -6.2644049752       -7.5555893232      -31.4222271492  SOLV      265             0.0000000000
       914       276  TIP3      H1             -6.9758549752       -7.0206193232      -31.7741771492  SOLV      265             0.0000000000
       915       276  TIP3      H2             -5.5734449752       -7.5003793232      -32.0823371492  SOLV      265             0.0000000000
       916       277  TIP3      OH2             1.1049850248       -8.1777393232      -23.1287871492  SOLV      266             0.0000000000
       917       277  TIP3      H1              0.4523950248       -7.4831793232      -23.0396971492  SOLV      266             0.0000000000
       918       277  TIP3      H2              1.5700150248       -7.9676493232      -23.9386271492  SOLV      266             0.0000000000
       919       278  TIP3      OH2            -2.8586349752       -7.3462593232      -30.4706371492  SOLV      267             0.0000000000
       920       278  TIP3      H1             -3.5905349752       -7.1178893232      -29.8975771492  SOLV      267             0.0000000000
       921       278  TIP3      H2             -2.4114149752       -8.0599893232      -30.0158871492  SOLV      267             0.0000000000
       922       279  TIP3      OH2            -2.9612849752       -9.1719993232      -21.4029371492  SOLV      268             0.0000000000
       923       279  TIP3      H1             -2.8813749752       -8.4085593232      -20.8310871492  SOLV      268             0.0000000000
       924       279  TIP3      H2             -3.5625149752       -8.8927593232      -22.0934271492  SOLV      268             0.0000000000
       925       280  TIP3      OH2           -11.2132649752       -6.7156393232      -28.5881371492  SOLV      269             0.0000000000
       926       280  TIP3      H1            -11.5437449752       -7.0862993232      -29.4064371492  SOLV      269             0.0000000000
       927       280  TIP3      H2            -10.6248549752       -7.3862393232      -28.2413071492  SOLV      269             0.0000000000
       928       281  TIP3      OH2            -9.8465149752       -3.2875793232      -25.9069171492  SOLV      270             0.0000000000
       929       281  TIP3      H1             -9.9413849752       -3.8662693232      -26.6634571492  SOLV      270             0.0000000000
       930       281  TIP3      H2             -9.1171549752       -3.6590093232      -25.4106371492  SOLV      270             0.0000000000
       931       282  TIP3      OH2           -10.8467149752       -7.9470793232      -24.9546371492  SOLV      271             0.0000000000
       932       282  TIP3      H1            -10.2814649752       -7.8256593232      -25.7175171492  SOLV      271             0.0000000000
       933       282  TIP3      H2            -10.5278249752       -7.3095793232      -24.3157871492  SOLV      271             0.0000000000
       934       283  TIP3      OH2            -4.5374949752       -2.4438893232      -24.2205871492  SOLV      272             0.0000000000
       935       283  TIP3      H1             -4.7778349752       -1.7815793232      -23.5726671492  SOLV      272             0.0000000000
       936       283  TIP3      H2             -4.7356749752       -3.2783693232      -23.7956271492  SOLV      272             0.0000000000
       937       284  TIP3      OH2            -9.9666449752       -3.5478093232      -20.2374471492  SOLV      273             0.0000000000
       938       284  TIP3      H1            -10.2778949752       -2.7654893232      -19.7821271492  SOLV      273             0.0000000000
       939       284  TIP3      H2            -10.6166249752       -3.7008993232      -20.9232471492  SOLV      273             0.0000000000
       940       285  TIP3      OH2            -3.9876849752       -8.1839693232      -32.7855171492  SOLV      274             0.0000000000
       941       285  TIP3      H1             -3.4081349752       -8.0339393232      -32.0386271492  SOLV      274             0.0000000000
       942       285  TIP3      H2             -3.5736849752       -7.7132293232      -33.5088771492  SOLV      274             0.0000000000
       943       286  TIP3      OH2           -13.0466549752       -7.3496993232      -21.0088771492  SOLV      275             0.0000000000
       944       286  TIP3      H1            -12.9763349752       -6.6990193232      -20.3103771492  SOLV      275             0.0000000000
       945       286  TIP3      H2            -13.9374349752       -7.2469493232      -21.3437871492  SOLV      275             0.0000000000
       946       287  TIP3      OH2            -6.2611949752       -1.4471193232      -29.3502071492  SOLV      276             0.0000000000
       947       287  TIP3      H1             -5.7874349752       -1.1514893232      -28.5727871492  SOLV      276             0.0000000000
       948       287  TIP3      H2             -6.8242649752       -0.7089593232      -29.5832471492  SOLV      276             0.0000000000
       949       288  TIP3      OH2           -11.7270549752       -1.4763093232      -19.4740671492  SOLV      277             0.0000000000
       950       288  TIP3      H1            -11.7195249752       -1.6123393232      -20.4215171492  SOLV      277             0.0000000000
       951       288  TIP3      H2            -12.6430149752       -1.5934993232      -19.2220671492  SOLV      277             0.0000000000
       952       289  TIP3      OH2             0.9002950248       -2.0676893232      -34.5961571492  SOLV      278             0.0000000000
       953       289  TIP3      H1              0.9736450248       -1.1286693232      -34.4256271492  SOLV      278             0.0000000000
       954       289  TIP3      H2              1.8058050248       -2.3728293232      -34.6524271492  SOLV      278             0.0000000000
       955       290  TIP3      OH2           -16.1299849752       -5.2832893232      -22.1838771492  SOLV      279             0.0000000000
       956       290  TIP3      H1            -16.6311449752       -5.3113493232      -22.9989071492  SOLV      279             0.0000000000
       957       290  TIP3      H2            -16.1246149752       -6.1889693232      -21.8741471492  SOLV      279             0.0000000000
       958       291  TIP3      OH2           -16.3797149752       -2.5029093232      -25.2998571492  SOLV      280             0.0000000000
       959       291  TIP3      H1            -15.4336549752       -2.6472093232      -25.3189071492  SOLV      280             0.0000000000
       960       291  TIP3      H2            -16.4920849752       -1.7186293232      -24.7627371492  SOLV      280             0.0000000000
       961       292  TIP3      OH2             1.8181350248       -1.8369393232      -19.6174871492  SOLV      281             0.0000000000
       962       292  TIP3      H1              1.7688150248       -2.7921293232      -19.6547271492  SOLV      281             0.0000000000
       963       292  TIP3      H2              0.9913650248       -1.5694093232      -19.2161071492  SOLV      281             0.0000000000
       964       293  TIP3      OH2            -7.2034649752       -2.2630193232      -20.7413471492  SOLV      282             0.0000000000
       965       293  TIP3      H1             -7.1160049752       -1.4365593232      -20.2664371492  SOLV      282             0.0000000000
       966       293  TIP3      H2             -8.0669549752       -2.5926393232      -20.4924171492  SOLV      282             0.0000000000
       967       294  TIP3      OH2            -6.7888849752        1.5093506768      -30.9352871492  SOLV      283             0.0000000000
       968       294  TIP3      H1             -6.8642849752        1.3880706768      -31.8817671492  SOLV      283             0.0000000000
       969       294  TIP3      H2             -6.7560149752        2.4586206768      -30.8168271492  SOLV      283             0.0000000000
       970       295  TIP3      OH2           -13.1355049752        0.2980506768      -29.1543871492  SOLV      284             0.0000000000
       971       295  TIP3      H1            -12.9834649752       -0.0499093232      -28.2757371492  SOLV      284             0.0000000000
       972       295  TIP3      H2            -13.9864649752       -0.0582193232      -29.4096671492  SOLV      284             0.0000000000
       973       296  TIP3      OH2            -3.6872849752        0.6633706768      -33.9330471492  SOLV      285             0.0000000000
       974       296  TIP3      H1             -3.3124449752       -0.0810193232      -34.4037871492  SOLV      285             0.0000000000
       975       296  TIP3      H2             -3.6829149752        0.3934306768      -33.0147171492  SOLV      285             0.0000000000
       976       297  TIP3      OH2            -4.0184749752        0.5890806768      -31.1838271492  SOLV      286             0.0000000000
       977       297  TIP3      H1             -4.9534949752        0.6892706768      -31.0051271492  SOLV      286             0.0000000000
       978       297  TIP3      H2             -3.7382849752       -0.1203193232      -30.6055071492  SOLV      286             0.0000000000
       979       298  TIP3      OH2            -1.0298849752      -10.3436893232      -19.1372671492  SOLV      287             0.0000000000
       980       298  TIP3      H1             -1.4372049752       -9.8631293232      -19.8579371492  SOLV      287             0.0000000000
       981       298  TIP3      H2             -0.9893149752      -11.2490893232      -19.4451871492  SOLV      287             0.0000000000
       982       299  TIP3      OH2           -13.8809349752       -3.9597493232      -21.1405971492  SOLV      288             0.0000000000
       983       299  TIP3      H1            -13.6648049752       -4.3211893232      -20.2810171492  SOLV      288             0.0000000000
       984       299  TIP3      H2            -14.7364649752       -4.3343693232      -21.3502471492  SOLV      288             0.0000000000
       985       300  TIP3      OH2           -11.2621349752      -15.4896993232      -25.1451771492  SOLV      289             0.0000000000
       986       300  TIP3      H1            -12.1237649752      -15.5768793232      -25.5528871492  SOLV      289             0.0000000000
       987       300  TIP3      H2            -11.2845649752      -14.6336893232      -24.7174171492  SOLV      289             0.0000000000
       988       301  TIP3      OH2            -6.5993549752      -15.7676593232      -21.7704771492  SOLV      290             0.0000000000
       989       301  TIP3      H1             -6.1790449752      -16.1829493232      -21.0174171492  SOLV      290             0.0000000000
       990       301  TIP3      H2             -7.5323949752      -15.9463293232      -21.6532771492  SOLV      290             0.0000000000
       991       302  TIP3      OH2            -3.2728649752      -12.0121393232      -20.9170271492  SOLV      291             0.0000000000
       992       302  TIP3      H1             -3.7869149752      -12.1379193232      -20.1194271492  SOLV      291             0.0000000000
       993       302  TIP3      H2             -3.4283949752      -11.0998293232      -21.1614071492  SOLV      291             0.0000000000
       994       303  TIP3      OH2            -2.5103749752       -7.1511393232      -35.1557271492  SOLV      292             0.0000000000
       995       303  TIP3      H1             -2.4682949752       -7.3737493232      -36.0857271492  SOLV      292             0.0000000000
       996       303  TIP3      H2             -1.6611649752       -6.7524293232      -34.9657371492  SOLV      292             0.0000000000
       997       304  TIP3      OH2           -11.1711249752      -10.5242493232      -24.0501571492  SOLV      293             0.0000000000
       998       304  TIP3      H1            -11.8129149752      -10.5645193232      -23.3411471492  SOLV      293             0.0000000000
       999       304  TIP3      H2            -11.1339249752       -9.5977793232      -24.2878571492  SOLV      293             0.0000000000
      1000       305  TIP3      OH2            -5.6386649752       -9.8872093232      -30.3210771492  SOLV      294             0.0000000000
      1001       305  TIP3      H1             -6.0476349752       -9.0723493232      -30.6125971492  SOLV      294             0.0000000000
      1002       305  TIP3      H2             -4.9180449752      -10.0271993232      -30.9353671492  SOLV      294             0.0000000000
      1003       306  TIP3      OH2            -6.5365049752       -9.7115693232      -18.8330071492  SOLV      295             0.0000000000
      1004       306  TIP3      H1             -7.0991249752      -10.4164093232      -18.5122271492  SOLV      295             0.0000000000
      1005       306  TIP3      H2             -5.7101649752       -9.8323793232      -18.3652471492  SOLV      295             0.0000000000
      1006       307  TIP3      OH2            -4.6338949752      -10.4411693232      -27.5071071492  SOLV      296             0.0000000000
      1007       307  TIP3      H1             -4.8294449752       -9.8354893232      -28.2220471492  SOLV      296             0.0000000000
      1008       307  TIP3      H2             -4.4526349752      -11.2746493232      -27.9414771492  SOLV      296             0.0000000000
      1009       308  TIP3      OH2           -13.4210749752      -10.2038993232      -22.1829571492  SOLV      297             0.0000000000
      1010       308  TIP3      H1            -13.4591349752       -9.8037393232      -21.3142471492  SOLV      297             0.0000000000
      1011       308  TIP3      H2            -13.9119649752      -11.0206593232      -22.0926671492  SOLV      297             0.0000000000
      1012       309  TIP3      OH2            -5.3699749752       -8.8030393232      -22.8358671492  SOLV      298             0.0000000000
      1013       309  TIP3      H1             -5.0464949752       -9.4340693232      -23.4788171492  SOLV      298             0.0000000000
      1014       309  TIP3      H2             -5.8100449752       -9.3378193232      -22.1751271492  SOLV      298             0.0000000000
      1015       310  TIP3      OH2            -8.5926849752      -12.8754893232      -28.0517471492  SOLV      299             0.0000000000
      1016       310  TIP3      H1             -9.5035749752      -12.8188093232      -27.7631471492  SOLV      299             0.0000000000
      1017       310  TIP3      H2             -8.0873949752      -12.9359393232      -27.2410271492  SOLV      299             0.0000000000
      1018       311  TIP3      OH2            -4.1874949752      -13.6408593232      -24.7875671492  SOLV      300             0.0000000000
      1019       311  TIP3      H1             -4.8643349752      -13.5095493232      -24.1235971492  SOLV      300             0.0000000000
      1020       311  TIP3      H2             -4.6730049752      -13.7959093232      -25.5977971492  SOLV      300             0.0000000000
      1021       312  TIP3      OH2            -0.8999849752        2.0306806768      -18.5108071492  SOLV      301             0.0000000000
      1022       312  TIP3      H1             -0.7001149752        2.4548706768      -19.3452771492  SOLV      301             0.0000000000
      1023       312  TIP3      H2             -0.2446149752        2.3745006768      -17.9037671492  SOLV      301             0.0000000000
      1024       313  TIP3      OH2           -13.3020049752       -5.4951893232      -18.9027571492  SOLV      302             0.0000000000
      1025       313  TIP3      H1            -12.5697649752       -5.2405993232      -18.3413071492  SOLV      302             0.0000000000
      1026       313  TIP3      H2            -14.0821349752       -5.2906493232      -18.3872171492  SOLV      302             0.0000000000
      1027       314  TIP3      OH2            -7.2727149752      -10.0881893232      -26.1647871492  SOLV      303             0.0000000000
      1028       314  TIP3      H1             -6.7083749752      -10.6345293232      -26.7118271492  SOLV      303             0.0000000000
      1029       314  TIP3      H2             -7.4203749752      -10.6099993232      -25.3760271492  SOLV      303             0.0000000000
      1030       315  TIP3      OH2            -8.6461249752      -11.6995793232      -23.7507471492  SOLV      304             0.0000000000
      1031       315  TIP3      H1             -9.4815949752      -11.2456293232      -23.6405071492  SOLV      304             0.0000000000
      1032       315  TIP3      H2             -8.1220649752      -11.4237293232      -22.9987571492  SOLV      304             0.0000000000
      1033       316  TIP3      OH2            -8.1018649752       -5.4868093232      -32.0661071492  SOLV      305             0.0000000000
      1034       316  TIP3      H1             -8.8467649752       -5.9942793232      -32.3883171492  SOLV      305             0.0000000000
      1035       316  TIP3      H2             -8.2361449752       -5.4380093232      -31.1196271492  SOLV      305             0.0000000000
      1036       317  TIP3      OH2            -0.9519749752       -6.3539893232      -23.2793471492  SOLV      306             0.0000000000
      1037       317  TIP3      H1             -0.3100949752       -5.8973593232      -23.8231271492  SOLV      306             0.0000000000
      1038       317  TIP3      H2             -1.7822849752       -6.2407493232      -23.7419371492  SOLV      306             0.0000000000
      1039       318  TIP3      OH2            -6.5826549752       -5.3024793232      -20.8291971492  SOLV      307             0.0000000000
      1040       318  TIP3      H1             -6.9280449752       -5.6842393232      -20.0222371492  SOLV      307             0.0000000000
      1041       318  TIP3      H2             -6.7826449752       -4.3691193232      -20.7579071492  SOLV      307             0.0000000000
      1042       319  TIP3      OH2            -3.4858349752      -10.8055493232      -32.2061071492  SOLV      308             0.0000000000
      1043       319  TIP3      H1             -2.5939349752      -10.9430493232      -31.8869871492  SOLV      308             0.0000000000
      1044       319  TIP3      H2             -3.4294749752      -10.0149393232      -32.7427571492  SOLV      308             0.0000000000
      1045       320  TIP3      OH2           -12.9770349752       -6.1918093232      -26.2963171492  SOLV      309             0.0000000000
      1046       320  TIP3      H1            -12.2323149752       -6.1942393232      -26.8976671492  SOLV      309             0.0000000000
      1047       320  TIP3      H2            -12.8993749752       -7.0154293232      -25.8148071492  SOLV      309             0.0000000000
      1048       321  TIP3      OH2            -5.9764549752       -4.0283793232      -33.0406471492  SOLV      310             0.0000000000
      1049       321  TIP3      H1             -6.2716149752       -3.2015893232      -32.6591671492  SOLV      310             0.0000000000
      1050       321  TIP3      H2             -6.6794549752       -4.6476893232      -32.8445071492  SOLV      310             0.0000000000
      1051       322  TIP3      OH2           -15.9690649752       -7.7311193232      -20.9814671492  SOLV      311             0.0000000000
      1052       322  TIP3      H1            -15.7462049752       -8.1491593232      -20.1497171492  SOLV      311             0.0000000000
      1053       322  TIP3      H2            -16.5710549752       -8.3436193232      -21.4041871492  SOLV      311             0.0000000000
      1054       323  TIP3      OH2            -8.9525749752       -8.2141293232      -18.7684971492  SOLV      312             0.0000000000
      1055       323  TIP3      H1             -9.2484949752       -8.3798293232      -19.6635871492  SOLV      312             0.0000000000
      1056       323  TIP3      H2             -8.0210549752       -8.4340993232      -18.7791071492  SOLV      312             0.0000000000
      1057       324  TIP3      OH2            -4.3322949752       -2.8409293232      -20.8786971492  SOLV      313             0.0000000000
      1058       324  TIP3      H1             -5.2328649752       -2.6576693232      -21.1463071492  SOLV      313             0.0000000000
      1059       324  TIP3      H2             -4.2981849752       -2.5819993232      -19.9578171492  SOLV      313             0.0000000000
      1060       325  TIP3      OH2             1.3990350248      -10.5961393232      -32.5114371492  SOLV      314             0.0000000000
      1061       325  TIP3      H1              0.8446650248      -10.9923393232      -33.1836871492  SOLV      314             0.0000000000
      1062       325  TIP3      H2              1.4993950248       -9.6856193232      -32.7891071492  SOLV      314             0.0000000000
      1063       326  TIP3      OH2             1.3622350248       -4.7959693232      -19.6742871492  SOLV      315             0.0000000000
      1064       326  TIP3      H1              0.5110850248       -4.5575893232      -20.0416471492  SOLV      315             0.0000000000
      1065       326  TIP3      H2              1.9525750248       -4.8126493232      -20.4275771492  SOLV      315             0.0000000000
      1066       327  TIP3      OH2            -0.3057949752       -1.8100993232      -32.0462271492  SOLV      316             0.0000000000
      1067       327  TIP3      H1             -0.6786849752       -2.6357193232      -31.7371671492  SOLV      316             0.0000000000
      1068       327  TIP3      H2             -0.0284449752       -1.9931593232      -32.9438871492  SOLV      316             0.0000000000
      1069       328  TIP3      OH2            -3.1454049752       -7.0021493232      -25.0250371492  SOLV      317             0.0000000000
      1070       328  TIP3      H1             -4.0737149752       -7.2339593232      -25.0521071492  SOLV      317             0.0000000000
      1071       328  TIP3      H2             -2.6942949752       -7.7791693232      -25.3551571492  SOLV      317             0.0000000000
      1072       329  TIP3      OH2           -10.6020949752       -2.6739893232      -28.8921671492  SOLV      318             0.0000000000
      1073       329  TIP3      H1            -10.0748749752       -1.9005493232      -29.0922871492  SOLV      318             0.0000000000
      1074       329  TIP3      H2            -11.4822449752       -2.4490693232      -29.1937671492  SOLV      318             0.0000000000
      1075       330  TIP3      OH2            -9.1748649752       -5.0109993232      -29.3157371492  SOLV      319             0.0000000000
      1076       330  TIP3      H1             -9.4158649752       -4.0855593232      -29.2742071492  SOLV      319             0.0000000000
      1077       330  TIP3      H2             -9.9155049752       -5.4698693232      -28.9193471492  SOLV      319             0.0000000000
      1078       331  TIP3      OH2            -8.6602049752       -0.8616393232      -23.0006271492  SOLV      320             0.0000000000
      1079       331  TIP3      H1             -8.2977349752       -0.0070793232      -23.2341871492  SOLV      320             0.0000000000
      1080       331  TIP3      H2             -8.1286849752       -1.1534793232      -22.2599971492  SOLV      320             0.0000000000
      1081       332  TIP3      OH2           -10.4917849752        0.0107606768      -29.7705171492  SOLV      321             0.0000000000
      1082       332  TIP3      H1            -11.4417349752        0.1165006768      -29.7191871492  SOLV      321             0.0000000000
      1083       332  TIP3      H2            -10.1399749752        0.8315006768      -29.4257671492  SOLV      321             0.0000000000
      1084       333  TIP3      OH2            -5.1161249752       -4.7625693232      -23.3000671492  SOLV      322             0.0000000000
      1085       333  TIP3      H1             -5.5419949752       -4.9903993232      -22.4736671492  SOLV      322             0.0000000000
      1086       333  TIP3      H2             -4.5355449752       -5.5013893232      -23.4825371492  SOLV      322             0.0000000000
      1087       334  TIP3      OH2            -2.9132349752       -3.8335193232      -34.2261671492  SOLV      323             0.0000000000
      1088       334  TIP3      H1             -2.5599249752       -4.2135393232      -33.4218171492  SOLV      323             0.0000000000
      1089       334  TIP3      H2             -3.8618849752       -3.9270393232      -34.1392371492  SOLV      323             0.0000000000
      1090       335  TIP3      OH2            -2.4577049752       -0.2106193232      -20.8305871492  SOLV      324             0.0000000000
      1091       335  TIP3      H1             -3.0593849752       -0.7663293232      -21.3259571492  SOLV      324             0.0000000000
      1092       335  TIP3      H2             -2.1763349752        0.4563606768      -21.4568471492  SOLV      324             0.0000000000
      1093       336  TIP3      OH2             1.5902050248        0.6457306768      -34.0251471492  SOLV      325             0.0000000000
      1094       336  TIP3      H1              2.3339950248        1.2317806768      -34.1649871492  SOLV      325             0.0000000000
      1095       336  TIP3      H2              0.8960150248        1.2143106768      -33.6919071492  SOLV      325             0.0000000000
      1096       337  TIP3      OH2           -14.3351149752      -12.9778493232      -21.4233271492  SOLV      326             0.0000000000
      1097       337  TIP3      H1            -15.2278849752      -12.6393093232      -21.4909271492  SOLV      326             0.0000000000
      1098       337  TIP3      H2            -14.4338349752      -13.8332393232      -21.0052471492  SOLV      326             0.0000000000
      1099       338  TIP3      OH2            -2.0473049752       -5.1613193232      -31.9993771492  SOLV      327             0.0000000000
      1100       338  TIP3      H1             -2.3245449752       -5.8893893232      -31.4432671492  SOLV      327             0.0000000000
      1101       338  TIP3      H2             -1.1200049752       -5.0421193232      -31.7941171492  SOLV      327             0.0000000000
      1102       339  TIP3      OH2           -14.6839149752       -1.1734093232      -22.9883871492  SOLV      328             0.0000000000
      1103       339  TIP3      H1            -14.4668849752       -2.1051693232      -23.0194171492  SOLV      328             0.0000000000
      1104       339  TIP3      H2            -14.4375649752       -0.8989093232      -22.1051071492  SOLV      328             0.0000000000
      1105       340  TIP3      OH2            -9.8853949752       -3.1515293232      -33.3229071492  SOLV      329             0.0000000000
      1106       340  TIP3      H1             -9.7385949752       -3.6715493232      -32.5328171492  SOLV      329             0.0000000000
      1107       340  TIP3      H2             -9.8882249752       -2.2447693232      -33.0163171492  SOLV      329             0.0000000000
      1108       341  TIP3      OH2            -5.6007749752      -13.2368193232      -22.5334671492  SOLV      330             0.0000000000
      1109       341  TIP3      H1             -4.9019849752      -13.1629493232      -21.8834971492  SOLV      330             0.0000000000
      1110       341  TIP3      H2             -5.9816349752      -14.1013193232      -22.3791771492  SOLV      330             0.0000000000
      1111       342  TIP3      OH2            -4.8162849752      -13.5846493232      -31.4362371492  SOLV      331             0.0000000000
      1112       342  TIP3      H1             -4.5964549752      -13.1131093232      -32.2396971492  SOLV      331             0.0000000000
      1113       342  TIP3      H2             -4.2578849752      -13.1903893232      -30.7661771492  SOLV      331             0.0000000000
      1114       343  TIP3      OH2            -7.1476749752       -1.4541693232      -32.5734871492  SOLV      332             0.0000000000
      1115       343  TIP3      H1             -7.9640649752       -0.9571993232      -32.5210571492  SOLV      332             0.0000000000
      1116       343  TIP3      H2             -6.6180449752       -0.9788193232      -33.2136071492  SOLV      332             0.0000000000
      1117       344  TIP3      OH2            -7.6162949752      -11.8567693232      -30.6013971492  SOLV      333             0.0000000000
      1118       344  TIP3      H1             -6.8040349752      -11.3524493232      -30.5552271492  SOLV      333             0.0000000000
      1119       344  TIP3      H2             -7.8609949752      -12.0017993232      -29.6874371492  SOLV      333             0.0000000000
      1120       345  TIP3      OH2            -7.0806549752      -10.8704993232      -21.4167371492  SOLV      334             0.0000000000
      1121       345  TIP3      H1             -6.9616249752      -10.2969593232      -20.6596971492  SOLV      334             0.0000000000
      1122       345  TIP3      H2             -6.4251949752      -11.5585593232      -21.3019571492  SOLV      334             0.0000000000
      1123       346  TIP3      OH2            -6.7326249752      -14.7754693232      -29.6632871492  SOLV      335             0.0000000000
      1124       346  TIP3      H1             -7.0792749752      -14.1584093232      -29.0188571492  SOLV      335             0.0000000000
      1125       346  TIP3      H2             -6.0739349752      -14.2748993232      -30.1447371492  SOLV      335             0.0000000000
      1126       347  TIP3      OH2            -9.8093649752       -0.4104493232      -32.5917971492  SOLV      336             0.0000000000
      1127       347  TIP3      H1             -9.6484949752        0.3893006768      -33.0925371492  SOLV      336             0.0000000000
      1128       347  TIP3      H2            -10.0065849752       -0.1038493232      -31.7067371492  SOLV      336             0.0000000000
      1129       348  TIP3      OH2            -0.8760749752      -12.9634693232      -20.5817671492  SOLV      337             0.0000000000
      1130       348  TIP3      H1             -1.7924949752      -12.7012993232      -20.6693971492  SOLV      337             0.0000000000
      1131       348  TIP3      H2             -0.5405749752      -12.9665693232      -21.4782371492  SOLV      337             0.0000000000
      1132       349  TIP3      OH2            -2.2739749752       -9.2133693232      -26.4860371492  SOLV      338             0.0000000000
      1133       349  TIP3      H1             -3.0715349752       -9.6283493232      -26.8145371492  SOLV      338             0.0000000000
      1134       349  TIP3      H2             -1.8288649752       -9.9039993232      -25.9949871492  SOLV      338             0.0000000000
      1135       350  TIP3      OH2            -1.1875149752        0.0428806768      -24.8636871492  SOLV      339             0.0000000000
      1136       350  TIP3      H1             -1.3430849752        0.7213206768      -25.5207571492  SOLV      339             0.0000000000
      1137       350  TIP3      H2             -0.2548749752        0.1148106768      -24.6606271492  SOLV      339             0.0000000000
      1138       351  TIP3      OH2           -14.7619449752       -1.8986393232      -29.9659671492  SOLV      340             0.0000000000
      1139       351  TIP3      H1            -15.5940849752       -1.4263693232      -29.9388271492  SOLV      340             0.0000000000
      1140       351  TIP3      H2            -14.2161149752       -1.3888793232      -30.5646571492  SOLV      340             0.0000000000
      1141       352  TIP3      OH2           -15.4735749752        0.7137306768      -18.6361671492  SOLV      341             0.0000000000
      1142       352  TIP3      H1            -14.9333549752        0.4971306768      -17.8762471492  SOLV      341             0.0000000000
      1143       352  TIP3      H2            -15.9547749752       -0.0916693232      -18.8259171492  SOLV      341             0.0000000000
      1144       353  TIP3      OH2           -10.8762349752       -0.3668293232      -17.0157471492  SOLV      342             0.0000000000
      1145       353  TIP3      H1            -10.1085149752       -0.8257493232      -16.6748271492  SOLV      342             0.0000000000
      1146       353  TIP3      H2            -10.8976149752       -0.5928493232      -17.9456271492  SOLV      342             0.0000000000
      1147       354  TIP3      OH2            -4.2993649752       -1.9867193232      -18.2865971492  SOLV      343             0.0000000000
      1148       354  TIP3      H1             -4.6504149752       -2.8434193232      -18.0435571492  SOLV      343             0.0000000000
      1149       354  TIP3      H2             -3.5730449752       -1.8440493232      -17.6796971492  SOLV      343             0.0000000000
      1150       355  TIP3      OH2            -2.1799849752       -1.0417793232      -35.4067671492  SOLV      344             0.0000000000
      1151       355  TIP3      H1             -1.8969449752       -1.8362593232      -34.9540771492  SOLV      344             0.0000000000
      1152       355  TIP3      H2             -1.4401949752       -0.8086793232      -35.9676571492  SOLV      344             0.0000000000
      1153       356  TIP3      OH2           -15.5666249752       -5.4758593232      -17.6817371492  SOLV      345             0.0000000000
      1154       356  TIP3      H1            -15.4225749752       -6.3777893232      -17.9680671492  SOLV      345             0.0000000000
      1155       356  TIP3      H2            -16.3388849752       -5.1896493232      -18.1695071492  SOLV      345             0.0000000000
      1156       357  TIP3      OH2            -8.9110149752       -5.5060493232      -18.2490971492  SOLV      346             0.0000000000
      1157       357  TIP3      H1             -9.2396349752       -5.2352393232      -19.1063571492  SOLV      346             0.0000000000
      1158       357  TIP3      H2             -8.7591949752       -6.4470693232      -18.3365971492  SOLV      346             0.0000000000
      1159       358  TIP3      OH2            -3.1764949752       -5.5903193232      -20.8658671492  SOLV      347             0.0000000000
      1160       358  TIP3      H1             -2.4310149752       -5.0019493232      -20.9854671492  SOLV      347             0.0000000000
      1161       358  TIP3      H2             -3.9338149752       -5.0083493232      -20.8025571492  SOLV      347             0.0000000000
      1162       359  TIP3      OH2           -14.7339749752       -8.2755293232      -18.2618071492  SOLV      348             0.0000000000
      1163       359  TIP3      H1            -14.3258549752       -9.1328693232      -18.3827471492  SOLV      348             0.0000000000
      1164       359  TIP3      H2            -14.9942149752       -8.2613993232      -17.3407771492  SOLV      348             0.0000000000
      1165       360  TIP3      OH2           -10.7869449752       -9.2669593232      -20.8875171492  SOLV      349             0.0000000000
      1166       360  TIP3      H1            -11.4053349752       -8.5922993232      -20.6070471492  SOLV      349             0.0000000000
      1167       360  TIP3      H2            -10.4428249752       -8.9455693232      -21.7208971492  SOLV      349             0.0000000000
      1168       361  TIP3      OH2            -5.7671249752       -6.7954293232      -17.6100371492  SOLV      350             0.0000000000
      1169       361  TIP3      H1             -4.8140049752       -6.7115193232      -17.6374371492  SOLV      350             0.0000000000
      1170       361  TIP3      H2             -5.9276649752       -7.5072493232      -16.9905471492  SOLV      350             0.0000000000
      1171       362  TIP3      OH2             0.3849950248       -6.5620693232      -35.5353471492  SOLV      351             0.0000000000
      1172       362  TIP3      H1              0.1114750248       -6.9865193232      -36.3485171492  SOLV      351             0.0000000000
      1173       362  TIP3      H2              0.4244050248       -5.6306193232      -35.7523071492  SOLV      351             0.0000000000
      1174       363  TIP3      OH2           -10.4475749752      -11.9118793232      -19.8052071492  SOLV      352             0.0000000000
      1175       363  TIP3      H1            -10.2974849752      -12.6407493232      -20.4072371492  SOLV      352             0.0000000000
      1176       363  TIP3      H2            -10.4453349752      -11.1347093232      -20.3639871492  SOLV      352             0.0000000000
      1177       364  TIP3      OH2           -10.0350049752      -13.5422993232      -22.3124671492  SOLV      353             0.0000000000
      1178       364  TIP3      H1             -9.4992549752      -13.0906293232      -22.9645371492  SOLV      353             0.0000000000
      1179       364  TIP3      H2            -10.8870449752      -13.6503193232      -22.7350571492  SOLV      353             0.0000000000
      1180       365  TIP3      OH2            -8.4531649752       -8.1026793232      -22.0729471492  SOLV      354             0.0000000000
      1181       365  TIP3      H1             -7.7026849752       -8.2589293232      -22.6461671492  SOLV      354             0.0000000000
      1182       365  TIP3      H2             -8.7923349752       -7.2510193232      -22.3483971492  SOLV      354             0.0000000000
      1183       366  TIP3      OH2            -4.0375449752      -10.2874993232      -17.0444171492  SOLV      355             0.0000000000
      1184       366  TIP3      H1             -3.8454149752      -11.2185593232      -17.1559671492  SOLV      355             0.0000000000
      1185       366  TIP3      H2             -3.1799149752       -9.8625493232      -17.0548771492  SOLV      355             0.0000000000
      1186       367  TIP3      OH2            -2.7208249752       -7.4989793232      -18.9671471492  SOLV      356             0.0000000000
      1187       367  TIP3      H1             -3.0023249752       -6.7895193232      -19.5447671492  SOLV      356             0.0000000000
      1188       367  TIP3      H2             -1.7783949752       -7.5716793232      -19.1180271492  SOLV      356             0.0000000000
      1189       368  TIP3      OH2           -11.9689449752      -10.7135293232      -17.8936471492  SOLV      357             0.0000000000
      1190       368  TIP3      H1            -12.7360449752      -11.2460493232      -18.1038871492  SOLV      357             0.0000000000
      1191       368  TIP3      H2            -11.2900449752      -11.0234893232      -18.4930171492  SOLV      357             0.0000000000
      1192       369  TIP3      OH2            -9.2294549752      -16.0857293232      -21.8811071492  SOLV      358             0.0000000000
      1193       369  TIP3      H1             -9.3274949752      -15.1394093232      -21.9864871492  SOLV      358             0.0000000000
      1194       369  TIP3      H2             -9.9718349752      -16.4583493232      -22.3567571492  SOLV      358             0.0000000000
      1195       370  TIP3      OH2            -7.9654049752      -11.7641893232      -18.3172671492  SOLV      359             0.0000000000
      1196       370  TIP3      H1             -8.2008649752      -11.9835193232      -17.4157771492  SOLV      359             0.0000000000
      1197       370  TIP3      H2             -8.7487149752      -11.9710693232      -18.8270171492  SOLV      359             0.0000000000
      1198       371  TIP3      OH2            -5.2497449752      -12.6368393232      -19.2419171492  SOLV      360             0.0000000000
      1199       371  TIP3      H1             -6.1972049752      -12.6048693232      -19.1095871492  SOLV      360             0.0000000000
      1200       371  TIP3      H2             -4.9370749752      -13.2621293232      -18.5880971492  SOLV      360             0.0000000000
      1201       372  TIP3      OH2            -3.6155949752      -14.0027293232      -17.2367271492  SOLV      361             0.0000000000
      1202       372  TIP3      H1             -3.7124149752      -14.9549993232      -17.2425371492  SOLV      361             0.0000000000
      1203       372  TIP3      H2             -3.9372849752      -13.7340493232      -16.3761771492  SOLV      361             0.0000000000
      1204       373  TIP3      OH2           -13.7886649752      -12.7931493232      -18.1891771492  SOLV      362             0.0000000000
      1205       373  TIP3      H1            -13.5769249752      -13.4995393232      -18.7994271492  SOLV      362             0.0000000000
      1206       373  TIP3      H2            -13.8999149752      -13.2305493232      -17.3450571492  SOLV      362             0.0000000000
      1207       374  TIP3      OH2            -9.0076449752      -16.7919893232      -19.2098271492  SOLV      363             0.0000000000
      1208       374  TIP3      H1             -8.2958049752      -17.4317693232      -19.2239171492  SOLV      363             0.0000000000
      1209       374  TIP3      H2             -9.1086049752      -16.5251593232      -20.1235171492  SOLV      363             0.0000000000
      1210       375  TIP3      OH2            -8.6538949752      -15.1091493232      -17.1561971492  SOLV      364             0.0000000000
      1211       375  TIP3      H1             -8.7856749752      -15.5847693232      -17.9763471492  SOLV      364             0.0000000000
      1212       375  TIP3      H2             -9.2531549752      -14.3647893232      -17.2114871492  SOLV      364             0.0000000000
      1213       376  TIP3      OH2            -9.1076649752        1.7738806768      -33.9797971492  SOLV      365             0.0000000000
      1214       376  TIP3      H1             -8.1745949752        1.9317506768      -33.8359571492  SOLV      365             0.0000000000
      1215       376  TIP3      H2             -9.3717849752        2.4491806768      -34.6046471492  SOLV      365             0.0000000000
      1216       377  TIP3      OH2           -16.8901149752        1.8031106768      -29.4195971492  SOLV      366             0.0000000000
      1217       377  TIP3      H1            -17.5374049752        1.3412806768      -29.9524771492  SOLV      366             0.0000000000
      1218       377  TIP3      H2            -16.5356549752        1.1314406768      -28.8369771492  SOLV      366             0.0000000000
      1219       378  TIP3      OH2           -16.0201949752       -0.1161893232      -27.6149771492  SOLV      367             0.0000000000
      1220       378  TIP3      H1            -16.3545149752       -0.9964593232      -27.4429571492  SOLV      367             0.0000000000
      1221       378  TIP3      H2            -15.7979549752        0.2293106768      -26.7504171492  SOLV      367             0.0000000000
      1222       379  TIP3      OH2             1.5282850248        0.6934506768      -24.6344971492  SOLV      368             0.0000000000
      1223       379  TIP3      H1              1.5069550248        0.8782906768      -23.6955571492  SOLV      368             0.0000000000
      1224       379  TIP3      H2              2.2189050248        1.2618506768      -24.9753571492  SOLV      368             0.0000000000
      1225       380  TIP3      OH2             1.0915750248        0.2605606768      -21.7125871492  SOLV      369             0.0000000000
      1226       380  TIP3      H1              0.6044450248       -0.4750293232      -22.0838471492  SOLV      369             0.0000000000
      1227       380  TIP3      H2              1.6408450248       -0.1330493232      -21.0346471492  SOLV      369             0.0000000000
      1228       381  TIP3      OH2            -0.4576949752       -3.9496293232      -17.0745571492  SOLV      370             0.0000000000
      1229       381  TIP3      H1             -1.3235849752       -4.0546593232      -16.6803271492  SOLV      370             0.0000000000
      1230       381  TIP3      H2             -0.0811049752       -3.1912993232      -16.6280871492  SOLV      370             0.0000000000
      1231       382  TIP3      OH2             0.8432750248       -5.6932593232      -31.5603071492  SOLV      371             0.0000000000
      1232       382  TIP3      H1              1.6934150248       -5.2721693232      -31.4331471492  SOLV      371             0.0000000000
      1233       382  TIP3      H2              0.8487850248       -6.4332493232      -30.9531671492  SOLV      371             0.0000000000
      1234       383  TIP3      OH2             1.2378350248       -7.6395193232      -29.7367371492  SOLV      372             0.0000000000
      1235       383  TIP3      H1              0.5112950248       -8.1192593232      -29.3389771492  SOLV      372             0.0000000000
      1236       383  TIP3      H2              1.8191650248       -7.4340493232      -29.0045771492  SOLV      372             0.0000000000
      1237       384  TIP3      OH2             0.9969550248       -4.8547693232      -24.7889771492  SOLV      373             0.0000000000
      1238       384  TIP3      H1              1.8303750248       -5.2327693232      -25.0696171492  SOLV      373             0.0000000000
      1239       384  TIP3      H2              1.1089850248       -3.9116493232      -24.9080671492  SOLV      373             0.0000000000
      1240       385  TIP3      OH2            -0.5168149752       -1.9770193232      -22.4821371492  SOLV      374             0.0000000000
      1241       385  TIP3      H1             -1.1642849752       -1.6518693232      -21.8566171492  SOLV      374             0.0000000000
      1242       385  TIP3      H2             -1.0344149752       -2.4172493232      -23.1563071492  SOLV      374             0.0000000000
      1243       386  TIP3      OH2             1.5061450248       -7.7386693232      -33.3456071492  SOLV      375             0.0000000000
      1244       386  TIP3      H1              0.9842550248       -7.3822593232      -34.0645171492  SOLV      375             0.0000000000
      1245       386  TIP3      H2              1.4730650248       -7.0638893232      -32.6675171492  SOLV      375             0.0000000000
      1246       387  TIP3      OH2            -0.1449549752      -10.4991093232      -34.7948971492  SOLV      376             0.0000000000
      1247       387  TIP3      H1             -0.0485149752       -9.8324093232      -35.4749271492  SOLV      376             0.0000000000
      1248       387  TIP3      H2             -0.2849949752      -11.3144793232      -35.2763471492  SOLV      376             0.0000000000
      1249       388  TIP3      OH2            -0.9754849752       -9.1188693232      -29.1738671492  SOLV      377             0.0000000000
      1250       388  TIP3      H1             -1.1256049752      -10.0640093232      -29.1940871492  SOLV      377             0.0000000000
      1251       388  TIP3      H2             -1.3290349752       -8.8377293232      -28.3299571492  SOLV      377             0.0000000000
      1252       389  TIP3      OH2           -15.9402449752       -7.0406493232      -25.1634871492  SOLV      378             0.0000000000
      1253       389  TIP3      H1            -15.7559549752       -7.1224793232      -26.0991971492  SOLV      378             0.0000000000
      1254       389  TIP3      H2            -15.0909549752       -7.1649493232      -24.7398471492  SOLV      378             0.0000000000
      1255       390  TIP3      OH2            -0.1191949752       -7.1485393232      -19.5350371492  SOLV      379             0.0000000000
      1256       390  TIP3      H1              0.4635350248       -7.8833093232      -19.3433171492  SOLV      379             0.0000000000
      1257       390  TIP3      H2              0.4447350248       -6.3765093232      -19.4884571492  SOLV      379             0.0000000000
      1258       391  TIP3      OH2             1.3775150248       -9.2459593232      -18.8504971492  SOLV      380             0.0000000000
      1259       391  TIP3      H1              0.5141850248       -9.6247493232      -19.0160271492  SOLV      380             0.0000000000
      1260       391  TIP3      H2              1.9818850248       -9.9844793232      -18.9249171492  SOLV      380             0.0000000000
      1261       392  TIP3      OH2            -1.2650049752      -11.5362893232      -30.7113571492  SOLV      381             0.0000000000
      1262       392  TIP3      H1             -0.9852949752      -12.4432493232      -30.5871871492  SOLV      381             0.0000000000
      1263       392  TIP3      H2             -0.5058349752      -11.1021393232      -31.1004371492  SOLV      381             0.0000000000
      1264       393  TIP3      OH2            -0.6531749752      -10.9545493232      -25.2754671492  SOLV      382             0.0000000000
      1265       393  TIP3      H1              0.2796250248      -10.7425593232      -25.3098671492  SOLV      382             0.0000000000
      1266       393  TIP3      H2             -0.8884249752      -10.8533393232      -24.3531671492  SOLV      382             0.0000000000
      1267       394  TIP3      OH2            -0.6239849752      -10.2180193232      -22.4995271492  SOLV      383             0.0000000000
      1268       394  TIP3      H1             -1.4668549752       -9.9499793232      -22.1335471492  SOLV      383             0.0000000000
      1269       394  TIP3      H2             -0.1815549752       -9.3958293232      -22.7104171492  SOLV      383             0.0000000000
      1270       395  TIP3      OH2           -16.3427649752      -11.7701493232      -19.0226071492  SOLV      384             0.0000000000
      1271       395  TIP3      H1            -15.4232749752      -11.8923193232      -18.7862971492  SOLV      384             0.0000000000
      1272       395  TIP3      H2            -16.7923149752      -12.5201793232      -18.6332571492  SOLV      384             0.0000000000
      1273       396  TIP3      OH2             1.6591750248      -16.2379993232      -17.1460271492  SOLV      385             0.0000000000
      1274       396  TIP3      H1              2.0088750248      -16.8916493232      -17.7515571492  SOLV      385             0.0000000000
      1275       396  TIP3      H2              1.8061250248      -15.4005893232      -17.5857671492  SOLV      385             0.0000000000
      1276       397  TIP3      OH2            -0.6515249752      -14.2733593232      -30.6631571492  SOLV      386             0.0000000000
      1277       397  TIP3      H1             -0.4690249752      -14.7222093232      -29.8376571492  SOLV      386             0.0000000000
      1278       397  TIP3      H2             -1.2512349752      -14.8579193232      -31.1266971492  SOLV      386             0.0000000000
      1279       398  TIP3      OH2           -16.8174849752      -10.4586893232      -25.0622971492  SOLV      387             0.0000000000
      1280       398  TIP3      H1            -16.3255049752      -10.6796393232      -25.8530971492  SOLV      387             0.0000000000
      1281       398  TIP3      H2            -16.4553949752       -9.6183493232      -24.7813471492  SOLV      387             0.0000000000
      1282       399  TIP3      OH2             1.1788950248      -14.1285393232      -18.7968971492  SOLV      388             0.0000000000
      1283       399  TIP3      H1              0.2614650248      -13.8578293232      -18.8325471492  SOLV      388             0.0000000000
      1284       399  TIP3      H2              1.3018350248      -14.6636993232      -19.5809271492  SOLV      388             0.0000000000
      1285       400  TIP3      OH2             1.2150950248      -14.2055493232      -34.1351271492  SOLV      389             0.0000000000
      1286       400  TIP3      H1              1.6273550248      -14.9269793232      -34.6103271492  SOLV      389             0.0000000000
      1287       400  TIP3      H2              1.8967450248      -13.5360893232      -34.0766971492  SOLV      389             0.0000000000
      1288       401  TIP3      OH2            -1.7331149752        0.7833906768      -29.0623171492  SOLV      390             0.0000000000
      1289       401  TIP3      H1             -1.0808249752        0.4356006768      -29.6704071492  SOLV      390             0.0000000000
      1290       401  TIP3      H2             -1.2227349752        1.2717106768      -28.4163471492  SOLV      390             0.0000000000
      1291       402  TIP3      OH2           -16.5402949752      -15.4628793232      -22.6638071492  SOLV      391             0.0000000000
      1292       402  TIP3      H1            -17.2052449752      -15.7088493232      -22.0207171492  SOLV      391             0.0000000000
      1293       402  TIP3      H2            -16.9831649752      -14.8408393232      -23.2410071492  SOLV      391             0.0000000000
      1294       403  TIP3      OH2           -14.3483649752       -2.2874693232      -18.5192271492  SOLV      392             0.0000000000
      1295       403  TIP3      H1            -15.1691149752       -2.1128193232      -18.9797571492  SOLV      392             0.0000000000
      1296       403  TIP3      H2            -14.6005849752       -2.3609993232      -17.5987871492  SOLV      392             0.0000000000
      1297       404  TIP3      OH2           -11.3940749752       -1.3133493232      -22.2608271492  SOLV      393             0.0000000000
      1298       404  TIP3      H1            -11.8189649752       -0.5034993232      -22.5433671492  SOLV      393             0.0000000000
      1299       404  TIP3      H2            -10.4897949752       -1.2279393232      -22.5628471492  SOLV      393             0.0000000000
      1300       405  TIP3      OH2            -7.0829349752        0.0856506768      -19.3014571492  SOLV      394             0.0000000000
      1301       405  TIP3      H1             -6.8981849752       -0.2477393232      -18.4234271492  SOLV      394             0.0000000000
      1302       405  TIP3      H2             -6.2364849752        0.3955106768      -19.6235371492  SOLV      394             0.0000000000
      1303       406  TIP3      OH2            -4.7378949752        1.3715406768      -20.0573171492  SOLV      395             0.0000000000
      1304       406  TIP3      H1             -4.0610049752        0.7387706768      -20.2973971492  SOLV      395             0.0000000000
      1305       406  TIP3      H2             -4.4160149752        1.7725906768      -19.2499871492  SOLV      395             0.0000000000
      1306       407  TIP3      OH2             0.1794850248      -16.0389093232      -20.9778171492  SOLV      396             0.0000000000
      1307       407  TIP3      H1             -0.6331649752      -15.7138793232      -21.3653471492  SOLV      396             0.0000000000
      1308       407  TIP3      H2              0.4123350248      -16.7990593232      -21.5109071492  SOLV      396             0.0000000000
      1309       408  TIP3      OH2           -13.9924049752        1.9430406768      -22.2132971492  SOLV      397             0.0000000000
      1310       408  TIP3      H1            -14.7127649752        2.3831406768      -22.6645271492  SOLV      397             0.0000000000
      1311       408  TIP3      H2            -14.3580049752        1.6925106768      -21.3648971492  SOLV      397             0.0000000000
      1312       409  TIP3      OH2           -11.5251449752        1.5434306768      -23.1835771492  SOLV      398             0.0000000000
      1313       409  TIP3      H1            -12.3899249752        1.6152806768      -22.7795671492  SOLV      398             0.0000000000
      1314       409  TIP3      H2            -11.5802449752        2.0901606768      -23.9673271492  SOLV      398             0.0000000000
      1315       410  TIP3      OH2            -6.8145849752        1.4313206768      -24.0079771492  SOLV      399             0.0000000000
      1316       410  TIP3      H1             -7.2711849752        1.9602906768      -24.6621371492  SOLV      399             0.0000000000
      1317       410  TIP3      H2             -6.6517849752        2.0344606768      -23.2827471492  SOLV      399             0.0000000000
      1318       411  TIP3      OH2            -4.4869549752        0.3092806768      -23.0629471492  SOLV      400             0.0000000000
      1319       411  TIP3      H1             -5.3915849752        0.4743006768      -23.3287371492  SOLV      400             0.0000000000
      1320       411  TIP3      H2             -4.0580949752        1.1625006768      -23.1286071492  SOLV      400             0.0000000000
      1321       412  TIP3      OH2            -1.8827649752        1.8791906768      -22.7681671492  SOLV      401             0.0000000000
      1322       412  TIP3      H1             -2.0645649752        2.7950806768      -22.9786771492  SOLV      401             0.0000000000
      1323       412  TIP3      H2             -1.7059849752        1.4689006768      -23.6147071492  SOLV      401             0.0000000000
      1324       413  TIP3      OH2           -14.5775949752        0.5662906768      -25.3031171492  SOLV      402             0.0000000000
      1325       413  TIP3      H1            -14.5959949752        0.1408006768      -24.4458871492  SOLV      402             0.0000000000
      1326       413  TIP3      H2            -13.7728049752        0.2477906768      -25.7118971492  SOLV      402             0.0000000000
      1327       414  TIP3      OH2           -12.4362849752       -0.7238393232      -26.6481271492  SOLV      403             0.0000000000
      1328       414  TIP3      H1            -12.6552149752       -1.6400993232      -26.4785271492  SOLV      403             0.0000000000
      1329       414  TIP3      H2            -11.6120649752       -0.5837993232      -26.1819871492  SOLV      403             0.0000000000
      1330       415  TIP3      OH2            -9.8990349752       -0.2539093232      -25.7993271492  SOLV      404             0.0000000000
      1331       415  TIP3      H1             -9.6864649752       -1.1420093232      -26.0862371492  SOLV      404             0.0000000000
      1332       415  TIP3      H2             -9.8345249752       -0.2881393232      -24.8449271492  SOLV      404             0.0000000000
      1333       416  TIP3      OH2            -6.3906649752      -14.5898493232      -26.6549971492  SOLV      405             0.0000000000
      1334       416  TIP3      H1             -7.0649849752      -15.2192893232      -26.3994171492  SOLV      405             0.0000000000
      1335       416  TIP3      H2             -5.8267449752      -15.0739593232      -27.2582071492  SOLV      405             0.0000000000
      1336       417  TIP3      OH2            -1.2479449752      -16.4824493232      -26.5422871492  SOLV      406             0.0000000000
      1337       417  TIP3      H1             -0.6441849752      -15.9349093232      -27.0441871492  SOLV      406             0.0000000000
      1338       417  TIP3      H2             -2.1177449752      -16.1634093232      -26.7828771492  SOLV      406             0.0000000000
      1339       418  TIP3      OH2             0.4790950248      -15.3435793232      -28.2091971492  SOLV      407             0.0000000000
      1340       418  TIP3      H1              1.0908450248      -15.8580093232      -28.7358371492  SOLV      407             0.0000000000
      1341       418  TIP3      H2              0.8614350248      -14.4663693232      -28.1857571492  SOLV      407             0.0000000000
      1342       419  TIP3      OH2            -3.9278149752      -15.9991293232      -27.3705271492  SOLV      408             0.0000000000
      1343       419  TIP3      H1             -3.8516549752      -15.9039693232      -28.3199271492  SOLV      408             0.0000000000
      1344       419  TIP3      H2             -4.2028949752      -16.9068393232      -27.2416171492  SOLV      408             0.0000000000
      1345       420  TIP3      OH2            -6.4622749752        0.9997006768      -33.7342671492  SOLV      409             0.0000000000
      1346       420  TIP3      H1             -5.5962549752        1.3664406768      -33.9124471492  SOLV      409             0.0000000000
      1347       420  TIP3      H2             -6.7089949752        0.5605006768      -34.5481871492  SOLV      409             0.0000000000
      1348       421  TIP3      OH2             0.2466850248        0.5627306768      -31.0551571492  SOLV      410             0.0000000000
      1349       421  TIP3      H1              0.0523950248       -0.1850593232      -31.6201971492  SOLV      410             0.0000000000
      1350       421  TIP3      H2              0.2076950248        1.3207406768      -31.6383671492  SOLV      410             0.0000000000
      1351       422  TIP3      OH2           -14.1061149752      -15.4416293232      -19.3153871492  SOLV      411             0.0000000000
      1352       422  TIP3      H1            -14.4722949752      -16.2073693232      -18.8729171492  SOLV      411             0.0000000000
      1353       422  TIP3      H2            -13.1932649752      -15.4126093232      -19.0288771492  SOLV      411             0.0000000000
      1354       423  TIP3      OH2           -12.1330349752      -16.0911893232      -17.7796771492  SOLV      412             0.0000000000
      1355       423  TIP3      H1            -11.2346749752      -16.3651693232      -17.9643371492  SOLV      412             0.0000000000
      1356       423  TIP3      H2            -12.5197249752      -16.8335893232      -17.3154171492  SOLV      412             0.0000000000
      1357       424  TIP3      OH2            -3.7118049752      -16.7586593232      -17.5973971492  SOLV      413             0.0000000000
      1358       424  TIP3      H1             -3.6350849752      -17.1845893232      -16.7436271492  SOLV      413             0.0000000000
      1359       424  TIP3      H2             -2.8181449752      -16.7451893232      -17.9400471492  SOLV      413             0.0000000000
      1360       425  TIP3      OH2            -0.5356949752       -0.6860293232      -18.9049771492  SOLV      414             0.0000000000
      1361       425  TIP3      H1             -1.3175049752       -0.8722293232      -19.4249171492  SOLV      414             0.0000000000
      1362       425  TIP3      H2             -0.6077049752        0.2434006768      -18.6877271492  SOLV      414             0.0000000000
      1363       426  TIP3      OH2            13.8703450248       -6.7995893232      -28.8742571492  SOLV      415             0.0000000000
      1364       426  TIP3      H1             13.9594550248       -5.8557693232      -29.0065471492  SOLV      415             0.0000000000
      1365       426  TIP3      H2             13.2321050248       -7.0749493232      -29.5323171492  SOLV      415             0.0000000000
      1366       427  TIP3      OH2            12.8034750248       -7.5445193232      -25.4554371492  SOLV      416             0.0000000000
      1367       427  TIP3      H1             12.7652250248       -8.1908893232      -24.7504771492  SOLV      416             0.0000000000
      1368       427  TIP3      H2             12.4811250248       -8.0110793232      -26.2265671492  SOLV      416             0.0000000000
      1369       428  TIP3      OH2             5.1719750248       -7.9303093232      -23.8624471492  SOLV      417             0.0000000000
      1370       428  TIP3      H1              5.2131850248       -8.5559793232      -23.1392071492  SOLV      417             0.0000000000
      1371       428  TIP3      H2              5.8747450248       -7.3064493232      -23.6804071492  SOLV      417             0.0000000000
      1372       429  TIP3      OH2            16.5094950248       -4.6054793232      -27.1539271492  SOLV      418             0.0000000000
      1373       429  TIP3      H1             16.0687650248       -5.3258793232      -26.7033671492  SOLV      418             0.0000000000
      1374       429  TIP3      H2             16.4964650248       -3.8847593232      -26.5241571492  SOLV      418             0.0000000000
      1375       430  TIP3      OH2             6.0952850248       -3.4804193232      -25.3275371492  SOLV      419             0.0000000000
      1376       430  TIP3      H1              5.7258050248       -4.2823693232      -25.6971071492  SOLV      419             0.0000000000
      1377       430  TIP3      H2              7.0363950248       -3.6489293232      -25.2811971492  SOLV      419             0.0000000000
      1378       431  TIP3      OH2             2.7053350248       -9.8201593232      -29.9346571492  SOLV      420             0.0000000000
      1379       431  TIP3      H1              2.2576750248       -8.9742893232      -29.9530071492  SOLV      420             0.0000000000
      1380       431  TIP3      H2              2.1444550248      -10.3997393232      -30.4501471492  SOLV      420             0.0000000000
      1381       432  TIP3      OH2             3.4159450248       -7.6581993232      -27.8088571492  SOLV      421             0.0000000000
      1382       432  TIP3      H1              3.6292950248       -8.4280393232      -27.2815571492  SOLV      421             0.0000000000
      1383       432  TIP3      H2              4.1537050248       -7.5685293232      -28.4120971492  SOLV      421             0.0000000000
      1384       433  TIP3      OH2            13.6210450248        0.4986906768      -26.9418871492  SOLV      422             0.0000000000
      1385       433  TIP3      H1             14.2406850248       -0.1778393232      -27.2149671492  SOLV      422             0.0000000000
      1386       433  TIP3      H2             13.4127850248        0.2807706768      -26.0333971492  SOLV      422             0.0000000000
      1387       434  TIP3      OH2            11.1929150248       -5.1123793232      -25.0493371492  SOLV      423             0.0000000000
      1388       434  TIP3      H1             11.4967050248       -5.7982393232      -25.6439271492  SOLV      423             0.0000000000
      1389       434  TIP3      H2             11.9143150248       -4.9935093232      -24.4315371492  SOLV      423             0.0000000000
      1390       435  TIP3      OH2            19.8558950248      -13.5108493232      -24.1887171492  SOLV      424             0.0000000000
      1391       435  TIP3      H1             19.9051150248      -12.9007293232      -23.4528071492  SOLV      424             0.0000000000
      1392       435  TIP3      H2             20.2814050248      -13.0497593232      -24.9116071492  SOLV      424             0.0000000000
      1393       436  TIP3      OH2            14.3336150248      -10.7181393232      -24.7218571492  SOLV      425             0.0000000000
      1394       436  TIP3      H1             14.4762050248      -11.6644393232      -24.7016971492  SOLV      425             0.0000000000
      1395       436  TIP3      H2             14.2275150248      -10.5111593232      -25.6503671492  SOLV      425             0.0000000000
      1396       437  TIP3      OH2             7.4884450248      -12.6164993232      -27.4493771492  SOLV      426             0.0000000000
      1397       437  TIP3      H1              7.5315550248      -11.7566493232      -27.8677471492  SOLV      426             0.0000000000
      1398       437  TIP3      H2              7.0308550248      -13.1690293232      -28.0830571492  SOLV      426             0.0000000000
      1399       438  TIP3      OH2            15.2107150248      -12.4859393232      -29.0485471492  SOLV      427             0.0000000000
      1400       438  TIP3      H1             15.8571450248      -12.8146193232      -28.4237871492  SOLV      427             0.0000000000
      1401       438  TIP3      H2             15.7206550248      -11.9680393232      -29.6714071492  SOLV      427             0.0000000000
      1402       439  TIP3      OH2             4.1085950248      -10.2199193232      -26.6872371492  SOLV      428             0.0000000000
      1403       439  TIP3      H1              4.7622550248      -10.7697493232      -26.2552271492  SOLV      428             0.0000000000
      1404       439  TIP3      H2              4.1325250248      -10.4940193232      -27.6040371492  SOLV      428             0.0000000000
      1405       440  TIP3      OH2             9.2650450248       -8.6697893232      -27.4720871492  SOLV      429             0.0000000000
      1406       440  TIP3      H1              9.8811450248       -9.1962493232      -26.9626871492  SOLV      429             0.0000000000
      1407       440  TIP3      H2              8.6789250248       -9.3099193232      -27.8757271492  SOLV      429             0.0000000000
      1408       441  TIP3      OH2            20.2473550248      -12.0329293232      -21.9527371492  SOLV      430             0.0000000000
      1409       441  TIP3      H1             19.5588150248      -11.3748593232      -22.0480771492  SOLV      430             0.0000000000
      1410       441  TIP3      H2             20.2628150248      -12.2301393232      -21.0161971492  SOLV      430             0.0000000000
      1411       442  TIP3      OH2             6.2986350248      -13.6986593232      -23.3752971492  SOLV      431             0.0000000000
      1412       442  TIP3      H1              6.0798050248      -13.1685993232      -24.1416971492  SOLV      431             0.0000000000
      1413       442  TIP3      H2              5.6307250248      -13.4721093232      -22.7281571492  SOLV      431             0.0000000000
      1414       443  TIP3      OH2            13.6676150248       -4.1985493232      -29.8313871492  SOLV      432             0.0000000000
      1415       443  TIP3      H1             13.3721250248       -4.5213193232      -30.6826971492  SOLV      432             0.0000000000
      1416       443  TIP3      H2             13.3433950248       -3.2988793232      -29.7901271492  SOLV      432             0.0000000000
      1417       444  TIP3      OH2             8.8677750248       -6.0230893232      -23.0879271492  SOLV      433             0.0000000000
      1418       444  TIP3      H1              8.1276850248       -5.4249393232      -22.9844071492  SOLV      433             0.0000000000
      1419       444  TIP3      H2              9.5817250248       -5.4691293232      -23.4035671492  SOLV      433             0.0000000000
      1420       445  TIP3      OH2            16.9745550248      -13.1950093232      -27.0679571492  SOLV      434             0.0000000000
      1421       445  TIP3      H1             16.7593550248      -13.9606693232      -26.5353571492  SOLV      434             0.0000000000
      1422       445  TIP3      H2             17.6302950248      -12.7225493232      -26.5551071492  SOLV      434             0.0000000000
      1423       446  TIP3      OH2             5.8923650248      -11.8064793232      -25.4230771492  SOLV      435             0.0000000000
      1424       446  TIP3      H1              6.5059950248      -11.1737193232      -25.0498371492  SOLV      435             0.0000000000
      1425       446  TIP3      H2              6.4044350248      -12.2789793232      -26.0793871492  SOLV      435             0.0000000000
      1426       447  TIP3      OH2             7.2752050248       -4.0587893232      -22.3007771492  SOLV      436             0.0000000000
      1427       447  TIP3      H1              7.2699650248       -3.1794393232      -22.6788471492  SOLV      436             0.0000000000
      1428       447  TIP3      H2              6.4216150248       -4.1423793232      -21.8757871492  SOLV      436             0.0000000000
      1429       448  TIP3      OH2             3.3962950248       -4.3879993232      -31.5188471492  SOLV      437             0.0000000000
      1430       448  TIP3      H1              3.1243850248       -4.1588993232      -32.4075571492  SOLV      437             0.0000000000
      1431       448  TIP3      H2              3.4418650248       -3.5501193232      -31.0583171492  SOLV      437             0.0000000000
      1432       449  TIP3      OH2            17.0212650248       -2.7664093232      -24.8059971492  SOLV      438             0.0000000000
      1433       449  TIP3      H1             16.0796350248       -2.7080193232      -24.6443071492  SOLV      438             0.0000000000
      1434       449  TIP3      H2             17.2978750248       -1.8603593232      -24.9430271492  SOLV      438             0.0000000000
      1435       450  TIP3      OH2            17.3219650248      -14.4798793232      -23.3886071492  SOLV      439             0.0000000000
      1436       450  TIP3      H1             16.5858850248      -13.8691693232      -23.4264771492  SOLV      439             0.0000000000
      1437       450  TIP3      H2             18.0053650248      -14.0649793232      -23.9149671492  SOLV      439             0.0000000000
      1438       451  TIP3      OH2            10.3251050248      -16.3931493232      -25.9228071492  SOLV      440             0.0000000000
      1439       451  TIP3      H1             10.2075250248      -17.3415493232      -25.9769771492  SOLV      440             0.0000000000
      1440       451  TIP3      H2              9.4701150248      -16.0605393232      -25.6496971492  SOLV      440             0.0000000000
      1441       452  TIP3      OH2            15.2733850248       -0.9850593232      -28.1808371492  SOLV      441             0.0000000000
      1442       452  TIP3      H1             15.6986150248       -1.6922693232      -28.6658771492  SOLV      441             0.0000000000
      1443       452  TIP3      H2             15.5903850248       -0.1837893232      -28.5976171492  SOLV      441             0.0000000000
      1444       453  TIP3      OH2            16.4330350248       -3.0842093232      -29.6721771492  SOLV      442             0.0000000000
      1445       453  TIP3      H1             16.1755150248       -3.7741993232      -30.2835871492  SOLV      442             0.0000000000
      1446       453  TIP3      H2             16.5041150248       -3.5270893232      -28.8265871492  SOLV      442             0.0000000000
      1447       454  TIP3      OH2            18.1190550248       -4.5175393232      -21.1948271492  SOLV      443             0.0000000000
      1448       454  TIP3      H1             18.2586850248       -5.1092893232      -21.9341271492  SOLV      443             0.0000000000
      1449       454  TIP3      H2             18.2863350248       -3.6449493232      -21.5509471492  SOLV      443             0.0000000000
      1450       455  TIP3      OH2            12.5915950248       -7.5555893232      -31.4222271492  SOLV      444             0.0000000000
      1451       455  TIP3      H1             11.8801450248       -7.0206193232      -31.7741771492  SOLV      444             0.0000000000
      1452       455  TIP3      H2             13.2825550248       -7.5003793232      -32.0823371492  SOLV      444             0.0000000000
      1453       456  TIP3      OH2            12.6455150248       -9.0981593232      -34.3837271492  SOLV      445             0.0000000000
      1454       456  TIP3      H1             13.3465050248       -9.0754693232      -33.7323271492  SOLV      445             0.0000000000
      1455       456  TIP3      H2             12.9478050248       -9.7261893232      -35.0397971492  SOLV      445             0.0000000000
      1456       457  TIP3      OH2            19.9609850248       -8.1777393232      -23.1287871492  SOLV      446             0.0000000000
      1457       457  TIP3      H1             19.3083950248       -7.4831793232      -23.0396971492  SOLV      446             0.0000000000
      1458       457  TIP3      H2             20.4260150248       -7.9676493232      -23.9386271492  SOLV      446             0.0000000000
      1459       458  TIP3      OH2            15.9973650248       -7.3462593232      -30.4706371492  SOLV      447             0.0000000000
      1460       458  TIP3      H1             15.2654650248       -7.1178893232      -29.8975771492  SOLV      447             0.0000000000
      1461       458  TIP3      H2             16.4445850248       -8.0599893232      -30.0158871492  SOLV      447             0.0000000000
      1462       459  TIP3      OH2            15.8947150248       -9.1719993232      -21.4029371492  SOLV      448             0.0000000000
      1463       459  TIP3      H1             15.9746250248       -8.4085593232      -20.8310871492  SOLV      448             0.0000000000
      1464       459  TIP3      H2             15.2934850248       -8.8927593232      -22.0934271492  SOLV      448             0.0000000000
      1465       460  TIP3      OH2             7.6427350248       -6.7156393232      -28.5881371492  SOLV      449             0.0000000000
      1466       460  TIP3      H1              7.3122550248       -7.0862993232      -29.4064371492  SOLV      449             0.0000000000
      1467       460  TIP3      H2              8.2311450248       -7.3862393232      -28.2413071492  SOLV      449             0.0000000000
      1468       461  TIP3      OH2             9.0094850248       -3.2875793232      -25.9069171492  SOLV      450             0.0000000000
      1469       461  TIP3      H1              8.9146150248       -3.8662693232      -26.6634571492  SOLV      450             0.0000000000
      1470       461  TIP3      H2              9.7388450248       -3.6590093232      -25.4106371492  SOLV      450             0.0000000000
      1471       462  TIP3      OH2             8.0092850248       -7.9470793232      -24.9546371492  SOLV      451             0.0000000000
      1472       462  TIP3      H1              8.5745350248       -7.8256593232      -25.7175171492  SOLV      451             0.0000000000
      1473       462  TIP3      H2              8.3281750248       -7.3095793232      -24.3157871492  SOLV      451             0.0000000000
      1474       463  TIP3      OH2            14.3185050248       -2.4438893232      -24.2205871492  SOLV      452             0.0000000000
      1475       463  TIP3      H1             14.0781650248       -1.7815793232      -23.5726671492  SOLV      452             0.0000000000
      1476       463  TIP3      H2             14.1203250248       -3.2783693232      -23.7956271492  SOLV      452             0.0000000000
      1477       464  TIP3      OH2             8.8893550248       -3.5478093232      -20.2374471492  SOLV      453             0.0000000000
      1478       464  TIP3      H1              8.5781050248       -2.7654893232      -19.7821271492  SOLV      453             0.0000000000
      1479       464  TIP3      H2              8.2393750248       -3.7008993232      -20.9232471492  SOLV      453             0.0000000000
      1480       465  TIP3      OH2            14.8683150248       -8.1839693232      -32.7855171492  SOLV      454             0.0000000000
      1481       465  TIP3      H1             15.4478650248       -8.0339393232      -32.0386271492  SOLV      454             0.0000000000
      1482       465  TIP3      H2             15.2823150248       -7.7132293232      -33.5088771492  SOLV      454             0.0000000000
      1483       466  TIP3      OH2             5.8093450248       -7.3496993232      -21.0088771492  SOLV      455             0.0000000000
      1484       466  TIP3      H1              5.8796650248       -6.6990193232      -20.3103771492  SOLV      455             0.0000000000
      1485       466  TIP3      H2              4.9185650248       -7.2469493232      -21.3437871492  SOLV      455             0.0000000000
      1486       467  TIP3      OH2            12.5948050248       -1.4471193232      -29.3502071492  SOLV      456             0.0000000000
      1487       467  TIP3      H1             13.0685650248       -1.1514893232      -28.5727871492  SOLV      456             0.0000000000
      1488       467  TIP3      H2             12.0317350248       -0.7089593232      -29.5832471492  SOLV      456             0.0000000000
      1489       468  TIP3      OH2             7.1289450248       -1.4763093232      -19.4740671492  SOLV      457             0.0000000000
      1490       468  TIP3      H1              7.1364750248       -1.6123393232      -20.4215171492  SOLV      457             0.0000000000
      1491       468  TIP3      H2              6.2129850248       -1.5934993232      -19.2220671492  SOLV      457             0.0000000000
      1492       469  TIP3      OH2             6.6330050248       -7.6462093232      -30.9988571492  SOLV      458             0.0000000000
      1493       469  TIP3      H1              6.3411350248       -6.8780393232      -31.4897271492  SOLV      458             0.0000000000
      1494       469  TIP3      H2              5.9585250248       -8.3055893232      -31.1617171492  SOLV      458             0.0000000000
      1495       470  TIP3      OH2             2.7260150248       -5.2832893232      -22.1838771492  SOLV      459             0.0000000000
      1496       470  TIP3      H1              2.2248550248       -5.3113493232      -22.9989071492  SOLV      459             0.0000000000
      1497       470  TIP3      H2              2.7313850248       -6.1889693232      -21.8741471492  SOLV      459             0.0000000000
      1498       471  TIP3      OH2             2.4762850248       -2.5029093232      -25.2998571492  SOLV      460             0.0000000000
      1499       471  TIP3      H1              3.4223450248       -2.6472093232      -25.3189071492  SOLV      460             0.0000000000
      1500       471  TIP3      H2              2.3639150248       -1.7186293232      -24.7627371492  SOLV      460             0.0000000000
      1501       472  TIP3      OH2            20.6741350248       -1.8369393232      -19.6174871492  SOLV      461             0.0000000000
      1502       472  TIP3      H1             20.6248150248       -2.7921293232      -19.6547271492  SOLV      461             0.0000000000
      1503       472  TIP3      H2             19.8473650248       -1.5694093232      -19.2161071492  SOLV      461             0.0000000000
      1504       473  TIP3      OH2            11.6525350248       -2.2630193232      -20.7413471492  SOLV      462             0.0000000000
      1505       473  TIP3      H1             11.7399950248       -1.4365593232      -20.2664371492  SOLV      462             0.0000000000
      1506       473  TIP3      H2             10.7890450248       -2.5926393232      -20.4924171492  SOLV      462             0.0000000000
      1507       474  TIP3      OH2            12.0671150248        1.5093506768      -30.9352871492  SOLV      463             0.0000000000
      1508       474  TIP3      H1             11.9917150248        1.3880706768      -31.8817671492  SOLV      463             0.0000000000
      1509       474  TIP3      H2             12.0999850248        2.4586206768      -30.8168271492  SOLV      463             0.0000000000
      1510       475  TIP3      OH2             5.7204950248        0.2980506768      -29.1543871492  SOLV      464             0.0000000000
      1511       475  TIP3      H1              5.8725350248       -0.0499093232      -28.2757371492  SOLV      464             0.0000000000
      1512       475  TIP3      H2              4.8695350248       -0.0582193232      -29.4096671492  SOLV      464             0.0000000000
      1513       476  TIP3      OH2            14.8375250248        0.5890806768      -31.1838271492  SOLV      465             0.0000000000
      1514       476  TIP3      H1             13.9025050248        0.6892706768      -31.0051271492  SOLV      465             0.0000000000
      1515       476  TIP3      H2             15.1177150248       -0.1203193232      -30.6055071492  SOLV      465             0.0000000000
      1516       477  TIP3      OH2            17.8261150248      -10.3436893232      -19.1372671492  SOLV      466             0.0000000000
      1517       477  TIP3      H1             17.4187950248       -9.8631293232      -19.8579371492  SOLV      466             0.0000000000
      1518       477  TIP3      H2             17.8666850248      -11.2490893232      -19.4451871492  SOLV      466             0.0000000000
      1519       478  TIP3      OH2             4.9750650248       -3.9597493232      -21.1405971492  SOLV      467             0.0000000000
      1520       478  TIP3      H1              5.1911950248       -4.3211893232      -20.2810171492  SOLV      467             0.0000000000
      1521       478  TIP3      H2              4.1195350248       -4.3343693232      -21.3502471492  SOLV      467             0.0000000000
      1522       479  TIP3      OH2             7.5938650248      -15.4896993232      -25.1451771492  SOLV      468             0.0000000000
      1523       479  TIP3      H1              6.7322350248      -15.5768793232      -25.5528871492  SOLV      468             0.0000000000
      1524       479  TIP3      H2              7.5714350248      -14.6336893232      -24.7174171492  SOLV      468             0.0000000000
      1525       480  TIP3      OH2            12.2566450248      -15.7676593232      -21.7704771492  SOLV      469             0.0000000000
      1526       480  TIP3      H1             12.6769550248      -16.1829493232      -21.0174171492  SOLV      469             0.0000000000
      1527       480  TIP3      H2             11.3236050248      -15.9463293232      -21.6532771492  SOLV      469             0.0000000000
      1528       481  TIP3      OH2            15.5831350248      -12.0121393232      -20.9170271492  SOLV      470             0.0000000000
      1529       481  TIP3      H1             15.0690850248      -12.1379193232      -20.1194271492  SOLV      470             0.0000000000
      1530       481  TIP3      H2             15.4276050248      -11.0998293232      -21.1614071492  SOLV      470             0.0000000000
      1531       482  TIP3      OH2            11.9183750248      -13.2753193232      -34.4853971492  SOLV      471             0.0000000000
      1532       482  TIP3      H1             11.6648550248      -13.2561593232      -33.5625871492  SOLV      471             0.0000000000
      1533       482  TIP3      H2             11.6615850248      -14.1467793232      -34.7867771492  SOLV      471             0.0000000000
      1534       483  TIP3      OH2             7.6848750248      -10.5242493232      -24.0501571492  SOLV      472             0.0000000000
      1535       483  TIP3      H1              7.0430850248      -10.5645193232      -23.3411471492  SOLV      472             0.0000000000
      1536       483  TIP3      H2              7.7220750248       -9.5977793232      -24.2878571492  SOLV      472             0.0000000000
      1537       484  TIP3      OH2             7.6817850248      -10.3032393232      -29.1381571492  SOLV      473             0.0000000000
      1538       484  TIP3      H1              6.7890750248      -10.6436293232      -29.1967771492  SOLV      473             0.0000000000
      1539       484  TIP3      H2              8.1324450248      -10.6801493232      -29.8938371492  SOLV      473             0.0000000000
      1540       485  TIP3      OH2            13.2173350248       -9.8872093232      -30.3210771492  SOLV      474             0.0000000000
      1541       485  TIP3      H1             12.8083650248       -9.0723493232      -30.6125971492  SOLV      474             0.0000000000
      1542       485  TIP3      H2             13.9379550248      -10.0271993232      -30.9353671492  SOLV      474             0.0000000000
      1543       486  TIP3      OH2            12.3194950248       -9.7115693232      -18.8330071492  SOLV      475             0.0000000000
      1544       486  TIP3      H1             11.7568750248      -10.4164093232      -18.5122271492  SOLV      475             0.0000000000
      1545       486  TIP3      H2             13.1458350248       -9.8323793232      -18.3652471492  SOLV      475             0.0000000000
      1546       487  TIP3      OH2            14.2221050248      -10.4411693232      -27.5071071492  SOLV      476             0.0000000000
      1547       487  TIP3      H1             14.0265550248       -9.8354893232      -28.2220471492  SOLV      476             0.0000000000
      1548       487  TIP3      H2             14.4033650248      -11.2746493232      -27.9414771492  SOLV      476             0.0000000000
      1549       488  TIP3      OH2             5.4349250248      -10.2038993232      -22.1829571492  SOLV      477             0.0000000000
      1550       488  TIP3      H1              5.3968650248       -9.8037393232      -21.3142471492  SOLV      477             0.0000000000
      1551       488  TIP3      H2              4.9440350248      -11.0206593232      -22.0926671492  SOLV      477             0.0000000000
      1552       489  TIP3      OH2             8.8006650248      -12.8296693232      -35.3843571492  SOLV      478             0.0000000000
      1553       489  TIP3      H1              8.3697350248      -13.2746593232      -34.6546171492  SOLV      478             0.0000000000
      1554       489  TIP3      H2              8.0825350248      -12.4580393232      -35.8966071492  SOLV      478             0.0000000000
      1555       490  TIP3      OH2             2.0430050248      -13.0877193232      -28.3324871492  SOLV      479             0.0000000000
      1556       490  TIP3      H1              2.6737750248      -13.1165093232      -27.6130971492  SOLV      479             0.0000000000
      1557       490  TIP3      H2              2.4924350248      -13.5128493232      -29.0628971492  SOLV      479             0.0000000000
      1558       491  TIP3      OH2             3.3172150248      -12.3415193232      -32.9084471492  SOLV      480             0.0000000000
      1559       491  TIP3      H1              3.7913850248      -11.7505293232      -33.4933571492  SOLV      480             0.0000000000
      1560       491  TIP3      H2              2.5998550248      -11.8112293232      -32.5614371492  SOLV      480             0.0000000000
      1561       492  TIP3      OH2            13.4860250248       -8.8030393232      -22.8358671492  SOLV      481             0.0000000000
      1562       492  TIP3      H1             13.8095050248       -9.4340693232      -23.4788171492  SOLV      481             0.0000000000
      1563       492  TIP3      H2             13.0459550248       -9.3378193232      -22.1751271492  SOLV      481             0.0000000000
      1564       493  TIP3      OH2            10.2633150248      -12.8754893232      -28.0517471492  SOLV      482             0.0000000000
      1565       493  TIP3      H1              9.3524250248      -12.8188093232      -27.7631471492  SOLV      482             0.0000000000
      1566       493  TIP3      H2             10.7686050248      -12.9359393232      -27.2410271492  SOLV      482             0.0000000000
      1567       494  TIP3      OH2             5.0916550248      -11.2468593232      -29.2249871492  SOLV      483             0.0000000000
      1568       494  TIP3      H1              4.2024550248      -11.1473093232      -29.5650271492  SOLV      483             0.0000000000
      1569       494  TIP3      H2              5.3881450248      -12.0885593232      -29.5711971492  SOLV      483             0.0000000000
      1570       495  TIP3      OH2             8.7448350248      -11.2465993232      -31.5685271492  SOLV      484             0.0000000000
      1571       495  TIP3      H1              9.6763850248      -11.1175993232      -31.3902171492  SOLV      484             0.0000000000
      1572       495  TIP3      H2              8.5298650248      -10.5771693232      -32.2180571492  SOLV      484             0.0000000000
      1573       496  TIP3      OH2            14.6685050248      -13.6408593232      -24.7875671492  SOLV      485             0.0000000000
      1574       496  TIP3      H1             13.9916650248      -13.5095493232      -24.1235971492  SOLV      485             0.0000000000
      1575       496  TIP3      H2             14.1829950248      -13.7959093232      -25.5977971492  SOLV      485             0.0000000000
      1576       497  TIP3      OH2             7.4188550248      -10.0523793232      -34.0019171492  SOLV      486             0.0000000000
      1577       497  TIP3      H1              6.8763650248      -10.4319993232      -34.6931571492  SOLV      486             0.0000000000
      1578       497  TIP3      H2              8.2523450248       -9.8579093232      -34.4305071492  SOLV      486             0.0000000000
      1579       498  TIP3      OH2            17.9560150248        2.0306806768      -18.5108071492  SOLV      487             0.0000000000
      1580       498  TIP3      H1             18.1558850248        2.4548706768      -19.3452771492  SOLV      487             0.0000000000
      1581       498  TIP3      H2             18.6113850248        2.3745006768      -17.9037671492  SOLV      487             0.0000000000
      1582       499  TIP3      OH2             5.5539950248       -5.4951893232      -18.9027571492  SOLV      488             0.0000000000
      1583       499  TIP3      H1              6.2862350248       -5.2405993232      -18.3413071492  SOLV      488             0.0000000000
      1584       499  TIP3      H2              4.7738650248       -5.2906493232      -18.3872171492  SOLV      488             0.0000000000
      1585       500  TIP3      OH2            11.5832850248      -10.0881893232      -26.1647871492  SOLV      489             0.0000000000
      1586       500  TIP3      H1             12.1476250248      -10.6345293232      -26.7118271492  SOLV      489             0.0000000000
      1587       500  TIP3      H2             11.4356250248      -10.6099993232      -25.3760271492  SOLV      489             0.0000000000
      1588       501  TIP3      OH2             6.5852550248      -13.9515793232      -29.7463071492  SOLV      490             0.0000000000
      1589       501  TIP3      H1              6.2682050248      -14.8540493232      -29.7817671492  SOLV      490             0.0000000000
      1590       501  TIP3      H2              7.3666650248      -13.9498393232      -30.2991471492  SOLV      490             0.0000000000
      1591       502  TIP3      OH2            10.2098750248      -11.6995793232      -23.7507471492  SOLV      491             0.0000000000
      1592       502  TIP3      H1              9.3744050248      -11.2456293232      -23.6405071492  SOLV      491             0.0000000000
      1593       502  TIP3      H2             10.7339350248      -11.4237293232      -22.9987571492  SOLV      491             0.0000000000
      1594       503  TIP3      OH2            10.7541350248       -5.4868093232      -32.0661071492  SOLV      492             0.0000000000
      1595       503  TIP3      H1             10.0092350248       -5.9942793232      -32.3883171492  SOLV      492             0.0000000000
      1596       503  TIP3      H2             10.6198550248       -5.4380093232      -31.1196271492  SOLV      492             0.0000000000
      1597       504  TIP3      OH2            17.9040250248       -6.3539893232      -23.2793471492  SOLV      493             0.0000000000
      1598       504  TIP3      H1             18.5459050248       -5.8973593232      -23.8231271492  SOLV      493             0.0000000000
      1599       504  TIP3      H2             17.0737150248       -6.2407493232      -23.7419371492  SOLV      493             0.0000000000
      1600       505  TIP3      OH2            14.6518150248      -12.6728193232      -33.8668471492  SOLV      494             0.0000000000
      1601       505  TIP3      H1             13.7132350248      -12.5612593232      -34.0179671492  SOLV      494             0.0000000000
      1602       505  TIP3      H2             14.9490250248      -11.8161293232      -33.5602771492  SOLV      494             0.0000000000
      1603       506  TIP3      OH2            12.2733450248       -5.3024793232      -20.8291971492  SOLV      495             0.0000000000
      1604       506  TIP3      H1             11.9279550248       -5.6842393232      -20.0222371492  SOLV      495             0.0000000000
      1605       506  TIP3      H2             12.0733550248       -4.3691193232      -20.7579071492  SOLV      495             0.0000000000
      1606       507  TIP3      OH2            15.3701650248      -10.8055493232      -32.2061071492  SOLV      496             0.0000000000
      1607       507  TIP3      H1             16.2620650248      -10.9430493232      -31.8869871492  SOLV      496             0.0000000000
      1608       507  TIP3      H2             15.4265250248      -10.0149393232      -32.7427571492  SOLV      496             0.0000000000
      1609       508  TIP3      OH2             5.8789650248       -6.1918093232      -26.2963171492  SOLV      497             0.0000000000
      1610       508  TIP3      H1              6.6236850248       -6.1942393232      -26.8976671492  SOLV      497             0.0000000000
      1611       508  TIP3      H2              5.9566250248       -7.0154293232      -25.8148071492  SOLV      497             0.0000000000
      1612       509  TIP3      OH2            12.8795450248       -4.0283793232      -33.0406471492  SOLV      498             0.0000000000
      1613       509  TIP3      H1             12.5843850248       -3.2015893232      -32.6591671492  SOLV      498             0.0000000000
      1614       509  TIP3      H2             12.1765450248       -4.6476893232      -32.8445071492  SOLV      498             0.0000000000
      1615       510  TIP3      OH2             2.8869350248       -7.7311193232      -20.9814671492  SOLV      499             0.0000000000
      1616       510  TIP3      H1              3.1097950248       -8.1491593232      -20.1497171492  SOLV      499             0.0000000000
      1617       510  TIP3      H2              2.2849450248       -8.3436193232      -21.4041871492  SOLV      499             0.0000000000
      1618       511  TIP3      OH2             9.9034250248       -8.2141293232      -18.7684971492  SOLV      500             0.0000000000
      1619       511  TIP3      H1              9.6075050248       -8.3798293232      -19.6635871492  SOLV      500             0.0000000000
      1620       511  TIP3      H2             10.8349450248       -8.4340993232      -18.7791071492  SOLV      500             0.0000000000
      1621       512  TIP3      OH2            14.5237050248       -2.8409293232      -20.8786971492  SOLV      501             0.0000000000
      1622       512  TIP3      H1             13.6231350248       -2.6576693232      -21.1463071492  SOLV      501             0.0000000000
      1623       512  TIP3      H2             14.5578150248       -2.5819993232      -19.9578171492  SOLV      501             0.0000000000
      1624       513  TIP3      OH2            20.2182350248       -4.7959693232      -19.6742871492  SOLV      502             0.0000000000
      1625       513  TIP3      H1             19.3670850248       -4.5575893232      -20.0416471492  SOLV      502             0.0000000000
      1626       513  TIP3      H2             20.8085750248       -4.8126493232      -20.4275771492  SOLV      502             0.0000000000
      1627       514  TIP3      OH2            15.7105950248       -7.0021493232      -25.0250371492  SOLV      503             0.0000000000
      1628       514  TIP3      H1             14.7822850248       -7.2339593232      -25.0521071492  SOLV      503             0.0000000000
      1629       514  TIP3      H2             16.1617050248       -7.7791693232      -25.3551571492  SOLV      503             0.0000000000
      1630       515  TIP3      OH2             8.2539050248       -2.6739893232      -28.8921671492  SOLV      504             0.0000000000
      1631       515  TIP3      H1              8.7811250248       -1.9005493232      -29.0922871492  SOLV      504             0.0000000000
      1632       515  TIP3      H2              7.3737550248       -2.4490693232      -29.1937671492  SOLV      504             0.0000000000
      1633       516  TIP3      OH2             4.0086750248       -7.8115793232      -34.3049271492  SOLV      505             0.0000000000
      1634       516  TIP3      H1              4.6246650248       -7.1848593232      -33.9254471492  SOLV      505             0.0000000000
      1635       516  TIP3      H2              3.1469350248       -7.4955993232      -34.0332771492  SOLV      505             0.0000000000
      1636       517  TIP3      OH2             9.6811350248       -5.0109993232      -29.3157371492  SOLV      506             0.0000000000
      1637       517  TIP3      H1              9.4401350248       -4.0855593232      -29.2742071492  SOLV      506             0.0000000000
      1638       517  TIP3      H2              8.9404950248       -5.4698693232      -28.9193471492  SOLV      506             0.0000000000
      1639       518  TIP3      OH2            10.1957950248       -0.8616393232      -23.0006271492  SOLV      507             0.0000000000
      1640       518  TIP3      H1             10.5582650248       -0.0070793232      -23.2341871492  SOLV      507             0.0000000000
      1641       518  TIP3      H2             10.7273150248       -1.1534793232      -22.2599971492  SOLV      507             0.0000000000
      1642       519  TIP3      OH2             8.3642150248        0.0107606768      -29.7705171492  SOLV      508             0.0000000000
      1643       519  TIP3      H1              7.4142650248        0.1165006768      -29.7191871492  SOLV      508             0.0000000000
      1644       519  TIP3      H2              8.7160250248        0.8315006768      -29.4257671492  SOLV      508             0.0000000000
      1645       520  TIP3      OH2            13.7398750248       -4.7625693232      -23.3000671492  SOLV      509             0.0000000000
      1646       520  TIP3      H1             13.3140050248       -4.9903993232      -22.4736671492  SOLV      509             0.0000000000
      1647       520  TIP3      H2             14.3204550248       -5.5013893232      -23.4825371492  SOLV      509             0.0000000000
      1648       521  TIP3      OH2            16.3982950248       -0.2106193232      -20.8305871492  SOLV      510             0.0000000000
      1649       521  TIP3      H1             15.7966150248       -0.7663293232      -21.3259571492  SOLV      510             0.0000000000
      1650       521  TIP3      H2             16.6796650248        0.4563606768      -21.4568471492  SOLV      510             0.0000000000
      1651       522  TIP3      OH2             4.5208850248      -12.9778493232      -21.4233271492  SOLV      511             0.0000000000
      1652       522  TIP3      H1              3.6281150248      -12.6393093232      -21.4909271492  SOLV      511             0.0000000000
      1653       522  TIP3      H2              4.4221650248      -13.8332393232      -21.0052471492  SOLV      511             0.0000000000
      1654       523  TIP3      OH2            16.8086950248       -5.1613193232      -31.9993771492  SOLV      512             0.0000000000
      1655       523  TIP3      H1             16.5314550248       -5.8893893232      -31.4432671492  SOLV      512             0.0000000000
      1656       523  TIP3      H2             17.7359950248       -5.0421193232      -31.7941171492  SOLV      512             0.0000000000
      1657       524  TIP3      OH2             4.1720850248       -1.1734093232      -22.9883871492  SOLV      513             0.0000000000
      1658       524  TIP3      H1              4.3891150248       -2.1051693232      -23.0194171492  SOLV      513             0.0000000000
      1659       524  TIP3      H2              4.4184350248       -0.8989093232      -22.1051071492  SOLV      513             0.0000000000
      1660       525  TIP3      OH2             8.9706050248       -3.1515293232      -33.3229071492  SOLV      514             0.0000000000
      1661       525  TIP3      H1              9.1174050248       -3.6715493232      -32.5328171492  SOLV      514             0.0000000000
      1662       525  TIP3      H2              8.9677750248       -2.2447693232      -33.0163171492  SOLV      514             0.0000000000
      1663       526  TIP3      OH2             5.4237150248       -5.8991993232      -32.8123671492  SOLV      515             0.0000000000
      1664       526  TIP3      H1              4.7376450248       -5.5469493232      -32.2453971492  SOLV      515             0.0000000000
      1665       526  TIP3      H2              5.9465050248       -5.1362393232      -33.0589371492  SOLV      515             0.0000000000
      1666       527  TIP3      OH2            13.2552250248      -13.2368193232      -22.5334671492  SOLV      516             0.0000000000
      1667       527  TIP3      H1             13.9540150248      -13.1629493232      -21.8834971492  SOLV      516             0.0000000000
      1668       527  TIP3      H2             12.8743650248      -14.1013193232      -22.3791771492  SOLV      516             0.0000000000
      1669       528  TIP3      OH2            14.0397150248      -13.5846493232      -31.4362371492  SOLV      517             0.0000000000
      1670       528  TIP3      H1             14.2595450248      -13.1131093232      -32.2396971492  SOLV      517             0.0000000000
      1671       528  TIP3      H2             14.5981150248      -13.1903893232      -30.7661771492  SOLV      517             0.0000000000
      1672       529  TIP3      OH2            11.7083250248       -1.4541693232      -32.5734871492  SOLV      518             0.0000000000
      1673       529  TIP3      H1             10.8919350248       -0.9571993232      -32.5210571492  SOLV      518             0.0000000000
      1674       529  TIP3      H2             12.2379550248       -0.9788193232      -33.2136071492  SOLV      518             0.0000000000
      1675       530  TIP3      OH2            11.2397050248      -11.8567693232      -30.6013971492  SOLV      519             0.0000000000
      1676       530  TIP3      H1             12.0519650248      -11.3524493232      -30.5552271492  SOLV      519             0.0000000000
      1677       530  TIP3      H2             10.9950050248      -12.0017993232      -29.6874371492  SOLV      519             0.0000000000
      1678       531  TIP3      OH2            11.7753450248      -10.8704993232      -21.4167371492  SOLV      520             0.0000000000
      1679       531  TIP3      H1             11.8943750248      -10.2969593232      -20.6596971492  SOLV      520             0.0000000000
      1680       531  TIP3      H2             12.4308050248      -11.5585593232      -21.3019571492  SOLV      520             0.0000000000
      1681       532  TIP3      OH2            12.1233750248      -14.7754693232      -29.6632871492  SOLV      521             0.0000000000
      1682       532  TIP3      H1             11.7767250248      -14.1584093232      -29.0188571492  SOLV      521             0.0000000000
      1683       532  TIP3      H2             12.7820650248      -14.2748993232      -30.1447371492  SOLV      521             0.0000000000
      1684       533  TIP3      OH2             9.0466350248       -0.4104493232      -32.5917971492  SOLV      522             0.0000000000
      1685       533  TIP3      H1              9.2075050248        0.3893006768      -33.0925371492  SOLV      522             0.0000000000
      1686       533  TIP3      H2              8.8494150248       -0.1038493232      -31.7067371492  SOLV      522             0.0000000000
      1687       534  TIP3      OH2             7.7810750248      -13.7125293232      -32.9760371492  SOLV      523             0.0000000000
      1688       534  TIP3      H1              7.6975550248      -12.8242193232      -32.6293971492  SOLV      523             0.0000000000
      1689       534  TIP3      H2              8.6711050248      -13.9778593232      -32.7443571492  SOLV      523             0.0000000000
      1690       535  TIP3      OH2            17.9799250248      -12.9634693232      -20.5817671492  SOLV      524             0.0000000000
      1691       535  TIP3      H1             17.0635050248      -12.7012993232      -20.6693971492  SOLV      524             0.0000000000
      1692       535  TIP3      H2             18.3154250248      -12.9665693232      -21.4782371492  SOLV      524             0.0000000000
      1693       536  TIP3      OH2            16.5820250248       -9.2133693232      -26.4860371492  SOLV      525             0.0000000000
      1694       536  TIP3      H1             15.7844650248       -9.6283493232      -26.8145371492  SOLV      525             0.0000000000
      1695       536  TIP3      H2             17.0271350248       -9.9039993232      -25.9949871492  SOLV      525             0.0000000000
      1696       537  TIP3      OH2             6.0396050248       -3.2853093232      -33.9155871492  SOLV      526             0.0000000000
      1697       537  TIP3      H1              6.6317550248       -2.5858293232      -33.6393471492  SOLV      526             0.0000000000
      1698       537  TIP3      H2              6.4989050248       -3.7183593232      -34.6351271492  SOLV      526             0.0000000000
      1699       538  TIP3      OH2             4.3555250248      -10.6210093232      -34.7996471492  SOLV      527             0.0000000000
      1700       538  TIP3      H1              4.3107850248       -9.6816993232      -34.6209471492  SOLV      527             0.0000000000
      1701       538  TIP3      H2              3.4678450248      -10.8565193232      -35.0694371492  SOLV      527             0.0000000000
      1702       539  TIP3      OH2            17.6684850248        0.0428806768      -24.8636871492  SOLV      528             0.0000000000
      1703       539  TIP3      H1             17.5129150248        0.7213206768      -25.5207571492  SOLV      528             0.0000000000
      1704       539  TIP3      H2             18.6011250248        0.1148106768      -24.6606271492  SOLV      528             0.0000000000
      1705       540  TIP3      OH2             5.1637250248      -15.8393493232      -26.1265471492  SOLV      529             0.0000000000
      1706       540  TIP3      H1              4.9347050248      -15.7800993232      -27.0540471492  SOLV      529             0.0000000000
      1707       540  TIP3      H2              4.7210650248      -16.6307993232      -25.8201371492  SOLV      529             0.0000000000
      1708       541  TIP3      OH2             4.0940550248       -1.8986393232      -29.9659671492  SOLV      530             0.0000000000
      1709       541  TIP3      H1              3.2619150248       -1.4263693232      -29.9388271492  SOLV      530             0.0000000000
      1710       541  TIP3      H2              4.6398850248       -1.3888793232      -30.5646571492  SOLV      530             0.0000000000
      1711       542  TIP3      OH2             3.3824250248        0.7137306768      -18.6361671492  SOLV      531             0.0000000000
      1712       542  TIP3      H1              3.9226450248        0.4971306768      -17.8762471492  SOLV      531             0.0000000000
      1713       542  TIP3      H2              2.9012250248       -0.0916693232      -18.8259171492  SOLV      531             0.0000000000
      1714       543  TIP3      OH2             7.9797650248       -0.3668293232      -17.0157471492  SOLV      532             0.0000000000
      1715       543  TIP3      H1              8.7474850248       -0.8257493232      -16.6748271492  SOLV      532             0.0000000000
      1716       543  TIP3      H2              7.9583850248       -0.5928493232      -17.9456271492  SOLV      532             0.0000000000
      1717       544  TIP3      OH2            14.5566350248       -1.9867193232      -18.2865971492  SOLV      533             0.0000000000
      1718       544  TIP3      H1             14.2055850248       -2.8434193232      -18.0435571492  SOLV      533             0.0000000000
      1719       544  TIP3      H2             15.2829550248       -1.8440493232      -17.6796971492  SOLV      533             0.0000000000
      1720       545  TIP3      OH2             3.2893750248       -5.4758593232      -17.6817371492  SOLV      534             0.0000000000
      1721       545  TIP3      H1              3.4334250248       -6.3777893232      -17.9680671492  SOLV      534             0.0000000000
      1722       545  TIP3      H2              2.5171150248       -5.1896493232      -18.1695071492  SOLV      534             0.0000000000
      1723       546  TIP3      OH2             7.6307450248       -5.1322893232      -35.5492771492  SOLV      535             0.0000000000
      1724       546  TIP3      H1              7.6951550248       -5.9263293232      -35.0186371492  SOLV      535             0.0000000000
      1725       546  TIP3      H2              8.2836650248       -5.2510093232      -36.2390771492  SOLV      535             0.0000000000
      1726       547  TIP3      OH2             9.9449850248       -5.5060493232      -18.2490971492  SOLV      536             0.0000000000
      1727       547  TIP3      H1              9.6163650248       -5.2352393232      -19.1063571492  SOLV      536             0.0000000000
      1728       547  TIP3      H2             10.0968050248       -6.4470693232      -18.3365971492  SOLV      536             0.0000000000
      1729       548  TIP3      OH2            15.6795050248       -5.5903193232      -20.8658671492  SOLV      537             0.0000000000
      1730       548  TIP3      H1             16.4249850248       -5.0019493232      -20.9854671492  SOLV      537             0.0000000000
      1731       548  TIP3      H2             14.9221850248       -5.0083493232      -20.8025571492  SOLV      537             0.0000000000
      1732       549  TIP3      OH2             4.1220250248       -8.2755293232      -18.2618071492  SOLV      538             0.0000000000
      1733       549  TIP3      H1              4.5301450248       -9.1328693232      -18.3827471492  SOLV      538             0.0000000000
      1734       549  TIP3      H2              3.8617850248       -8.2613993232      -17.3407771492  SOLV      538             0.0000000000
      1735       550  TIP3      OH2             8.7801250248       -7.1596693232      -33.2434771492  SOLV      539             0.0000000000
      1736       550  TIP3      H1              8.3203250248       -7.6438393232      -32.5576271492  SOLV      539             0.0000000000
      1737       550  TIP3      H2              9.0349950248       -7.8281293232      -33.8794271492  SOLV      539             0.0000000000
      1738       551  TIP3      OH2             8.0690550248       -9.2669593232      -20.8875171492  SOLV      540             0.0000000000
      1739       551  TIP3      H1              7.4506650248       -8.5922993232      -20.6070471492  SOLV      540             0.0000000000
      1740       551  TIP3      H2              8.4131750248       -8.9455693232      -21.7208971492  SOLV      540             0.0000000000
      1741       552  TIP3      OH2             9.8511650248       -8.9164893232      -34.9811571492  SOLV      541             0.0000000000
      1742       552  TIP3      H1              9.6706650248       -9.0713693232      -35.9083271492  SOLV      541             0.0000000000
      1743       552  TIP3      H2             10.8012150248       -8.8086193232      -34.9363671492  SOLV      541             0.0000000000
      1744       553  TIP3      OH2            13.0888750248       -6.7954293232      -17.6100371492  SOLV      542             0.0000000000
      1745       553  TIP3      H1             14.0419950248       -6.7115193232      -17.6374371492  SOLV      542             0.0000000000
      1746       553  TIP3      H2             12.9283350248       -7.5072493232      -16.9905471492  SOLV      542             0.0000000000
      1747       554  TIP3      OH2             8.4084250248      -11.9118793232      -19.8052071492  SOLV      543             0.0000000000
      1748       554  TIP3      H1              8.5585150248      -12.6407493232      -20.4072371492  SOLV      543             0.0000000000
      1749       554  TIP3      H2              8.4106650248      -11.1347093232      -20.3639871492  SOLV      543             0.0000000000
      1750       555  TIP3      OH2             8.8209950248      -13.5422993232      -22.3124671492  SOLV      544             0.0000000000
      1751       555  TIP3      H1              9.3567450248      -13.0906293232      -22.9645371492  SOLV      544             0.0000000000
      1752       555  TIP3      H2              7.9689550248      -13.6503193232      -22.7350571492  SOLV      544             0.0000000000
      1753       556  TIP3      OH2            10.4028350248       -8.1026793232      -22.0729471492  SOLV      545             0.0000000000
      1754       556  TIP3      H1             11.1533150248       -8.2589293232      -22.6461671492  SOLV      545             0.0000000000
      1755       556  TIP3      H2             10.0636650248       -7.2510193232      -22.3483971492  SOLV      545             0.0000000000
      1756       557  TIP3      OH2            14.8184550248      -10.2874993232      -17.0444171492  SOLV      546             0.0000000000
      1757       557  TIP3      H1             15.0105850248      -11.2185593232      -17.1559671492  SOLV      546             0.0000000000
      1758       557  TIP3      H2             15.6760850248       -9.8625493232      -17.0548771492  SOLV      546             0.0000000000
      1759       558  TIP3      OH2            16.1351750248       -7.4989793232      -18.9671471492  SOLV      547             0.0000000000
      1760       558  TIP3      H1             15.8536750248       -6.7895193232      -19.5447671492  SOLV      547             0.0000000000
      1761       558  TIP3      H2             17.0776050248       -7.5716793232      -19.1180271492  SOLV      547             0.0000000000
      1762       559  TIP3      OH2             6.8870550248      -10.7135293232      -17.8936471492  SOLV      548             0.0000000000
      1763       559  TIP3      H1              6.1199550248      -11.2460493232      -18.1038871492  SOLV      548             0.0000000000
      1764       559  TIP3      H2              7.5659550248      -11.0234893232      -18.4930171492  SOLV      548             0.0000000000
      1765       560  TIP3      OH2             9.6265450248      -16.0857293232      -21.8811071492  SOLV      549             0.0000000000
      1766       560  TIP3      H1              9.5285050248      -15.1394093232      -21.9864871492  SOLV      549             0.0000000000
      1767       560  TIP3      H2              8.8841650248      -16.4583493232      -22.3567571492  SOLV      549             0.0000000000
      1768       561  TIP3      OH2            10.8905950248      -11.7641893232      -18.3172671492  SOLV      550             0.0000000000
      1769       561  TIP3      H1             10.6551350248      -11.9835193232      -17.4157771492  SOLV      550             0.0000000000
      1770       561  TIP3      H2             10.1072850248      -11.9710693232      -18.8270171492  SOLV      550             0.0000000000
      1771       562  TIP3      OH2            13.6062550248      -12.6368393232      -19.2419171492  SOLV      551             0.0000000000
      1772       562  TIP3      H1             12.6587950248      -12.6048693232      -19.1095871492  SOLV      551             0.0000000000
      1773       562  TIP3      H2             13.9189250248      -13.2621293232      -18.5880971492  SOLV      551             0.0000000000
      1774       563  TIP3      OH2            15.2404050248      -14.0027293232      -17.2367271492  SOLV      552             0.0000000000
      1775       563  TIP3      H1             15.1435850248      -14.9549993232      -17.2425371492  SOLV      552             0.0000000000
      1776       563  TIP3      H2             14.9187150248      -13.7340493232      -16.3761771492  SOLV      552             0.0000000000
      1777       564  TIP3      OH2             5.0673350248      -12.7931493232      -18.1891771492  SOLV      553             0.0000000000
      1778       564  TIP3      H1              5.2790750248      -13.4995393232      -18.7994271492  SOLV      553             0.0000000000
      1779       564  TIP3      H2              4.9560850248      -13.2305493232      -17.3450571492  SOLV      553             0.0000000000
      1780       565  TIP3      OH2             9.8483550248      -16.7919893232      -19.2098271492  SOLV      554             0.0000000000
      1781       565  TIP3      H1             10.5601950248      -17.4317693232      -19.2239171492  SOLV      554             0.0000000000
      1782       565  TIP3      H2              9.7473950248      -16.5251593232      -20.1235171492  SOLV      554             0.0000000000
      1783       566  TIP3      OH2            10.2021050248      -15.1091493232      -17.1561971492  SOLV      555             0.0000000000
      1784       566  TIP3      H1             10.0703250248      -15.5847693232      -17.9763471492  SOLV      555             0.0000000000
      1785       566  TIP3      H2              9.6028450248      -14.3647893232      -17.2114871492  SOLV      555             0.0000000000
      1786       567  TIP3      OH2             3.3168250248       -3.5897393232      -34.4969871492  SOLV      556             0.0000000000
      1787       567  TIP3      H1              4.2307450248       -3.5108493232      -34.2235971492  SOLV      556             0.0000000000
      1788       567  TIP3      H2              3.3241350248       -4.2767793232      -35.1634271492  SOLV      556             0.0000000000
      1789       568  TIP3      OH2             1.9658850248        1.8031106768      -29.4195971492  SOLV      557             0.0000000000
      1790       568  TIP3      H1              1.3185950248        1.3412806768      -29.9524771492  SOLV      557             0.0000000000
      1791       568  TIP3      H2              2.3203450248        1.1314406768      -28.8369771492  SOLV      557             0.0000000000
      1792       569  TIP3      OH2             2.8358050248       -0.1161893232      -27.6149771492  SOLV      558             0.0000000000
      1793       569  TIP3      H1              2.5014850248       -0.9964593232      -27.4429571492  SOLV      558             0.0000000000
      1794       569  TIP3      H2              3.0580450248        0.2293106768      -26.7504171492  SOLV      558             0.0000000000
      1795       570  TIP3      OH2            20.3842850248        0.6934506768      -24.6344971492  SOLV      559             0.0000000000
      1796       570  TIP3      H1             20.3629550248        0.8782906768      -23.6955571492  SOLV      559             0.0000000000
      1797       570  TIP3      H2             21.0749050248        1.2618506768      -24.9753571492  SOLV      559             0.0000000000
      1798       571  TIP3      OH2            19.9475750248        0.2605606768      -21.7125871492  SOLV      560             0.0000000000
      1799       571  TIP3      H1             19.4604450248       -0.4750293232      -22.0838471492  SOLV      560             0.0000000000
      1800       571  TIP3      H2             20.4968450248       -0.1330493232      -21.0346471492  SOLV      560             0.0000000000
      1801       572  TIP3      OH2            18.3983050248       -3.9496293232      -17.0745571492  SOLV      561             0.0000000000
      1802       572  TIP3      H1             17.5324150248       -4.0546593232      -16.6803271492  SOLV      561             0.0000000000
      1803       572  TIP3      H2             18.7748950248       -3.1912993232      -16.6280871492  SOLV      561             0.0000000000
      1804       573  TIP3      OH2            20.0938350248       -7.6395193232      -29.7367371492  SOLV      562             0.0000000000
      1805       573  TIP3      H1             19.3672950248       -8.1192593232      -29.3389771492  SOLV      562             0.0000000000
      1806       573  TIP3      H2             20.6751650248       -7.4340493232      -29.0045771492  SOLV      562             0.0000000000
      1807       574  TIP3      OH2            19.8529550248       -4.8547693232      -24.7889771492  SOLV      563             0.0000000000
      1808       574  TIP3      H1             20.6863750248       -5.2327693232      -25.0696171492  SOLV      563             0.0000000000
      1809       574  TIP3      H2             19.9649850248       -3.9116493232      -24.9080671492  SOLV      563             0.0000000000
      1810       575  TIP3      OH2            18.3391850248       -1.9770193232      -22.4821371492  SOLV      564             0.0000000000
      1811       575  TIP3      H1             17.6917150248       -1.6518693232      -21.8566171492  SOLV      564             0.0000000000
      1812       575  TIP3      H2             17.8215850248       -2.4172493232      -23.1563071492  SOLV      564             0.0000000000
      1813       576  TIP3      OH2            17.8805150248       -9.1188693232      -29.1738671492  SOLV      565             0.0000000000
      1814       576  TIP3      H1             17.7303950248      -10.0640093232      -29.1940871492  SOLV      565             0.0000000000
      1815       576  TIP3      H2             17.5269650248       -8.8377293232      -28.3299571492  SOLV      565             0.0000000000
      1816       577  TIP3      OH2             2.9157550248       -7.0406493232      -25.1634871492  SOLV      566             0.0000000000
      1817       577  TIP3      H1              3.1000450248       -7.1224793232      -26.0991971492  SOLV      566             0.0000000000
      1818       577  TIP3      H2              3.7650450248       -7.1649493232      -24.7398471492  SOLV      566             0.0000000000
      1819       578  TIP3      OH2            18.7368050248       -7.1485393232      -19.5350371492  SOLV      567             0.0000000000
      1820       578  TIP3      H1             19.3195350248       -7.8833093232      -19.3433171492  SOLV      567             0.0000000000
      1821       578  TIP3      H2             19.3007350248       -6.3765093232      -19.4884571492  SOLV      567             0.0000000000
      1822       579  TIP3      OH2            20.2335150248       -9.2459593232      -18.8504971492  SOLV      568             0.0000000000
      1823       579  TIP3      H1             19.3701850248       -9.6247493232      -19.0160271492  SOLV      568             0.0000000000
      1824       579  TIP3      H2             20.8378850248       -9.9844793232      -18.9249171492  SOLV      568             0.0000000000
      1825       580  TIP3      OH2            17.5909950248      -11.5362893232      -30.7113571492  SOLV      569             0.0000000000
      1826       580  TIP3      H1             17.8707050248      -12.4432493232      -30.5871871492  SOLV      569             0.0000000000
      1827       580  TIP3      H2             18.3501650248      -11.1021393232      -31.1004371492  SOLV      569             0.0000000000
      1828       581  TIP3      OH2            18.2028250248      -10.9545493232      -25.2754671492  SOLV      570             0.0000000000
      1829       581  TIP3      H1             19.1356250248      -10.7425593232      -25.3098671492  SOLV      570             0.0000000000
      1830       581  TIP3      H2             17.9675750248      -10.8533393232      -24.3531671492  SOLV      570             0.0000000000
      1831       582  TIP3      OH2            18.2320150248      -10.2180193232      -22.4995271492  SOLV      571             0.0000000000
      1832       582  TIP3      H1             17.3891450248       -9.9499793232      -22.1335471492  SOLV      571             0.0000000000
      1833       582  TIP3      H2             18.6744450248       -9.3958293232      -22.7104171492  SOLV      571             0.0000000000
      1834       583  TIP3      OH2             2.5132350248      -11.7701493232      -19.0226071492  SOLV      572             0.0000000000
      1835       583  TIP3      H1              3.4327250248      -11.8923193232      -18.7862971492  SOLV      572             0.0000000000
      1836       583  TIP3      H2              2.0636850248      -12.5201793232      -18.6332571492  SOLV      572             0.0000000000
      1837       584  TIP3      OH2            20.5151750248      -16.2379993232      -17.1460271492  SOLV      573             0.0000000000
      1838       584  TIP3      H1             20.8648750248      -16.8916493232      -17.7515571492  SOLV      573             0.0000000000
      1839       584  TIP3      H2             20.6621250248      -15.4005893232      -17.5857671492  SOLV      573             0.0000000000
      1840       585  TIP3      OH2            18.2044750248      -14.2733593232      -30.6631571492  SOLV      574             0.0000000000
      1841       585  TIP3      H1             18.3869750248      -14.7222093232      -29.8376571492  SOLV      574             0.0000000000
      1842       585  TIP3      H2             17.6047650248      -14.8579193232      -31.1266971492  SOLV      574             0.0000000000
      1843       586  TIP3      OH2             3.7344850248      -13.4579893232      -26.1313171492  SOLV      575             0.0000000000
      1844       586  TIP3      H1              4.1796450248      -14.2497393232      -25.8293471492  SOLV      575             0.0000000000
      1845       586  TIP3      H2              4.2007850248      -12.7414693232      -25.7007571492  SOLV      575             0.0000000000
      1846       587  TIP3      OH2             2.0385150248      -10.4586893232      -25.0622971492  SOLV      576             0.0000000000
      1847       587  TIP3      H1              2.5304950248      -10.6796393232      -25.8530971492  SOLV      576             0.0000000000
      1848       587  TIP3      H2              2.4006050248       -9.6183493232      -24.7813471492  SOLV      576             0.0000000000
      1849       588  TIP3      OH2            20.0348950248      -14.1285393232      -18.7968971492  SOLV      577             0.0000000000
      1850       588  TIP3      H1             19.1174650248      -13.8578293232      -18.8325471492  SOLV      577             0.0000000000
      1851       588  TIP3      H2             20.1578350248      -14.6636993232      -19.5809271492  SOLV      577             0.0000000000
      1852       589  TIP3      OH2             2.3521650248      -14.2007793232      -31.0080571492  SOLV      578             0.0000000000
      1853       589  TIP3      H1              1.4270050248      -13.9921193232      -31.1375071492  SOLV      578             0.0000000000
      1854       589  TIP3      H2              2.8061550248      -13.7166993232      -31.6978271492  SOLV      578             0.0000000000
      1855       590  TIP3      OH2            17.1228850248        0.7833906768      -29.0623171492  SOLV      579             0.0000000000
      1856       590  TIP3      H1             17.7751750248        0.4356006768      -29.6704071492  SOLV      579             0.0000000000
      1857       590  TIP3      H2             17.6332650248        1.2717106768      -28.4163471492  SOLV      579             0.0000000000
      1858       591  TIP3      OH2             2.3157050248      -15.4628793232      -22.6638071492  SOLV      580             0.0000000000
      1859       591  TIP3      H1              1.6507550248      -15.7088493232      -22.0207171492  SOLV      580             0.0000000000
      1860       591  TIP3      H2              1.8728350248      -14.8408393232      -23.2410071492  SOLV      580             0.0000000000
      1861       592  TIP3      OH2             4.5076350248       -2.2874693232      -18.5192271492  SOLV      581             0.0000000000
      1862       592  TIP3      H1              3.6868850248       -2.1128193232      -18.9797571492  SOLV      581             0.0000000000
      1863       592  TIP3      H2              4.2554150248       -2.3609993232      -17.5987871492  SOLV      581             0.0000000000
      1864       593  TIP3      OH2             7.4619250248       -1.3133493232      -22.2608271492  SOLV      582             0.0000000000
      1865       593  TIP3      H1              7.0370350248       -0.5034993232      -22.5433671492  SOLV      582             0.0000000000
      1866       593  TIP3      H2              8.3662050248       -1.2279393232      -22.5628471492  SOLV      582             0.0000000000
      1867       594  TIP3      OH2            11.7730650248        0.0856506768      -19.3014571492  SOLV      583             0.0000000000
      1868       594  TIP3      H1             11.9578150248       -0.2477393232      -18.4234271492  SOLV      583             0.0000000000
      1869       594  TIP3      H2             12.6195150248        0.3955106768      -19.6235371492  SOLV      583             0.0000000000
      1870       595  TIP3      OH2            14.1181050248        1.3715406768      -20.0573171492  SOLV      584             0.0000000000
      1871       595  TIP3      H1             14.7949950248        0.7387706768      -20.2973971492  SOLV      584             0.0000000000
      1872       595  TIP3      H2             14.4399850248        1.7725906768      -19.2499871492  SOLV      584             0.0000000000
      1873       596  TIP3      OH2            19.0354850248      -16.0389093232      -20.9778171492  SOLV      585             0.0000000000
      1874       596  TIP3      H1             18.2228350248      -15.7138793232      -21.3653471492  SOLV      585             0.0000000000
      1875       596  TIP3      H2             19.2683350248      -16.7990593232      -21.5109071492  SOLV      585             0.0000000000
      1876       597  TIP3      OH2             4.8635950248        1.9430406768      -22.2132971492  SOLV      586             0.0000000000
      1877       597  TIP3      H1              4.1432350248        2.3831406768      -22.6645271492  SOLV      586             0.0000000000
      1878       597  TIP3      H2              4.4979950248        1.6925106768      -21.3648971492  SOLV      586             0.0000000000
      1879       598  TIP3      OH2             7.3308550248        1.5434306768      -23.1835771492  SOLV      587             0.0000000000
      1880       598  TIP3      H1              6.4660750248        1.6152806768      -22.7795671492  SOLV      587             0.0000000000
      1881       598  TIP3      H2              7.2757550248        2.0901606768      -23.9673271492  SOLV      587             0.0000000000
      1882       599  TIP3      OH2            12.0414150248        1.4313206768      -24.0079771492  SOLV      588             0.0000000000
      1883       599  TIP3      H1             11.5848150248        1.9602906768      -24.6621371492  SOLV      588             0.0000000000
      1884       599  TIP3      H2             12.2042150248        2.0344606768      -23.2827471492  SOLV      588             0.0000000000
      1885       600  TIP3      OH2            14.3690450248        0.3092806768      -23.0629471492  SOLV      589             0.0000000000
      1886       600  TIP3      H1             13.4644150248        0.4743006768      -23.3287371492  SOLV      589             0.0000000000
      1887       600  TIP3      H2             14.7979050248        1.1625006768      -23.1286071492  SOLV      589             0.0000000000
      1888       601  TIP3      OH2            16.9732350248        1.8791906768      -22.7681671492  SOLV      590             0.0000000000
      1889       601  TIP3      H1             16.7914350248        2.7950806768      -22.9786771492  SOLV      590             0.0000000000
      1890       601  TIP3      H2             17.1500150248        1.4689006768      -23.6147071492  SOLV      590             0.0000000000
      1891       602  TIP3      OH2             4.2784050248        0.5662906768      -25.3031171492  SOLV      591             0.0000000000
      1892       602  TIP3      H1              4.2600050248        0.1408006768      -24.4458871492  SOLV      591             0.0000000000
      1893       602  TIP3      H2              5.0831950248        0.2477906768      -25.7118971492  SOLV      591             0.0000000000
      1894       603  TIP3      OH2             6.4197150248       -0.7238393232      -26.6481271492  SOLV      592             0.0000000000
      1895       603  TIP3      H1              6.2007850248       -1.6400993232      -26.4785271492  SOLV      592             0.0000000000
      1896       603  TIP3      H2              7.2439350248       -0.5837993232      -26.1819871492  SOLV      592             0.0000000000
      1897       604  TIP3      OH2             8.9569650248       -0.2539093232      -25.7993271492  SOLV      593             0.0000000000
      1898       604  TIP3      H1              9.1695350248       -1.1420093232      -26.0862371492  SOLV      593             0.0000000000
      1899       604  TIP3      H2              9.0214750248       -0.2881393232      -24.8449271492  SOLV      593             0.0000000000
      1900       605  TIP3      OH2            12.4653350248      -14.5898493232      -26.6549971492  SOLV      594             0.0000000000
      1901       605  TIP3      H1             11.7910150248      -15.2192893232      -26.3994171492  SOLV      594             0.0000000000
      1902       605  TIP3      H2             13.0292550248      -15.0739593232      -27.2582071492  SOLV      594             0.0000000000
      1903       606  TIP3      OH2            17.6080550248      -16.4824493232      -26.5422871492  SOLV      595             0.0000000000
      1904       606  TIP3      H1             18.2118150248      -15.9349093232      -27.0441871492  SOLV      595             0.0000000000
      1905       606  TIP3      H2             16.7382550248      -16.1634093232      -26.7828771492  SOLV      595             0.0000000000
      1906       607  TIP3      OH2             4.7920850248      -15.9558193232      -28.8330071492  SOLV      596             0.0000000000
      1907       607  TIP3      H1              4.0150650248      -16.1903293232      -29.3404171492  SOLV      596             0.0000000000
      1908       607  TIP3      H2              5.3224450248      -16.7526093232      -28.8242071492  SOLV      596             0.0000000000
      1909       608  TIP3      OH2             3.6284250248      -16.1580093232      -33.0293971492  SOLV      597             0.0000000000
      1910       608  TIP3      H1              4.0674950248      -15.5469593232      -33.6210471492  SOLV      597             0.0000000000
      1911       608  TIP3      H2              2.9946650248      -15.6195993232      -32.5553971492  SOLV      597             0.0000000000
      1912       609  TIP3      OH2             9.3713450248      -16.0291093232      -29.0196971492  SOLV      598             0.0000000000
      1913       609  TIP3      H1             10.2456850248      -15.6406793232      -29.0492671492  SOLV      598             0.0000000000
      1914       609  TIP3      H2              9.2354250248      -16.2443293232      -28.0969771492  SOLV      598             0.0000000000
      1915       610  TIP3      OH2            14.9281850248      -15.9991293232      -27.3705271492  SOLV      599             0.0000000000
      1916       610  TIP3      H1             15.0043450248      -15.9039693232      -28.3199271492  SOLV      599             0.0000000000
      1917       610  TIP3      H2             14.6531050248      -16.9068393232      -27.2416171492  SOLV      599             0.0000000000
      1918       611  TIP3      OH2             3.5293750248       -0.2097893232      -32.1318871492  SOLV      600             0.0000000000
      1919       611  TIP3      H1              2.8443650248       -0.2478993232      -32.7993771492  SOLV      600             0.0000000000
      1920       611  TIP3      H2              3.5330950248        0.7029706768      -31.8436771492  SOLV      600             0.0000000000
      1921       612  TIP3      OH2             5.4893350248      -14.2418593232      -34.5869871492  SOLV      601             0.0000000000
      1922       612  TIP3      H1              5.9806750248      -14.8716193232      -35.1144371492  SOLV      601             0.0000000000
      1923       612  TIP3      H2              6.1129650248      -13.9459193232      -33.9238671492  SOLV      601             0.0000000000
      1924       613  TIP3      OH2            10.5153450248      -13.9487093232      -32.1299371492  SOLV      602             0.0000000000
      1925       613  TIP3      H1             10.6934750248      -14.5953893232      -31.4470771492  SOLV      602             0.0000000000
      1926       613  TIP3      H2             10.4619650248      -13.1149393232      -31.6628271492  SOLV      602             0.0000000000
      1927       614  TIP3      OH2             4.7498850248      -15.4416293232      -19.3153871492  SOLV      603             0.0000000000
      1928       614  TIP3      H1              4.3837050248      -16.2073693232      -18.8729171492  SOLV      603             0.0000000000
      1929       614  TIP3      H2              5.6627350248      -15.4126093232      -19.0288771492  SOLV      603             0.0000000000
      1930       615  TIP3      OH2             6.7229650248      -16.0911893232      -17.7796771492  SOLV      604             0.0000000000
      1931       615  TIP3      H1              7.6213250248      -16.3651693232      -17.9643371492  SOLV      604             0.0000000000
      1932       615  TIP3      H2              6.3362750248      -16.8335893232      -17.3154171492  SOLV      604             0.0000000000
      1933       616  TIP3      OH2             5.3474950248        0.7102906768      -35.1066771492  SOLV      605             0.0000000000
      1934       616  TIP3      H1              5.0799550248        0.9965806768      -34.2333671492  SOLV      605             0.0000000000
      1935       616  TIP3      H2              6.1187550248        0.1642106768      -34.9544271492  SOLV      605             0.0000000000
      1936       617  TIP3      OH2            15.1441950248      -16.7586593232      -17.5973971492  SOLV      606             0.0000000000
      1937       617  TIP3      H1             15.2209150248      -17.1845893232      -16.7436271492  SOLV      606             0.0000000000
      1938       617  TIP3      H2             16.0378550248      -16.7451893232      -17.9400471492  SOLV      606             0.0000000000
      1939       618  TIP3      OH2            18.3203050248       -0.6860293232      -18.9049771492  SOLV      607             0.0000000000
      1940       618  TIP3      H1             17.5384950248       -0.8722293232      -19.4249171492  SOLV      607             0.0000000000
      1941       618  TIP3      H2             18.2482950248        0.2434006768      -18.6877271492  SOLV      607             0.0000000000
      1942       619  TIP3      OH2            24.0279750248       -7.9303093232      -23.8624471492  SOLV      608             0.0000000000
      1943       619  TIP3      H1             24.0691850248       -8.5559793232      -23.1392071492  SOLV      608             0.0000000000
      1944       619  TIP3      H2             24.7307450248       -7.3064493232      -23.6804071492  SOLV      608             0.0000000000
      1945       620  TIP3      OH2            24.9512850248       -3.4804193232      -25.3275371492  SOLV      609             0.0000000000
      1946       620  TIP3      H1             24.5818050248       -4.2823693232      -25.6971071492  SOLV      609             0.0000000000
      1947       620  TIP3      H2             25.8923950248       -3.6489293232      -25.2811971492  SOLV      609             0.0000000000
      1948       621  TIP3      OH2            21.5613350248       -9.8201593232      -29.9346571492  SOLV      610             0.0000000000
      1949       621  TIP3      H1             21.1136750248       -8.9742893232      -29.9530071492  SOLV      610             0.0000000000
      1950       621  TIP3      H2             21.0004550248      -10.3997393232      -30.4501471492  SOLV      610             0.0000000000
      1951       622  TIP3      OH2            22.2719450248       -7.6581993232      -27.8088571492  SOLV      611             0.0000000000
      1952       622  TIP3      H1             22.4852950248       -8.4280393232      -27.2815571492  SOLV      611             0.0000000000
      1953       622  TIP3      H2             23.0097050248       -7.5685293232      -28.4120971492  SOLV      611             0.0000000000
      1954       623  TIP3      OH2            22.9645950248      -10.2199193232      -26.6872371492  SOLV      612             0.0000000000
      1955       623  TIP3      H1             23.6182550248      -10.7697493232      -26.2552271492  SOLV      612             0.0000000000
      1956       623  TIP3      H2             22.9885250248      -10.4940193232      -27.6040371492  SOLV      612             0.0000000000
      1957       624  TIP3      OH2            25.1546350248      -13.6986593232      -23.3752971492  SOLV      613             0.0000000000
      1958       624  TIP3      H1             24.9358050248      -13.1685993232      -24.1416971492  SOLV      613             0.0000000000
      1959       624  TIP3      H2             24.4867250248      -13.4721093232      -22.7281571492  SOLV      613             0.0000000000
      1960       625  TIP3      OH2            27.7237750248       -6.0230893232      -23.0879271492  SOLV      614             0.0000000000
      1961       625  TIP3      H1             26.9836850248       -5.4249393232      -22.9844071492  SOLV      614             0.0000000000
      1962       625  TIP3      H2             28.4377250248       -5.4691293232      -23.4035671492  SOLV      614             0.0000000000
      1963       626  TIP3      OH2            24.7483650248      -11.8064793232      -25.4230771492  SOLV      615             0.0000000000
      1964       626  TIP3      H1             25.3619950248      -11.1737193232      -25.0498371492  SOLV      615             0.0000000000
      1965       626  TIP3      H2             25.2604350248      -12.2789793232      -26.0793871492  SOLV      615             0.0000000000
      1966       627  TIP3      OH2            26.1312050248       -4.0587893232      -22.3007771492  SOLV      616             0.0000000000
      1967       627  TIP3      H1             26.1259650248       -3.1794393232      -22.6788471492  SOLV      616             0.0000000000
      1968       627  TIP3      H2             25.2776150248       -4.1423793232      -21.8757871492  SOLV      616             0.0000000000
      1969       628  TIP3      OH2            26.8652850248       -7.9470793232      -24.9546371492  SOLV      617             0.0000000000
      1970       628  TIP3      H1             27.4305350248       -7.8256593232      -25.7175171492  SOLV      617             0.0000000000
      1971       628  TIP3      H2             27.1841750248       -7.3095793232      -24.3157871492  SOLV      617             0.0000000000
      1972       629  TIP3      OH2            27.7453550248       -3.5478093232      -20.2374471492  SOLV      618             0.0000000000
      1973       629  TIP3      H1             27.4341050248       -2.7654893232      -19.7821271492  SOLV      618             0.0000000000
      1974       629  TIP3      H2             27.0953750248       -3.7008993232      -20.9232471492  SOLV      618             0.0000000000
      1975       630  TIP3      OH2            24.6653450248       -7.3496993232      -21.0088771492  SOLV      619             0.0000000000
      1976       630  TIP3      H1             24.7356650248       -6.6990193232      -20.3103771492  SOLV      619             0.0000000000
      1977       630  TIP3      H2             23.7745650248       -7.2469493232      -21.3437871492  SOLV      619             0.0000000000
      1978       631  TIP3      OH2            25.9849450248       -1.4763093232      -19.4740671492  SOLV      620             0.0000000000
      1979       631  TIP3      H1             25.9924750248       -1.6123393232      -20.4215171492  SOLV      620             0.0000000000
      1980       631  TIP3      H2             25.0689850248       -1.5934993232      -19.2220671492  SOLV      620             0.0000000000
      1981       632  TIP3      OH2            21.5820150248       -5.2832893232      -22.1838771492  SOLV      621             0.0000000000
      1982       632  TIP3      H1             21.0808550248       -5.3113493232      -22.9989071492  SOLV      621             0.0000000000
      1983       632  TIP3      H2             21.5873850248       -6.1889693232      -21.8741471492  SOLV      621             0.0000000000
      1984       633  TIP3      OH2            21.3322850248       -2.5029093232      -25.2998571492  SOLV      622             0.0000000000
      1985       633  TIP3      H1             22.2783450248       -2.6472093232      -25.3189071492  SOLV      622             0.0000000000
      1986       633  TIP3      H2             21.2199150248       -1.7186293232      -24.7627371492  SOLV      622             0.0000000000
      1987       634  TIP3      OH2            30.5085350248       -2.2630193232      -20.7413471492  SOLV      623             0.0000000000
      1988       634  TIP3      H1             30.5959950248       -1.4365593232      -20.2664371492  SOLV      623             0.0000000000
      1989       634  TIP3      H2             29.6450450248       -2.5926393232      -20.4924171492  SOLV      623             0.0000000000
      1990       635  TIP3      OH2            23.8310650248       -3.9597493232      -21.1405971492  SOLV      624             0.0000000000
      1991       635  TIP3      H1             24.0471950248       -4.3211893232      -20.2810171492  SOLV      624             0.0000000000
      1992       635  TIP3      H2             22.9755350248       -4.3343693232      -21.3502471492  SOLV      624             0.0000000000
      1993       636  TIP3      OH2            26.4498650248      -15.4896993232      -25.1451771492  SOLV      625             0.0000000000
      1994       636  TIP3      H1             25.5882350248      -15.5768793232      -25.5528871492  SOLV      625             0.0000000000
      1995       636  TIP3      H2             26.4274350248      -14.6336893232      -24.7174171492  SOLV      625             0.0000000000
      1996       637  TIP3      OH2            26.5408750248      -10.5242493232      -24.0501571492  SOLV      626             0.0000000000
      1997       637  TIP3      H1             25.8990850248      -10.5645193232      -23.3411471492  SOLV      626             0.0000000000
      1998       637  TIP3      H2             26.5780750248       -9.5977793232      -24.2878571492  SOLV      626             0.0000000000
      1999       638  TIP3      OH2            24.2909250248      -10.2038993232      -22.1829571492  SOLV      627             0.0000000000
      2000       638  TIP3      H1             24.2528650248       -9.8037393232      -21.3142471492  SOLV      627             0.0000000000
      2001       638  TIP3      H2             23.8000350248      -11.0206593232      -22.0926671492  SOLV      627             0.0000000000
      2002       639  TIP3      OH2            23.9476550248      -11.2468593232      -29.2249871492  SOLV      628             0.0000000000
      2003       639  TIP3      H1             23.0584550248      -11.1473093232      -29.5650271492  SOLV      628             0.0000000000
      2004       639  TIP3      H2             24.2441450248      -12.0885593232      -29.5711971492  SOLV      628             0.0000000000
      2005       640  TIP3      OH2            24.4099950248       -5.4951893232      -18.9027571492  SOLV      629             0.0000000000
      2006       640  TIP3      H1             25.1422350248       -5.2405993232      -18.3413071492  SOLV      629             0.0000000000
      2007       640  TIP3      H2             23.6298650248       -5.2906493232      -18.3872171492  SOLV      629             0.0000000000
      2008       641  TIP3      OH2            30.4392850248      -10.0881893232      -26.1647871492  SOLV      630             0.0000000000
      2009       641  TIP3      H1             31.0036250248      -10.6345293232      -26.7118271492  SOLV      630             0.0000000000
      2010       641  TIP3      H2             30.2916250248      -10.6099993232      -25.3760271492  SOLV      630             0.0000000000
      2011       642  TIP3      OH2            29.0658750248      -11.6995793232      -23.7507471492  SOLV      631             0.0000000000
      2012       642  TIP3      H1             28.2304050248      -11.2456293232      -23.6405071492  SOLV      631             0.0000000000
      2013       642  TIP3      H2             29.5899350248      -11.4237293232      -22.9987571492  SOLV      631             0.0000000000
      2014       643  TIP3      OH2            31.1293450248       -5.3024793232      -20.8291971492  SOLV      632             0.0000000000
      2015       643  TIP3      H1             30.7839550248       -5.6842393232      -20.0222371492  SOLV      632             0.0000000000
      2016       643  TIP3      H2             30.9293550248       -4.3691193232      -20.7579071492  SOLV      632             0.0000000000
      2017       644  TIP3      OH2            24.7349650248       -6.1918093232      -26.2963171492  SOLV      633             0.0000000000
      2018       644  TIP3      H1             25.4796850248       -6.1942393232      -26.8976671492  SOLV      633             0.0000000000
      2019       644  TIP3      H2             24.8126250248       -7.0154293232      -25.8148071492  SOLV      633             0.0000000000
      2020       645  TIP3      OH2            21.7429350248       -7.7311193232      -20.9814671492  SOLV      634             0.0000000000
      2021       645  TIP3      H1             21.9657950248       -8.1491593232      -20.1497171492  SOLV      634             0.0000000000
      2022       645  TIP3      H2             21.1409450248       -8.3436193232      -21.4041871492  SOLV      634             0.0000000000
      2023       646  TIP3      OH2            28.7594250248       -8.2141293232      -18.7684971492  SOLV      635             0.0000000000
      2024       646  TIP3      H1             28.4635050248       -8.3798293232      -19.6635871492  SOLV      635             0.0000000000
      2025       646  TIP3      H2             29.6909450248       -8.4340993232      -18.7791071492  SOLV      635             0.0000000000
      2026       647  TIP3      OH2            33.3797050248       -2.8409293232      -20.8786971492  SOLV      636             0.0000000000
      2027       647  TIP3      H1             32.4791350248       -2.6576693232      -21.1463071492  SOLV      636             0.0000000000
      2028       647  TIP3      H2             33.4138150248       -2.5819993232      -19.9578171492  SOLV      636             0.0000000000
      2029       648  TIP3      OH2            29.0517950248       -0.8616393232      -23.0006271492  SOLV      637             0.0000000000
      2030       648  TIP3      H1             29.4142650248       -0.0070793232      -23.2341871492  SOLV      637             0.0000000000
      2031       648  TIP3      H2             29.5833150248       -1.1534793232      -22.2599971492  SOLV      637             0.0000000000
      2032       649  TIP3      OH2            23.3768850248      -12.9778493232      -21.4233271492  SOLV      638             0.0000000000
      2033       649  TIP3      H1             22.4841150248      -12.6393093232      -21.4909271492  SOLV      638             0.0000000000
      2034       649  TIP3      H2             23.2781650248      -13.8332393232      -21.0052471492  SOLV      638             0.0000000000
      2035       650  TIP3      OH2            23.0280850248       -1.1734093232      -22.9883871492  SOLV      639             0.0000000000
      2036       650  TIP3      H1             23.2451150248       -2.1051693232      -23.0194171492  SOLV      639             0.0000000000
      2037       650  TIP3      H2             23.2744350248       -0.8989093232      -22.1051071492  SOLV      639             0.0000000000
      2038       651  TIP3      OH2            22.2384250248        0.7137306768      -18.6361671492  SOLV      640             0.0000000000
      2039       651  TIP3      H1             22.7786450248        0.4971306768      -17.8762471492  SOLV      640             0.0000000000
      2040       651  TIP3      H2             21.7572250248       -0.0916693232      -18.8259171492  SOLV      640             0.0000000000
      2041       652  TIP3      OH2            26.8357650248       -0.3668293232      -17.0157471492  SOLV      641             0.0000000000
      2042       652  TIP3      H1             27.6034850248       -0.8257493232      -16.6748271492  SOLV      641             0.0000000000
      2043       652  TIP3      H2             26.8143850248       -0.5928493232      -17.9456271492  SOLV      641             0.0000000000
      2044       653  TIP3      OH2            33.4126350248       -1.9867193232      -18.2865971492  SOLV      642             0.0000000000
      2045       653  TIP3      H1             33.0615850248       -2.8434193232      -18.0435571492  SOLV      642             0.0000000000
      2046       653  TIP3      H2             34.1389550248       -1.8440493232      -17.6796971492  SOLV      642             0.0000000000
      2047       654  TIP3      OH2            22.1453750248       -5.4758593232      -17.6817371492  SOLV      643             0.0000000000
      2048       654  TIP3      H1             22.2894250248       -6.3777893232      -17.9680671492  SOLV      643             0.0000000000
      2049       654  TIP3      H2             21.3731150248       -5.1896493232      -18.1695071492  SOLV      643             0.0000000000
      2050       655  TIP3      OH2            28.8009850248       -5.5060493232      -18.2490971492  SOLV      644             0.0000000000
      2051       655  TIP3      H1             28.4723650248       -5.2352393232      -19.1063571492  SOLV      644             0.0000000000
      2052       655  TIP3      H2             28.9528050248       -6.4470693232      -18.3365971492  SOLV      644             0.0000000000
      2053       656  TIP3      OH2            22.9780250248       -8.2755293232      -18.2618071492  SOLV      645             0.0000000000
      2054       656  TIP3      H1             23.3861450248       -9.1328693232      -18.3827471492  SOLV      645             0.0000000000
      2055       656  TIP3      H2             22.7177850248       -8.2613993232      -17.3407771492  SOLV      645             0.0000000000
      2056       657  TIP3      OH2            26.9250550248       -9.2669593232      -20.8875171492  SOLV      646             0.0000000000
      2057       657  TIP3      H1             26.3066650248       -8.5922993232      -20.6070471492  SOLV      646             0.0000000000
      2058       657  TIP3      H2             27.2691750248       -8.9455693232      -21.7208971492  SOLV      646             0.0000000000
      2059       658  TIP3      OH2            27.2644250248      -11.9118793232      -19.8052071492  SOLV      647             0.0000000000
      2060       658  TIP3      H1             27.4145150248      -12.6407493232      -20.4072371492  SOLV      647             0.0000000000
      2061       658  TIP3      H2             27.2666650248      -11.1347093232      -20.3639871492  SOLV      647             0.0000000000
      2062       659  TIP3      OH2            27.6769950248      -13.5422993232      -22.3124671492  SOLV      648             0.0000000000
      2063       659  TIP3      H1             28.2127450248      -13.0906293232      -22.9645371492  SOLV      648             0.0000000000
      2064       659  TIP3      H2             26.8249550248      -13.6503193232      -22.7350571492  SOLV      648             0.0000000000
      2065       660  TIP3      OH2            29.2588350248       -8.1026793232      -22.0729471492  SOLV      649             0.0000000000
      2066       660  TIP3      H1             30.0093150248       -8.2589293232      -22.6461671492  SOLV      649             0.0000000000
      2067       660  TIP3      H2             28.9196650248       -7.2510193232      -22.3483971492  SOLV      649             0.0000000000
      2068       661  TIP3      OH2            25.7430550248      -10.7135293232      -17.8936471492  SOLV      650             0.0000000000
      2069       661  TIP3      H1             24.9759550248      -11.2460493232      -18.1038871492  SOLV      650             0.0000000000
      2070       661  TIP3      H2             26.4219550248      -11.0234893232      -18.4930171492  SOLV      650             0.0000000000
      2071       662  TIP3      OH2            28.4825450248      -16.0857293232      -21.8811071492  SOLV      651             0.0000000000
      2072       662  TIP3      H1             28.3845050248      -15.1394093232      -21.9864871492  SOLV      651             0.0000000000
      2073       662  TIP3      H2             27.7401650248      -16.4583493232      -22.3567571492  SOLV      651             0.0000000000
      2074       663  TIP3      OH2            29.7465950248      -11.7641893232      -18.3172671492  SOLV      652             0.0000000000
      2075       663  TIP3      H1             29.5111350248      -11.9835193232      -17.4157771492  SOLV      652             0.0000000000
      2076       663  TIP3      H2             28.9632850248      -11.9710693232      -18.8270171492  SOLV      652             0.0000000000
      2077       664  TIP3      OH2            23.9233350248      -12.7931493232      -18.1891771492  SOLV      653             0.0000000000
      2078       664  TIP3      H1             24.1350750248      -13.4995393232      -18.7994271492  SOLV      653             0.0000000000
      2079       664  TIP3      H2             23.8120850248      -13.2305493232      -17.3450571492  SOLV      653             0.0000000000
      2080       665  TIP3      OH2            29.0581050248      -15.1091493232      -17.1561971492  SOLV      654             0.0000000000
      2081       665  TIP3      H1             28.9263250248      -15.5847693232      -17.9763471492  SOLV      654             0.0000000000
      2082       665  TIP3      H2             28.4588450248      -14.3647893232      -17.2114871492  SOLV      654             0.0000000000
      2083       666  TIP3      OH2            21.6918050248       -0.1161893232      -27.6149771492  SOLV      655             0.0000000000
      2084       666  TIP3      H1             21.3574850248       -0.9964593232      -27.4429571492  SOLV      655             0.0000000000
      2085       666  TIP3      H2             21.9140450248        0.2293106768      -26.7504171492  SOLV      655             0.0000000000
      2086       667  TIP3      OH2            21.7717550248       -7.0406493232      -25.1634871492  SOLV      656             0.0000000000
      2087       667  TIP3      H1             21.9560450248       -7.1224793232      -26.0991971492  SOLV      656             0.0000000000
      2088       667  TIP3      H2             22.6210450248       -7.1649493232      -24.7398471492  SOLV      656             0.0000000000
      2089       668  TIP3      OH2            21.3692350248      -11.7701493232      -19.0226071492  SOLV      657             0.0000000000
      2090       668  TIP3      H1             22.2887250248      -11.8923193232      -18.7862971492  SOLV      657             0.0000000000
      2091       668  TIP3      H2             20.9196850248      -12.5201793232      -18.6332571492  SOLV      657             0.0000000000
      2092       669  TIP3      OH2            22.5904850248      -13.4579893232      -26.1313171492  SOLV      658             0.0000000000
      2093       669  TIP3      H1             23.0356450248      -14.2497393232      -25.8293471492  SOLV      658             0.0000000000
      2094       669  TIP3      H2             23.0567850248      -12.7414693232      -25.7007571492  SOLV      658             0.0000000000
      2095       670  TIP3      OH2            20.8945150248      -10.4586893232      -25.0622971492  SOLV      659             0.0000000000
      2096       670  TIP3      H1             21.3864950248      -10.6796393232      -25.8530971492  SOLV      659             0.0000000000
      2097       670  TIP3      H2             21.2566050248       -9.6183493232      -24.7813471492  SOLV      659             0.0000000000
      2098       671  TIP3      OH2            21.1717050248      -15.4628793232      -22.6638071492  SOLV      660             0.0000000000
      2099       671  TIP3      H1             20.5067550248      -15.7088493232      -22.0207171492  SOLV      660             0.0000000000
      2100       671  TIP3      H2             20.7288350248      -14.8408393232      -23.2410071492  SOLV      660             0.0000000000
      2101       672  TIP3      OH2            23.3636350248       -2.2874693232      -18.5192271492  SOLV      661             0.0000000000
      2102       672  TIP3      H1             22.5428850248       -2.1128193232      -18.9797571492  SOLV      661             0.0000000000
      2103       672  TIP3      H2             23.1114150248       -2.3609993232      -17.5987871492  SOLV      661             0.0000000000
      2104       673  TIP3      OH2            26.3179250248       -1.3133493232      -22.2608271492  SOLV      662             0.0000000000
      2105       673  TIP3      H1             25.8930350248       -0.5034993232      -22.5433671492  SOLV      662             0.0000000000
      2106       673  TIP3      H2             27.2222050248       -1.2279393232      -22.5628471492  SOLV      662             0.0000000000
      2107       674  TIP3      OH2            30.6290650248        0.0856506768      -19.3014571492  SOLV      663             0.0000000000
      2108       674  TIP3      H1             30.8138150248       -0.2477393232      -18.4234271492  SOLV      663             0.0000000000
      2109       674  TIP3      H2             31.4755150248        0.3955106768      -19.6235371492  SOLV      663             0.0000000000
      2110       675  TIP3      OH2            32.9741050248        1.3715406768      -20.0573171492  SOLV      664             0.0000000000
      2111       675  TIP3      H1             33.6509950248        0.7387706768      -20.2973971492  SOLV      664             0.0000000000
      2112       675  TIP3      H2             33.2959850248        1.7725906768      -19.2499871492  SOLV      664             0.0000000000
      2113       676  TIP3      OH2            23.7195950248        1.9430406768      -22.2132971492  SOLV      665             0.0000000000
      2114       676  TIP3      H1             22.9992350248        2.3831406768      -22.6645271492  SOLV      665             0.0000000000
      2115       676  TIP3      H2             23.3539950248        1.6925106768      -21.3648971492  SOLV      665             0.0000000000
      2116       677  TIP3      OH2            26.1868550248        1.5434306768      -23.1835771492  SOLV      666             0.0000000000
      2117       677  TIP3      H1             25.3220750248        1.6152806768      -22.7795671492  SOLV      666             0.0000000000
      2118       677  TIP3      H2             26.1317550248        2.0901606768      -23.9673271492  SOLV      666             0.0000000000
      2119       678  TIP3      OH2            23.1344050248        0.5662906768      -25.3031171492  SOLV      667             0.0000000000
      2120       678  TIP3      H1             23.1160050248        0.1408006768      -24.4458871492  SOLV      667             0.0000000000
      2121       678  TIP3      H2             23.9391950248        0.2477906768      -25.7118971492  SOLV      667             0.0000000000
      2122       679  TIP3      OH2            23.6058850248      -15.4416293232      -19.3153871492  SOLV      668             0.0000000000
      2123       679  TIP3      H1             23.2397050248      -16.2073693232      -18.8729171492  SOLV      668             0.0000000000
      2124       679  TIP3      H2             24.5187350248      -15.4126093232      -19.0288771492  SOLV      668             0.0000000000
      2125       680  TIP3      OH2            25.5789650248      -16.0911893232      -17.7796771492  SOLV      669             0.0000000000
      2126       680  TIP3      H1             26.4773250248      -16.3651693232      -17.9643371492  SOLV      669             0.0000000000
      2127       680  TIP3      H2             25.1922750248      -16.8335893232      -17.3154171492  SOLV      669             0.0000000000
      2128       681  TIP3      OH2           -24.9085249752       11.3114806768      -25.4554371492  SOLV      670             0.0000000000
      2129       681  TIP3      H1            -24.9467749752       10.6651106768      -24.7504771492  SOLV      670             0.0000000000
      2130       681  TIP3      H2            -25.2308749752       10.8449206768      -26.2265671492  SOLV      670             0.0000000000
      2131       682  TIP3      OH2           -21.2025049752       14.2505206768      -27.1539271492  SOLV      671             0.0000000000
      2132       682  TIP3      H1            -21.6432349752       13.5301206768      -26.7033671492  SOLV      671             0.0000000000
      2133       682  TIP3      H2            -21.2155349752       14.9712406768      -26.5241571492  SOLV      671             0.0000000000
      2134       683  TIP3      OH2           -26.5190849752       13.7436206768      -25.0493371492  SOLV      672             0.0000000000
      2135       683  TIP3      H1            -26.2152949752       13.0577606768      -25.6439271492  SOLV      672             0.0000000000
      2136       683  TIP3      H2            -25.7976849752       13.8624906768      -24.4315371492  SOLV      672             0.0000000000
      2137       684  TIP3      OH2           -17.8561049752        5.3451506768      -24.1887171492  SOLV      673             0.0000000000
      2138       684  TIP3      H1            -17.8068849752        5.9552706768      -23.4528071492  SOLV      673             0.0000000000
      2139       684  TIP3      H2            -17.4305949752        5.8062406768      -24.9116071492  SOLV      673             0.0000000000
      2140       685  TIP3      OH2           -23.3783849752        8.1378606768      -24.7218571492  SOLV      674             0.0000000000
      2141       685  TIP3      H1            -23.2357949752        7.1915606768      -24.7016971492  SOLV      674             0.0000000000
      2142       685  TIP3      H2            -23.4844849752        8.3448406768      -25.6503671492  SOLV      674             0.0000000000
      2143       686  TIP3      OH2           -22.5012849752        6.3700606768      -29.0485471492  SOLV      675             0.0000000000
      2144       686  TIP3      H1            -21.8548549752        6.0413806768      -28.4237871492  SOLV      675             0.0000000000
      2145       686  TIP3      H2            -21.9913449752        6.8879606768      -29.6714071492  SOLV      675             0.0000000000
      2146       687  TIP3      OH2           -17.4646449752        6.8230706768      -21.9527371492  SOLV      676             0.0000000000
      2147       687  TIP3      H1            -18.1531849752        7.4811406768      -22.0480771492  SOLV      676             0.0000000000
      2148       687  TIP3      H2            -17.4491849752        6.6258606768      -21.0161971492  SOLV      676             0.0000000000
      2149       688  TIP3      OH2           -31.4133649752        5.1573406768      -23.3752971492  SOLV      677             0.0000000000
      2150       688  TIP3      H1            -31.6321949752        5.6874006768      -24.1416971492  SOLV      677             0.0000000000
      2151       688  TIP3      H2            -32.0812749752        5.3838906768      -22.7281571492  SOLV      677             0.0000000000
      2152       689  TIP3      OH2           -28.8442249752       12.8329106768      -23.0879271492  SOLV      678             0.0000000000
      2153       689  TIP3      H1            -29.5843149752       13.4310606768      -22.9844071492  SOLV      678             0.0000000000
      2154       689  TIP3      H2            -28.1302749752       13.3868706768      -23.4035671492  SOLV      678             0.0000000000
      2155       690  TIP3      OH2           -20.7374449752        5.6609906768      -27.0679571492  SOLV      679             0.0000000000
      2156       690  TIP3      H1            -20.9526449752        4.8953306768      -26.5353571492  SOLV      679             0.0000000000
      2157       690  TIP3      H2            -20.0817049752        6.1334506768      -26.5551071492  SOLV      679             0.0000000000
      2158       691  TIP3      OH2           -20.6907349752       16.0895906768      -24.8059971492  SOLV      680             0.0000000000
      2159       691  TIP3      H1            -21.6323649752       16.1479806768      -24.6443071492  SOLV      680             0.0000000000
      2160       691  TIP3      H2            -20.4141249752       16.9956406768      -24.9430271492  SOLV      680             0.0000000000
      2161       692  TIP3      OH2           -20.3900349752        4.3761206768      -23.3886071492  SOLV      681             0.0000000000
      2162       692  TIP3      H1            -21.1261149752        4.9868306768      -23.4264771492  SOLV      681             0.0000000000
      2163       692  TIP3      H2            -19.7066349752        4.7910206768      -23.9149671492  SOLV      681             0.0000000000
      2164       693  TIP3      OH2           -19.5929449752       14.3384606768      -21.1948271492  SOLV      682             0.0000000000
      2165       693  TIP3      H1            -19.4533149752       13.7467106768      -21.9341271492  SOLV      682             0.0000000000
      2166       693  TIP3      H2            -19.4256649752       15.2110506768      -21.5509471492  SOLV      682             0.0000000000
      2167       694  TIP3      OH2           -17.7510149752       10.6782606768      -23.1287871492  SOLV      683             0.0000000000
      2168       694  TIP3      H1            -18.4036049752       11.3728206768      -23.0396971492  SOLV      683             0.0000000000
      2169       694  TIP3      H2            -17.2859849752       10.8883506768      -23.9386271492  SOLV      683             0.0000000000
      2170       695  TIP3      OH2           -21.7146349752       11.5097406768      -30.4706371492  SOLV      684             0.0000000000
      2171       695  TIP3      H1            -22.4465349752       11.7381106768      -29.8975771492  SOLV      684             0.0000000000
      2172       695  TIP3      H2            -21.2674149752       10.7960106768      -30.0158871492  SOLV      684             0.0000000000
      2173       696  TIP3      OH2           -21.8172849752        9.6840006768      -21.4029371492  SOLV      685             0.0000000000
      2174       696  TIP3      H1            -21.7373749752       10.4474406768      -20.8310871492  SOLV      685             0.0000000000
      2175       696  TIP3      H2            -22.4185149752        9.9632406768      -22.0934271492  SOLV      685             0.0000000000
      2176       697  TIP3      OH2           -29.7027149752       10.9089206768      -24.9546371492  SOLV      686             0.0000000000
      2177       697  TIP3      H1            -29.1374649752       11.0303406768      -25.7175171492  SOLV      686             0.0000000000
      2178       697  TIP3      H2            -29.3838249752       11.5464206768      -24.3157871492  SOLV      686             0.0000000000
      2179       698  TIP3      OH2           -23.3934949752       16.4121106768      -24.2205871492  SOLV      687             0.0000000000
      2180       698  TIP3      H1            -23.6338349752       17.0744206768      -23.5726671492  SOLV      687             0.0000000000
      2181       698  TIP3      H2            -23.5916749752       15.5776306768      -23.7956271492  SOLV      687             0.0000000000
      2182       699  TIP3      OH2           -17.0378649752       17.0190606768      -19.6174871492  SOLV      688             0.0000000000
      2183       699  TIP3      H1            -17.0871849752       16.0638706768      -19.6547271492  SOLV      688             0.0000000000
      2184       699  TIP3      H2            -17.8646349752       17.2865906768      -19.2161071492  SOLV      688             0.0000000000
      2185       700  TIP3      OH2           -26.0594649752       16.5929806768      -20.7413471492  SOLV      689             0.0000000000
      2186       700  TIP3      H1            -25.9720049752       17.4194406768      -20.2664371492  SOLV      689             0.0000000000
      2187       700  TIP3      H2            -26.9229549752       16.2633606768      -20.4924171492  SOLV      689             0.0000000000
      2188       701  TIP3      OH2           -19.8858849752        8.5123106768      -19.1372671492  SOLV      690             0.0000000000
      2189       701  TIP3      H1            -20.2932049752        8.9928706768      -19.8579371492  SOLV      690             0.0000000000
      2190       701  TIP3      H2            -19.8453149752        7.6069106768      -19.4451871492  SOLV      690             0.0000000000
      2191       702  TIP3      OH2           -25.4553549752        3.0883406768      -21.7704771492  SOLV      691             0.0000000000
      2192       702  TIP3      H1            -25.0350449752        2.6730506768      -21.0174171492  SOLV      691             0.0000000000
      2193       702  TIP3      H2            -26.3883949752        2.9096706768      -21.6532771492  SOLV      691             0.0000000000
      2194       703  TIP3      OH2           -22.1288649752        6.8438606768      -20.9170271492  SOLV      692             0.0000000000
      2195       703  TIP3      H1            -22.6429149752        6.7180806768      -20.1194271492  SOLV      692             0.0000000000
      2196       703  TIP3      H2            -22.2843949752        7.7561706768      -21.1614071492  SOLV      692             0.0000000000
      2197       704  TIP3      OH2           -30.0271249752        8.3317506768      -24.0501571492  SOLV      693             0.0000000000
      2198       704  TIP3      H1            -30.6689149752        8.2914806768      -23.3411471492  SOLV      693             0.0000000000
      2199       704  TIP3      H2            -29.9899249752        9.2582206768      -24.2878571492  SOLV      693             0.0000000000
      2200       705  TIP3      OH2           -25.3925049752        9.1444306768      -18.8330071492  SOLV      694             0.0000000000
      2201       705  TIP3      H1            -25.9551249752        8.4395906768      -18.5122271492  SOLV      694             0.0000000000
      2202       705  TIP3      H2            -24.5661649752        9.0236206768      -18.3652471492  SOLV      694             0.0000000000
      2203       706  TIP3      OH2           -23.4898949752        8.4148306768      -27.5071071492  SOLV      695             0.0000000000
      2204       706  TIP3      H1            -23.6854449752        9.0205106768      -28.2220471492  SOLV      695             0.0000000000
      2205       706  TIP3      H2            -23.3086349752        7.5813506768      -27.9414771492  SOLV      695             0.0000000000
      2206       707  TIP3      OH2           -24.2259749752       10.0529606768      -22.8358671492  SOLV      696             0.0000000000
      2207       707  TIP3      H1            -23.9024949752        9.4219306768      -23.4788171492  SOLV      696             0.0000000000
      2208       707  TIP3      H2            -24.6660449752        9.5181806768      -22.1751271492  SOLV      696             0.0000000000
      2209       708  TIP3      OH2           -23.0434949752        5.2151406768      -24.7875671492  SOLV      697             0.0000000000
      2210       708  TIP3      H1            -23.7203349752        5.3464506768      -24.1235971492  SOLV      697             0.0000000000
      2211       708  TIP3      H2            -23.5290049752        5.0600906768      -25.5977971492  SOLV      697             0.0000000000
      2212       709  TIP3      OH2           -19.7559849752       20.8866806768      -18.5108071492  SOLV      698             0.0000000000
      2213       709  TIP3      H1            -19.5561149752       21.3108706768      -19.3452771492  SOLV      698             0.0000000000
      2214       709  TIP3      H2            -19.1006149752       21.2305006768      -17.9037671492  SOLV      698             0.0000000000
      2215       710  TIP3      OH2           -26.1287149752        8.7678106768      -26.1647871492  SOLV      699             0.0000000000
      2216       710  TIP3      H1            -25.5643749752        8.2214706768      -26.7118271492  SOLV      699             0.0000000000
      2217       710  TIP3      H2            -26.2763749752        8.2460006768      -25.3760271492  SOLV      699             0.0000000000
      2218       711  TIP3      OH2           -27.5021249752        7.1564206768      -23.7507471492  SOLV      700             0.0000000000
      2219       711  TIP3      H1            -28.3375949752        7.6103706768      -23.6405071492  SOLV      700             0.0000000000
      2220       711  TIP3      H2            -26.9780649752        7.4322706768      -22.9987571492  SOLV      700             0.0000000000
      2221       712  TIP3      OH2           -19.8079749752       12.5020106768      -23.2793471492  SOLV      701             0.0000000000
      2222       712  TIP3      H1            -19.1660949752       12.9586406768      -23.8231271492  SOLV      701             0.0000000000
      2223       712  TIP3      H2            -20.6382849752       12.6152506768      -23.7419371492  SOLV      701             0.0000000000
      2224       713  TIP3      OH2           -25.4386549752       13.5535206768      -20.8291971492  SOLV      702             0.0000000000
      2225       713  TIP3      H1            -25.7840449752       13.1717606768      -20.0222371492  SOLV      702             0.0000000000
      2226       713  TIP3      H2            -25.6386449752       14.4868806768      -20.7579071492  SOLV      702             0.0000000000
      2227       714  TIP3      OH2           -27.8085749752       10.6418706768      -18.7684971492  SOLV      703             0.0000000000
      2228       714  TIP3      H1            -28.1044949752       10.4761706768      -19.6635871492  SOLV      703             0.0000000000
      2229       714  TIP3      H2            -26.8770549752       10.4219006768      -18.7791071492  SOLV      703             0.0000000000
      2230       715  TIP3      OH2           -23.1882949752       16.0150706768      -20.8786971492  SOLV      704             0.0000000000
      2231       715  TIP3      H1            -24.0888649752       16.1983306768      -21.1463071492  SOLV      704             0.0000000000
      2232       715  TIP3      H2            -23.1541849752       16.2740006768      -19.9578171492  SOLV      704             0.0000000000
      2233       716  TIP3      OH2           -17.4569649752        8.2598606768      -32.5114371492  SOLV      705             0.0000000000
      2234       716  TIP3      H1            -18.0113349752        7.8636606768      -33.1836871492  SOLV      705             0.0000000000
      2235       716  TIP3      H2            -17.3566049752        9.1703806768      -32.7891071492  SOLV      705             0.0000000000
      2236       717  TIP3      OH2           -17.4937649752       14.0600306768      -19.6742871492  SOLV      706             0.0000000000
      2237       717  TIP3      H1            -18.3449149752       14.2984106768      -20.0416471492  SOLV      706             0.0000000000
      2238       717  TIP3      H2            -16.9034249752       14.0433506768      -20.4275771492  SOLV      706             0.0000000000
      2239       718  TIP3      OH2           -22.0014049752       11.8538506768      -25.0250371492  SOLV      707             0.0000000000
      2240       718  TIP3      H1            -22.9297149752       11.6220406768      -25.0521071492  SOLV      707             0.0000000000
      2241       718  TIP3      H2            -21.5502949752       11.0768306768      -25.3551571492  SOLV      707             0.0000000000
      2242       719  TIP3      OH2           -23.9721249752       14.0934306768      -23.3000671492  SOLV      708             0.0000000000
      2243       719  TIP3      H1            -24.3979949752       13.8656006768      -22.4736671492  SOLV      708             0.0000000000
      2244       719  TIP3      H2            -23.3915449752       13.3546106768      -23.4825371492  SOLV      708             0.0000000000
      2245       720  TIP3      OH2           -21.3137049752       18.6453806768      -20.8305871492  SOLV      709             0.0000000000
      2246       720  TIP3      H1            -21.9153849752       18.0896706768      -21.3259571492  SOLV      709             0.0000000000
      2247       720  TIP3      H2            -21.0323349752       19.3123606768      -21.4568471492  SOLV      709             0.0000000000
      2248       721  TIP3      OH2           -24.4567749752        5.6191806768      -22.5334671492  SOLV      710             0.0000000000
      2249       721  TIP3      H1            -23.7579849752        5.6930506768      -21.8834971492  SOLV      710             0.0000000000
      2250       721  TIP3      H2            -24.8376349752        4.7546806768      -22.3791771492  SOLV      710             0.0000000000
      2251       722  TIP3      OH2           -25.9366549752        7.9855006768      -21.4167371492  SOLV      711             0.0000000000
      2252       722  TIP3      H1            -25.8176249752        8.5590406768      -20.6596971492  SOLV      711             0.0000000000
      2253       722  TIP3      H2            -25.2811949752        7.2974406768      -21.3019571492  SOLV      711             0.0000000000
      2254       723  TIP3      OH2           -19.7320749752        5.8925306768      -20.5817671492  SOLV      712             0.0000000000
      2255       723  TIP3      H1            -20.6484949752        6.1547006768      -20.6693971492  SOLV      712             0.0000000000
      2256       723  TIP3      H2            -19.3965749752        5.8894306768      -21.4782371492  SOLV      712             0.0000000000
      2257       724  TIP3      OH2           -21.1299749752        9.6426306768      -26.4860371492  SOLV      713             0.0000000000
      2258       724  TIP3      H1            -21.9275349752        9.2276506768      -26.8145371492  SOLV      713             0.0000000000
      2259       724  TIP3      H2            -20.6848649752        8.9520006768      -25.9949871492  SOLV      713             0.0000000000
      2260       725  TIP3      OH2           -20.0435149752       18.8988806768      -24.8636871492  SOLV      714             0.0000000000
      2261       725  TIP3      H1            -20.1990849752       19.5773206768      -25.5207571492  SOLV      714             0.0000000000
      2262       725  TIP3      H2            -19.1108749752       18.9708106768      -24.6606271492  SOLV      714             0.0000000000
      2263       726  TIP3      OH2           -23.1553649752       16.8692806768      -18.2865971492  SOLV      715             0.0000000000
      2264       726  TIP3      H1            -23.5064149752       16.0125806768      -18.0435571492  SOLV      715             0.0000000000
      2265       726  TIP3      H2            -22.4290449752       17.0119506768      -17.6796971492  SOLV      715             0.0000000000
      2266       727  TIP3      OH2           -27.7670149752       13.3499506768      -18.2490971492  SOLV      716             0.0000000000
      2267       727  TIP3      H1            -28.0956349752       13.6207606768      -19.1063571492  SOLV      716             0.0000000000
      2268       727  TIP3      H2            -27.6151949752       12.4089306768      -18.3365971492  SOLV      716             0.0000000000
      2269       728  TIP3      OH2           -22.0324949752       13.2656806768      -20.8658671492  SOLV      717             0.0000000000
      2270       728  TIP3      H1            -21.2870149752       13.8540506768      -20.9854671492  SOLV      717             0.0000000000
      2271       728  TIP3      H2            -22.7898149752       13.8476506768      -20.8025571492  SOLV      717             0.0000000000
      2272       729  TIP3      OH2           -29.6429449752        9.5890406768      -20.8875171492  SOLV      718             0.0000000000
      2273       729  TIP3      H1            -30.2613349752       10.2637006768      -20.6070471492  SOLV      718             0.0000000000
      2274       729  TIP3      H2            -29.2988249752        9.9104306768      -21.7208971492  SOLV      718             0.0000000000
      2275       730  TIP3      OH2           -24.6231249752       12.0605706768      -17.6100371492  SOLV      719             0.0000000000
      2276       730  TIP3      H1            -23.6700049752       12.1444806768      -17.6374371492  SOLV      719             0.0000000000
      2277       730  TIP3      H2            -24.7836649752       11.3487506768      -16.9905471492  SOLV      719             0.0000000000
      2278       731  TIP3      OH2           -29.3035749752        6.9441206768      -19.8052071492  SOLV      720             0.0000000000
      2279       731  TIP3      H1            -29.1534849752        6.2152506768      -20.4072371492  SOLV      720             0.0000000000
      2280       731  TIP3      H2            -29.3013349752        7.7212906768      -20.3639871492  SOLV      720             0.0000000000
      2281       732  TIP3      OH2           -28.8910049752        5.3137006768      -22.3124671492  SOLV      721             0.0000000000
      2282       732  TIP3      H1            -28.3552549752        5.7653706768      -22.9645371492  SOLV      721             0.0000000000
      2283       732  TIP3      H2            -29.7430449752        5.2056806768      -22.7350571492  SOLV      721             0.0000000000
      2284       733  TIP3      OH2           -27.3091649752       10.7533206768      -22.0729471492  SOLV      722             0.0000000000
      2285       733  TIP3      H1            -26.5586849752       10.5970706768      -22.6461671492  SOLV      722             0.0000000000
      2286       733  TIP3      H2            -27.6483349752       11.6049806768      -22.3483971492  SOLV      722             0.0000000000
      2287       734  TIP3      OH2           -22.8935449752        8.5685006768      -17.0444171492  SOLV      723             0.0000000000
      2288       734  TIP3      H1            -22.7014149752        7.6374406768      -17.1559671492  SOLV      723             0.0000000000
      2289       734  TIP3      H2            -22.0359149752        8.9934506768      -17.0548771492  SOLV      723             0.0000000000
      2290       735  TIP3      OH2           -21.5768249752       11.3570206768      -18.9671471492  SOLV      724             0.0000000000
      2291       735  TIP3      H1            -21.8583249752       12.0664806768      -19.5447671492  SOLV      724             0.0000000000
      2292       735  TIP3      H2            -20.6343949752       11.2843206768      -19.1180271492  SOLV      724             0.0000000000
      2293       736  TIP3      OH2           -30.8249449752        8.1424706768      -17.8936471492  SOLV      725             0.0000000000
      2294       736  TIP3      H1            -31.5920449752        7.6099506768      -18.1038871492  SOLV      725             0.0000000000
      2295       736  TIP3      H2            -30.1460449752        7.8325106768      -18.4930171492  SOLV      725             0.0000000000
      2296       737  TIP3      OH2           -28.0854549752        2.7702706768      -21.8811071492  SOLV      726             0.0000000000
      2297       737  TIP3      H1            -28.1834949752        3.7165906768      -21.9864871492  SOLV      726             0.0000000000
      2298       737  TIP3      H2            -28.8278349752        2.3976506768      -22.3567571492  SOLV      726             0.0000000000
      2299       738  TIP3      OH2           -26.8214049752        7.0918106768      -18.3172671492  SOLV      727             0.0000000000
      2300       738  TIP3      H1            -27.0568649752        6.8724806768      -17.4157771492  SOLV      727             0.0000000000
      2301       738  TIP3      H2            -27.6047149752        6.8849306768      -18.8270171492  SOLV      727             0.0000000000
      2302       739  TIP3      OH2           -24.1057449752        6.2191606768      -19.2419171492  SOLV      728             0.0000000000
      2303       739  TIP3      H1            -25.0532049752        6.2511306768      -19.1095871492  SOLV      728             0.0000000000
      2304       739  TIP3      H2            -23.7930749752        5.5938706768      -18.5880971492  SOLV      728             0.0000000000
      2305       740  TIP3      OH2           -22.4715949752        4.8532706768      -17.2367271492  SOLV      729             0.0000000000
      2306       740  TIP3      H1            -22.5684149752        3.9010006768      -17.2425371492  SOLV      729             0.0000000000
      2307       740  TIP3      H2            -22.7932849752        5.1219506768      -16.3761771492  SOLV      729             0.0000000000
      2308       741  TIP3      OH2           -27.8636449752        2.0640106768      -19.2098271492  SOLV      730             0.0000000000
      2309       741  TIP3      H1            -27.1518049752        1.4242306768      -19.2239171492  SOLV      730             0.0000000000
      2310       741  TIP3      H2            -27.9646049752        2.3308406768      -20.1235171492  SOLV      730             0.0000000000
      2311       742  TIP3      OH2           -27.5098949752        3.7468506768      -17.1561971492  SOLV      731             0.0000000000
      2312       742  TIP3      H1            -27.6416749752        3.2712306768      -17.9763471492  SOLV      731             0.0000000000
      2313       742  TIP3      H2            -28.1091549752        4.4912106768      -17.2114871492  SOLV      731             0.0000000000
      2314       743  TIP3      OH2           -17.3277149752       19.5494506768      -24.6344971492  SOLV      732             0.0000000000
      2315       743  TIP3      H1            -17.3490449752       19.7342906768      -23.6955571492  SOLV      732             0.0000000000
      2316       743  TIP3      H2            -16.6370949752       20.1178506768      -24.9753571492  SOLV      732             0.0000000000
      2317       744  TIP3      OH2           -17.7644249752       19.1165606768      -21.7125871492  SOLV      733             0.0000000000
      2318       744  TIP3      H1            -18.2515549752       18.3809706768      -22.0838471492  SOLV      733             0.0000000000
      2319       744  TIP3      H2            -17.2151549752       18.7229506768      -21.0346471492  SOLV      733             0.0000000000
      2320       745  TIP3      OH2           -19.3136949752       14.9063706768      -17.0745571492  SOLV      734             0.0000000000
      2321       745  TIP3      H1            -20.1795849752       14.8013406768      -16.6803271492  SOLV      734             0.0000000000
      2322       745  TIP3      H2            -18.9371049752       15.6647006768      -16.6280871492  SOLV      734             0.0000000000
      2323       746  TIP3      OH2           -18.0127249752       13.1627406768      -31.5603071492  SOLV      735             0.0000000000
      2324       746  TIP3      H1            -17.1625849752       13.5838306768      -31.4331471492  SOLV      735             0.0000000000
      2325       746  TIP3      H2            -18.0072149752       12.4227506768      -30.9531671492  SOLV      735             0.0000000000
      2326       747  TIP3      OH2           -17.6181649752       11.2164806768      -29.7367371492  SOLV      736             0.0000000000
      2327       747  TIP3      H1            -18.3447049752       10.7367406768      -29.3389771492  SOLV      736             0.0000000000
      2328       747  TIP3      H2            -17.0368349752       11.4219506768      -29.0045771492  SOLV      736             0.0000000000
      2329       748  TIP3      OH2           -17.8590449752       14.0012306768      -24.7889771492  SOLV      737             0.0000000000
      2330       748  TIP3      H1            -17.0256249752       13.6232306768      -25.0696171492  SOLV      737             0.0000000000
      2331       748  TIP3      H2            -17.7470149752       14.9443506768      -24.9080671492  SOLV      737             0.0000000000
      2332       749  TIP3      OH2           -19.3728149752       16.8789806768      -22.4821371492  SOLV      738             0.0000000000
      2333       749  TIP3      H1            -20.0202849752       17.2041306768      -21.8566171492  SOLV      738             0.0000000000
      2334       749  TIP3      H2            -19.8904149752       16.4387506768      -23.1563071492  SOLV      738             0.0000000000
      2335       750  TIP3      OH2           -17.3498549752       11.1173306768      -33.3456071492  SOLV      739             0.0000000000
      2336       750  TIP3      H1            -17.8717449752       11.4737406768      -34.0645171492  SOLV      739             0.0000000000
      2337       750  TIP3      H2            -17.3829349752       11.7921106768      -32.6675171492  SOLV      739             0.0000000000
      2338       751  TIP3      OH2           -19.8314849752        9.7371306768      -29.1738671492  SOLV      740             0.0000000000
      2339       751  TIP3      H1            -19.9816049752        8.7919906768      -29.1940871492  SOLV      740             0.0000000000
      2340       751  TIP3      H2            -20.1850349752       10.0182706768      -28.3299571492  SOLV      740             0.0000000000
      2341       752  TIP3      OH2           -18.9751949752       11.7074606768      -19.5350371492  SOLV      741             0.0000000000
      2342       752  TIP3      H1            -18.3924649752       10.9726906768      -19.3433171492  SOLV      741             0.0000000000
      2343       752  TIP3      H2            -18.4112649752       12.4794906768      -19.4884571492  SOLV      741             0.0000000000
      2344       753  TIP3      OH2           -17.4784849752        9.6100406768      -18.8504971492  SOLV      742             0.0000000000
      2345       753  TIP3      H1            -18.3418149752        9.2312506768      -19.0160271492  SOLV      742             0.0000000000
      2346       753  TIP3      H2            -16.8741149752        8.8715206768      -18.9249171492  SOLV      742             0.0000000000
      2347       754  TIP3      OH2           -20.1210049752        7.3197106768      -30.7113571492  SOLV      743             0.0000000000
      2348       754  TIP3      H1            -19.8412949752        6.4127506768      -30.5871871492  SOLV      743             0.0000000000
      2349       754  TIP3      H2            -19.3618349752        7.7538606768      -31.1004371492  SOLV      743             0.0000000000
      2350       755  TIP3      OH2           -19.5091749752        7.9014506768      -25.2754671492  SOLV      744             0.0000000000
      2351       755  TIP3      H1            -18.5763749752        8.1134406768      -25.3098671492  SOLV      744             0.0000000000
      2352       755  TIP3      H2            -19.7444249752        8.0026606768      -24.3531671492  SOLV      744             0.0000000000
      2353       756  TIP3      OH2           -19.4799849752        8.6379806768      -22.4995271492  SOLV      745             0.0000000000
      2354       756  TIP3      H1            -20.3228549752        8.9060206768      -22.1335471492  SOLV      745             0.0000000000
      2355       756  TIP3      H2            -19.0375549752        9.4601706768      -22.7104171492  SOLV      745             0.0000000000
      2356       757  TIP3      OH2           -17.1968249752        2.6180006768      -17.1460271492  SOLV      746             0.0000000000
      2357       757  TIP3      H1            -16.8471249752        1.9643506768      -17.7515571492  SOLV      746             0.0000000000
      2358       757  TIP3      H2            -17.0498749752        3.4554106768      -17.5857671492  SOLV      746             0.0000000000
      2359       758  TIP3      OH2           -17.6771049752        4.7274606768      -18.7968971492  SOLV      747             0.0000000000
      2360       758  TIP3      H1            -18.5945349752        4.9981706768      -18.8325471492  SOLV      747             0.0000000000
      2361       758  TIP3      H2            -17.5541649752        4.1923006768      -19.5809271492  SOLV      747             0.0000000000
      2362       759  TIP3      OH2           -25.9389349752       18.9416506768      -19.3014571492  SOLV      748             0.0000000000
      2363       759  TIP3      H1            -25.7541849752       18.6082606768      -18.4234271492  SOLV      748             0.0000000000
      2364       759  TIP3      H2            -25.0924849752       19.2515106768      -19.6235371492  SOLV      748             0.0000000000
      2365       760  TIP3      OH2           -23.5938949752       20.2275406768      -20.0573171492  SOLV      749             0.0000000000
      2366       760  TIP3      H1            -22.9170049752       19.5947706768      -20.2973971492  SOLV      749             0.0000000000
      2367       760  TIP3      H2            -23.2720149752       20.6285906768      -19.2499871492  SOLV      749             0.0000000000
      2368       761  TIP3      OH2           -18.6765149752        2.8170906768      -20.9778171492  SOLV      750             0.0000000000
      2369       761  TIP3      H1            -19.4891649752        3.1421206768      -21.3653471492  SOLV      750             0.0000000000
      2370       761  TIP3      H2            -18.4436649752        2.0569406768      -21.5109071492  SOLV      750             0.0000000000
      2371       762  TIP3      OH2           -23.3429549752       19.1652806768      -23.0629471492  SOLV      751             0.0000000000
      2372       762  TIP3      H1            -24.2475849752       19.3303006768      -23.3287371492  SOLV      751             0.0000000000
      2373       762  TIP3      H2            -22.9140949752       20.0185006768      -23.1286071492  SOLV      751             0.0000000000
      2374       763  TIP3      OH2           -20.7387649752       20.7351906768      -22.7681671492  SOLV      752             0.0000000000
      2375       763  TIP3      H1            -20.9205649752       21.6510806768      -22.9786771492  SOLV      752             0.0000000000
      2376       763  TIP3      H2            -20.5619849752       20.3249006768      -23.6147071492  SOLV      752             0.0000000000
      2377       764  TIP3      OH2           -25.2466649752        4.2661506768      -26.6549971492  SOLV      753             0.0000000000
      2378       764  TIP3      H1            -25.9209849752        3.6367106768      -26.3994171492  SOLV      753             0.0000000000
      2379       764  TIP3      H2            -24.6827449752        3.7820406768      -27.2582071492  SOLV      753             0.0000000000
      2380       765  TIP3      OH2           -20.1039449752        2.3735506768      -26.5422871492  SOLV      754             0.0000000000
      2381       765  TIP3      H1            -19.5001849752        2.9210906768      -27.0441871492  SOLV      754             0.0000000000
      2382       765  TIP3      H2            -20.9737449752        2.6925906768      -26.7828771492  SOLV      754             0.0000000000
      2383       766  TIP3      OH2           -18.3769049752        3.5124206768      -28.2091971492  SOLV      755             0.0000000000
      2384       766  TIP3      H1            -17.7651549752        2.9979906768      -28.7358371492  SOLV      755             0.0000000000
      2385       766  TIP3      H2            -17.9945649752        4.3896306768      -28.1857571492  SOLV      755             0.0000000000
      2386       767  TIP3      OH2           -32.9621149752        3.4143706768      -19.3153871492  SOLV      756             0.0000000000
      2387       767  TIP3      H1            -33.3282949752        2.6486306768      -18.8729171492  SOLV      756             0.0000000000
      2388       767  TIP3      H2            -32.0492649752        3.4433906768      -19.0288771492  SOLV      756             0.0000000000
      2389       768  TIP3      OH2           -30.9890349752        2.7648106768      -17.7796771492  SOLV      757             0.0000000000
      2390       768  TIP3      H1            -30.0906749752        2.4908306768      -17.9643371492  SOLV      757             0.0000000000
      2391       768  TIP3      H2            -31.3757249752        2.0224106768      -17.3154171492  SOLV      757             0.0000000000
      2392       769  TIP3      OH2           -22.5678049752        2.0973406768      -17.5973971492  SOLV      758             0.0000000000
      2393       769  TIP3      H1            -22.4910849752        1.6714106768      -16.7436271492  SOLV      758             0.0000000000
      2394       769  TIP3      H2            -21.6741449752        2.1108106768      -17.9400471492  SOLV      758             0.0000000000
      2395       770  TIP3      OH2           -19.3916949752       18.1699706768      -18.9049771492  SOLV      759             0.0000000000
      2396       770  TIP3      H1            -20.1735049752       17.9837706768      -19.4249171492  SOLV      759             0.0000000000
      2397       770  TIP3      H2            -19.4637049752       19.0994006768      -18.6877271492  SOLV      759             0.0000000000
      2398       771  TIP3      OH2            -4.9856549752       12.0564106768      -28.8742571492  SOLV      760             0.0000000000
      2399       771  TIP3      H1             -4.8965449752       13.0002306768      -29.0065471492  SOLV      760             0.0000000000
      2400       771  TIP3      H2             -5.6238949752       11.7810506768      -29.5323171492  SOLV      760             0.0000000000
      2401       772  TIP3      OH2            -6.0525249752       11.3114806768      -25.4554371492  SOLV      761             0.0000000000
      2402       772  TIP3      H1             -6.0907749752       10.6651106768      -24.7504771492  SOLV      761             0.0000000000
      2403       772  TIP3      H2             -6.3748749752       10.8449206768      -26.2265671492  SOLV      761             0.0000000000
      2404       773  TIP3      OH2            -2.3465049752       14.2505206768      -27.1539271492  SOLV      762             0.0000000000
      2405       773  TIP3      H1             -2.7872349752       13.5301206768      -26.7033671492  SOLV      762             0.0000000000
      2406       773  TIP3      H2             -2.3595349752       14.9712406768      -26.5241571492  SOLV      762             0.0000000000
      2407       774  TIP3      OH2           -12.7607149752       15.3755806768      -25.3275371492  SOLV      763             0.0000000000
      2408       774  TIP3      H1            -13.1301949752       14.5736306768      -25.6971071492  SOLV      763             0.0000000000
      2409       774  TIP3      H2            -11.8196049752       15.2070706768      -25.2811971492  SOLV      763             0.0000000000
      2410       775  TIP3      OH2           -16.1506649752        9.0358406768      -29.9346571492  SOLV      764             0.0000000000
      2411       775  TIP3      H1            -16.5983249752        9.8817106768      -29.9530071492  SOLV      764             0.0000000000
      2412       775  TIP3      H2            -16.7115449752        8.4562606768      -30.4501471492  SOLV      764             0.0000000000
      2413       776  TIP3      OH2           -15.4400549752       11.1978006768      -27.8088571492  SOLV      765             0.0000000000
      2414       776  TIP3      H1            -15.2267049752       10.4279606768      -27.2815571492  SOLV      765             0.0000000000
      2415       776  TIP3      H2            -14.7022949752       11.2874706768      -28.4120971492  SOLV      765             0.0000000000
      2416       777  TIP3      OH2            -5.2349549752       19.3546906768      -26.9418871492  SOLV      766             0.0000000000
      2417       777  TIP3      H1             -4.6153149752       18.6781606768      -27.2149671492  SOLV      766             0.0000000000
      2418       777  TIP3      H2             -5.4432149752       19.1367706768      -26.0333971492  SOLV      766             0.0000000000
      2419       778  TIP3      OH2            -7.6630849752       13.7436206768      -25.0493371492  SOLV      767             0.0000000000
      2420       778  TIP3      H1             -7.3592949752       13.0577606768      -25.6439271492  SOLV      767             0.0000000000
      2421       778  TIP3      H2             -6.9416849752       13.8624906768      -24.4315371492  SOLV      767             0.0000000000
      2422       779  TIP3      OH2             0.9998950248        5.3451506768      -24.1887171492  SOLV      768             0.0000000000
      2423       779  TIP3      H1              1.0491150248        5.9552706768      -23.4528071492  SOLV      768             0.0000000000
      2424       779  TIP3      H2              1.4254050248        5.8062406768      -24.9116071492  SOLV      768             0.0000000000
      2425       780  TIP3      OH2            -4.5223849752        8.1378606768      -24.7218571492  SOLV      769             0.0000000000
      2426       780  TIP3      H1             -4.3797949752        7.1915606768      -24.7016971492  SOLV      769             0.0000000000
      2427       780  TIP3      H2             -4.6284849752        8.3448406768      -25.6503671492  SOLV      769             0.0000000000
      2428       781  TIP3      OH2           -11.3675549752        6.2395006768      -27.4493771492  SOLV      770             0.0000000000
      2429       781  TIP3      H1            -11.3244449752        7.0993506768      -27.8677471492  SOLV      770             0.0000000000
      2430       781  TIP3      H2            -11.8251449752        5.6869706768      -28.0830571492  SOLV      770             0.0000000000
      2431       782  TIP3      OH2            -3.6452849752        6.3700606768      -29.0485471492  SOLV      771             0.0000000000
      2432       782  TIP3      H1             -2.9988549752        6.0413806768      -28.4237871492  SOLV      771             0.0000000000
      2433       782  TIP3      H2             -3.1353449752        6.8879606768      -29.6714071492  SOLV      771             0.0000000000
      2434       783  TIP3      OH2           -14.7474049752        8.6360806768      -26.6872371492  SOLV      772             0.0000000000
      2435       783  TIP3      H1            -14.0937449752        8.0862506768      -26.2552271492  SOLV      772             0.0000000000
      2436       783  TIP3      H2            -14.7234749752        8.3619806768      -27.6040371492  SOLV      772             0.0000000000
      2437       784  TIP3      OH2            -9.5909549752       10.1862106768      -27.4720871492  SOLV      773             0.0000000000
      2438       784  TIP3      H1             -8.9748549752        9.6597506768      -26.9626871492  SOLV      773             0.0000000000
      2439       784  TIP3      H2            -10.1770749752        9.5460806768      -27.8757271492  SOLV      773             0.0000000000
      2440       785  TIP3      OH2             1.3913550248        6.8230706768      -21.9527371492  SOLV      774             0.0000000000
      2441       785  TIP3      H1              0.7028150248        7.4811406768      -22.0480771492  SOLV      774             0.0000000000
      2442       785  TIP3      H2              1.4068150248        6.6258606768      -21.0161971492  SOLV      774             0.0000000000
      2443       786  TIP3      OH2           -12.5573649752        5.1573406768      -23.3752971492  SOLV      775             0.0000000000
      2444       786  TIP3      H1            -12.7761949752        5.6874006768      -24.1416971492  SOLV      775             0.0000000000
      2445       786  TIP3      H2            -13.2252749752        5.3838906768      -22.7281571492  SOLV      775             0.0000000000
      2446       787  TIP3      OH2            -5.1883849752       14.6574506768      -29.8313871492  SOLV      776             0.0000000000
      2447       787  TIP3      H1             -5.4838749752       14.3346806768      -30.6826971492  SOLV      776             0.0000000000
      2448       787  TIP3      H2             -5.5126049752       15.5571206768      -29.7901271492  SOLV      776             0.0000000000
      2449       788  TIP3      OH2            -9.9882249752       12.8329106768      -23.0879271492  SOLV      777             0.0000000000
      2450       788  TIP3      H1            -10.7283149752       13.4310606768      -22.9844071492  SOLV      777             0.0000000000
      2451       788  TIP3      H2             -9.2742749752       13.3868706768      -23.4035671492  SOLV      777             0.0000000000
      2452       789  TIP3      OH2            -1.8814449752        5.6609906768      -27.0679571492  SOLV      778             0.0000000000
      2453       789  TIP3      H1             -2.0966449752        4.8953306768      -26.5353571492  SOLV      778             0.0000000000
      2454       789  TIP3      H2             -1.2257049752        6.1334506768      -26.5551071492  SOLV      778             0.0000000000
      2455       790  TIP3      OH2           -12.9636349752        7.0495206768      -25.4230771492  SOLV      779             0.0000000000
      2456       790  TIP3      H1            -12.3500049752        7.6822806768      -25.0498371492  SOLV      779             0.0000000000
      2457       790  TIP3      H2            -12.4515649752        6.5770206768      -26.0793871492  SOLV      779             0.0000000000
      2458       791  TIP3      OH2           -11.5807949752       14.7972106768      -22.3007771492  SOLV      780             0.0000000000
      2459       791  TIP3      H1            -11.5860349752       15.6765606768      -22.6788471492  SOLV      780             0.0000000000
      2460       791  TIP3      H2            -12.4343849752       14.7136206768      -21.8757871492  SOLV      780             0.0000000000
      2461       792  TIP3      OH2           -15.4597049752       14.4680006768      -31.5188471492  SOLV      781             0.0000000000
      2462       792  TIP3      H1            -15.7316149752       14.6971006768      -32.4075571492  SOLV      781             0.0000000000
      2463       792  TIP3      H2            -15.4141349752       15.3058806768      -31.0583171492  SOLV      781             0.0000000000
      2464       793  TIP3      OH2            -1.8347349752       16.0895906768      -24.8059971492  SOLV      782             0.0000000000
      2465       793  TIP3      H1             -2.7763649752       16.1479806768      -24.6443071492  SOLV      782             0.0000000000
      2466       793  TIP3      H2             -1.5581249752       16.9956406768      -24.9430271492  SOLV      782             0.0000000000
      2467       794  TIP3      OH2            -1.5340349752        4.3761206768      -23.3886071492  SOLV      783             0.0000000000
      2468       794  TIP3      H1             -2.2701149752        4.9868306768      -23.4264771492  SOLV      783             0.0000000000
      2469       794  TIP3      H2             -0.8506349752        4.7910206768      -23.9149671492  SOLV      783             0.0000000000
      2470       795  TIP3      OH2            -8.5308949752        2.4628506768      -25.9228071492  SOLV      784             0.0000000000
      2471       795  TIP3      H1             -8.6484749752        1.5144506768      -25.9769771492  SOLV      784             0.0000000000
      2472       795  TIP3      H2             -9.3858849752        2.7954606768      -25.6496971492  SOLV      784             0.0000000000
      2473       796  TIP3      OH2            -3.5826149752       17.8709406768      -28.1808371492  SOLV      785             0.0000000000
      2474       796  TIP3      H1             -3.1573849752       17.1637306768      -28.6658771492  SOLV      785             0.0000000000
      2475       796  TIP3      H2             -3.2656149752       18.6722106768      -28.5976171492  SOLV      785             0.0000000000
      2476       797  TIP3      OH2            -2.4229649752       15.7717906768      -29.6721771492  SOLV      786             0.0000000000
      2477       797  TIP3      H1             -2.6804849752       15.0818006768      -30.2835871492  SOLV      786             0.0000000000
      2478       797  TIP3      H2             -2.3518849752       15.3289106768      -28.8265871492  SOLV      786             0.0000000000
      2479       798  TIP3      OH2            -0.7369449752       14.3384606768      -21.1948271492  SOLV      787             0.0000000000
      2480       798  TIP3      H1             -0.5973149752       13.7467106768      -21.9341271492  SOLV      787             0.0000000000
      2481       798  TIP3      H2             -0.5696649752       15.2110506768      -21.5509471492  SOLV      787             0.0000000000
      2482       799  TIP3      OH2            -6.2644049752       11.3004106768      -31.4222271492  SOLV      788             0.0000000000
      2483       799  TIP3      H1             -6.9758549752       11.8353806768      -31.7741771492  SOLV      788             0.0000000000
      2484       799  TIP3      H2             -5.5734449752       11.3556206768      -32.0823371492  SOLV      788             0.0000000000
      2485       800  TIP3      OH2            -6.2104849752        9.7578406768      -34.3837271492  SOLV      789             0.0000000000
      2486       800  TIP3      H1             -5.5094949752        9.7805306768      -33.7323271492  SOLV      789             0.0000000000
      2487       800  TIP3      H2             -5.9081949752        9.1298106768      -35.0397971492  SOLV      789             0.0000000000
      2488       801  TIP3      OH2             1.1049850248       10.6782606768      -23.1287871492  SOLV      790             0.0000000000
      2489       801  TIP3      H1              0.4523950248       11.3728206768      -23.0396971492  SOLV      790             0.0000000000
      2490       801  TIP3      H2              1.5700150248       10.8883506768      -23.9386271492  SOLV      790             0.0000000000
      2491       802  TIP3      OH2            -2.8586349752       11.5097406768      -30.4706371492  SOLV      791             0.0000000000
      2492       802  TIP3      H1             -3.5905349752       11.7381106768      -29.8975771492  SOLV      791             0.0000000000
      2493       802  TIP3      H2             -2.4114149752       10.7960106768      -30.0158871492  SOLV      791             0.0000000000
      2494       803  TIP3      OH2            -2.9612849752        9.6840006768      -21.4029371492  SOLV      792             0.0000000000
      2495       803  TIP3      H1             -2.8813749752       10.4474406768      -20.8310871492  SOLV      792             0.0000000000
      2496       803  TIP3      H2             -3.5625149752        9.9632406768      -22.0934271492  SOLV      792             0.0000000000
      2497       804  TIP3      OH2           -11.2132649752       12.1403606768      -28.5881371492  SOLV      793             0.0000000000
      2498       804  TIP3      H1            -11.5437449752       11.7697006768      -29.4064371492  SOLV      793             0.0000000000
      2499       804  TIP3      H2            -10.6248549752       11.4697606768      -28.2413071492  SOLV      793             0.0000000000
      2500       805  TIP3      OH2            -9.8465149752       15.5684206768      -25.9069171492  SOLV      794             0.0000000000
      2501       805  TIP3      H1             -9.9413849752       14.9897306768      -26.6634571492  SOLV      794             0.0000000000
      2502       805  TIP3      H2             -9.1171549752       15.1969906768      -25.4106371492  SOLV      794             0.0000000000
      2503       806  TIP3      OH2           -10.8467149752       10.9089206768      -24.9546371492  SOLV      795             0.0000000000
      2504       806  TIP3      H1            -10.2814649752       11.0303406768      -25.7175171492  SOLV      795             0.0000000000
      2505       806  TIP3      H2            -10.5278249752       11.5464206768      -24.3157871492  SOLV      795             0.0000000000
      2506       807  TIP3      OH2            -4.5374949752       16.4121106768      -24.2205871492  SOLV      796             0.0000000000
      2507       807  TIP3      H1             -4.7778349752       17.0744206768      -23.5726671492  SOLV      796             0.0000000000
      2508       807  TIP3      H2             -4.7356749752       15.5776306768      -23.7956271492  SOLV      796             0.0000000000
      2509       808  TIP3      OH2            -9.9666449752       15.3081906768      -20.2374471492  SOLV      797             0.0000000000
      2510       808  TIP3      H1            -10.2778949752       16.0905106768      -19.7821271492  SOLV      797             0.0000000000
      2511       808  TIP3      H2            -10.6166249752       15.1551006768      -20.9232471492  SOLV      797             0.0000000000
      2512       809  TIP3      OH2            -3.9876849752       10.6720306768      -32.7855171492  SOLV      798             0.0000000000
      2513       809  TIP3      H1             -3.4081349752       10.8220606768      -32.0386271492  SOLV      798             0.0000000000
      2514       809  TIP3      H2             -3.5736849752       11.1427706768      -33.5088771492  SOLV      798             0.0000000000
      2515       810  TIP3      OH2           -13.0466549752       11.5063006768      -21.0088771492  SOLV      799             0.0000000000
      2516       810  TIP3      H1            -12.9763349752       12.1569806768      -20.3103771492  SOLV      799             0.0000000000
      2517       810  TIP3      H2            -13.9374349752       11.6090506768      -21.3437871492  SOLV      799             0.0000000000
      2518       811  TIP3      OH2            -6.2611949752       17.4088806768      -29.3502071492  SOLV      800             0.0000000000
      2519       811  TIP3      H1             -5.7874349752       17.7045106768      -28.5727871492  SOLV      800             0.0000000000
      2520       811  TIP3      H2             -6.8242649752       18.1470406768      -29.5832471492  SOLV      800             0.0000000000
      2521       812  TIP3      OH2           -11.7270549752       17.3796906768      -19.4740671492  SOLV      801             0.0000000000
      2522       812  TIP3      H1            -11.7195249752       17.2436606768      -20.4215171492  SOLV      801             0.0000000000
      2523       812  TIP3      H2            -12.6430149752       17.2625006768      -19.2220671492  SOLV      801             0.0000000000
      2524       813  TIP3      OH2            -0.2888449752        2.4220706768      -32.9725471492  SOLV      802             0.0000000000
      2525       813  TIP3      H1             -1.1887749752        2.5609706768      -32.6774871492  SOLV      802             0.0000000000
      2526       813  TIP3      H2             -0.0370049752        3.2535306768      -33.3743771492  SOLV      802             0.0000000000
      2527       814  TIP3      OH2           -12.2229949752       11.2097906768      -30.9988571492  SOLV      803             0.0000000000
      2528       814  TIP3      H1            -12.5148649752       11.9779606768      -31.4897271492  SOLV      803             0.0000000000
      2529       814  TIP3      H2            -12.8974749752       10.5504106768      -31.1617171492  SOLV      803             0.0000000000
      2530       815  TIP3      OH2           -16.1299849752       13.5727106768      -22.1838771492  SOLV      804             0.0000000000
      2531       815  TIP3      H1            -16.6311449752       13.5446506768      -22.9989071492  SOLV      804             0.0000000000
      2532       815  TIP3      H2            -16.1246149752       12.6670306768      -21.8741471492  SOLV      804             0.0000000000
      2533       816  TIP3      OH2           -16.3797149752       16.3530906768      -25.2998571492  SOLV      805             0.0000000000
      2534       816  TIP3      H1            -15.4336549752       16.2087906768      -25.3189071492  SOLV      805             0.0000000000
      2535       816  TIP3      H2            -16.4920849752       17.1373706768      -24.7627371492  SOLV      805             0.0000000000
      2536       817  TIP3      OH2             1.8181350248       17.0190606768      -19.6174871492  SOLV      806             0.0000000000
      2537       817  TIP3      H1              1.7688150248       16.0638706768      -19.6547271492  SOLV      806             0.0000000000
      2538       817  TIP3      H2              0.9913650248       17.2865906768      -19.2161071492  SOLV      806             0.0000000000
      2539       818  TIP3      OH2            -7.2034649752       16.5929806768      -20.7413471492  SOLV      807             0.0000000000
      2540       818  TIP3      H1             -7.1160049752       17.4194406768      -20.2664371492  SOLV      807             0.0000000000
      2541       818  TIP3      H2             -8.0669549752       16.2633606768      -20.4924171492  SOLV      807             0.0000000000
      2542       819  TIP3      OH2            -6.7888849752       20.3653506768      -30.9352871492  SOLV      808             0.0000000000
      2543       819  TIP3      H1             -6.8642849752       20.2440706768      -31.8817671492  SOLV      808             0.0000000000
      2544       819  TIP3      H2             -6.7560149752       21.3146206768      -30.8168271492  SOLV      808             0.0000000000
      2545       820  TIP3      OH2           -13.1355049752       19.1540506768      -29.1543871492  SOLV      809             0.0000000000
      2546       820  TIP3      H1            -12.9834649752       18.8060906768      -28.2757371492  SOLV      809             0.0000000000
      2547       820  TIP3      H2            -13.9864649752       18.7977806768      -29.4096671492  SOLV      809             0.0000000000
      2548       821  TIP3      OH2            -3.6872849752       19.5193706768      -33.9330471492  SOLV      810             0.0000000000
      2549       821  TIP3      H1             -3.3124449752       18.7749806768      -34.4037871492  SOLV      810             0.0000000000
      2550       821  TIP3      H2             -3.6829149752       19.2494306768      -33.0147171492  SOLV      810             0.0000000000
      2551       822  TIP3      OH2            -4.0184749752       19.4450806768      -31.1838271492  SOLV      811             0.0000000000
      2552       822  TIP3      H1             -4.9534949752       19.5452706768      -31.0051271492  SOLV      811             0.0000000000
      2553       822  TIP3      H2             -3.7382849752       18.7356806768      -30.6055071492  SOLV      811             0.0000000000
      2554       823  TIP3      OH2            -1.0298849752        8.5123106768      -19.1372671492  SOLV      812             0.0000000000
      2555       823  TIP3      H1             -1.4372049752        8.9928706768      -19.8579371492  SOLV      812             0.0000000000
      2556       823  TIP3      H2             -0.9893149752        7.6069106768      -19.4451871492  SOLV      812             0.0000000000
      2557       824  TIP3      OH2           -13.8809349752       14.8962506768      -21.1405971492  SOLV      813             0.0000000000
      2558       824  TIP3      H1            -13.6648049752       14.5348106768      -20.2810171492  SOLV      813             0.0000000000
      2559       824  TIP3      H2            -14.7364649752       14.5216306768      -21.3502471492  SOLV      813             0.0000000000
      2560       825  TIP3      OH2           -11.2621349752        3.3663006768      -25.1451771492  SOLV      814             0.0000000000
      2561       825  TIP3      H1            -12.1237649752        3.2791206768      -25.5528871492  SOLV      814             0.0000000000
      2562       825  TIP3      H2            -11.2845649752        4.2223106768      -24.7174171492  SOLV      814             0.0000000000
      2563       826  TIP3      OH2            -6.5993549752        3.0883406768      -21.7704771492  SOLV      815             0.0000000000
      2564       826  TIP3      H1             -6.1790449752        2.6730506768      -21.0174171492  SOLV      815             0.0000000000
      2565       826  TIP3      H2             -7.5323949752        2.9096706768      -21.6532771492  SOLV      815             0.0000000000
      2566       827  TIP3      OH2            -3.2728649752        6.8438606768      -20.9170271492  SOLV      816             0.0000000000
      2567       827  TIP3      H1             -3.7869149752        6.7180806768      -20.1194271492  SOLV      816             0.0000000000
      2568       827  TIP3      H2             -3.4283949752        7.7561706768      -21.1614071492  SOLV      816             0.0000000000
      2569       828  TIP3      OH2            -2.5103749752       11.7048606768      -35.1557271492  SOLV      817             0.0000000000
      2570       828  TIP3      H1             -2.4682949752       11.4822506768      -36.0857271492  SOLV      817             0.0000000000
      2571       828  TIP3      H2             -1.6611649752       12.1035706768      -34.9657371492  SOLV      817             0.0000000000
      2572       829  TIP3      OH2            -6.9376249752        5.5806806768      -34.4853971492  SOLV      818             0.0000000000
      2573       829  TIP3      H1             -7.1911449752        5.5998406768      -33.5625871492  SOLV      818             0.0000000000
      2574       829  TIP3      H2             -7.1944149752        4.7092206768      -34.7867771492  SOLV      818             0.0000000000
      2575       830  TIP3      OH2           -11.1711249752        8.3317506768      -24.0501571492  SOLV      819             0.0000000000
      2576       830  TIP3      H1            -11.8129149752        8.2914806768      -23.3411471492  SOLV      819             0.0000000000
      2577       830  TIP3      H2            -11.1339249752        9.2582206768      -24.2878571492  SOLV      819             0.0000000000
      2578       831  TIP3      OH2           -11.1742149752        8.5527606768      -29.1381571492  SOLV      820             0.0000000000
      2579       831  TIP3      H1            -12.0669249752        8.2123706768      -29.1967771492  SOLV      820             0.0000000000
      2580       831  TIP3      H2            -10.7235549752        8.1758506768      -29.8938371492  SOLV      820             0.0000000000
      2581       832  TIP3      OH2            -5.6386649752        8.9687906768      -30.3210771492  SOLV      821             0.0000000000
      2582       832  TIP3      H1             -6.0476349752        9.7836506768      -30.6125971492  SOLV      821             0.0000000000
      2583       832  TIP3      H2             -4.9180449752        8.8288006768      -30.9353671492  SOLV      821             0.0000000000
      2584       833  TIP3      OH2            -6.5365049752        9.1444306768      -18.8330071492  SOLV      822             0.0000000000
      2585       833  TIP3      H1             -7.0991249752        8.4395906768      -18.5122271492  SOLV      822             0.0000000000
      2586       833  TIP3      H2             -5.7101649752        9.0236206768      -18.3652471492  SOLV      822             0.0000000000
      2587       834  TIP3      OH2            -4.6338949752        8.4148306768      -27.5071071492  SOLV      823             0.0000000000
      2588       834  TIP3      H1             -4.8294449752        9.0205106768      -28.2220471492  SOLV      823             0.0000000000
      2589       834  TIP3      H2             -4.4526349752        7.5813506768      -27.9414771492  SOLV      823             0.0000000000
      2590       835  TIP3      OH2           -10.0553349752        6.0263306768      -35.3843571492  SOLV      824             0.0000000000
      2591       835  TIP3      H1            -10.4862649752        5.5813406768      -34.6546171492  SOLV      824             0.0000000000
      2592       835  TIP3      H2            -10.7734649752        6.3979606768      -35.8966071492  SOLV      824             0.0000000000
      2593       836  TIP3      OH2           -16.8129949752        5.7682806768      -28.3324871492  SOLV      825             0.0000000000
      2594       836  TIP3      H1            -16.1822249752        5.7394906768      -27.6130971492  SOLV      825             0.0000000000
      2595       836  TIP3      H2            -16.3635649752        5.3431506768      -29.0628971492  SOLV      825             0.0000000000
      2596       837  TIP3      OH2           -15.5387849752        6.5144806768      -32.9084471492  SOLV      826             0.0000000000
      2597       837  TIP3      H1            -15.0646149752        7.1054706768      -33.4933571492  SOLV      826             0.0000000000
      2598       837  TIP3      H2            -16.2561449752        7.0447706768      -32.5614371492  SOLV      826             0.0000000000
      2599       838  TIP3      OH2            -5.3699749752       10.0529606768      -22.8358671492  SOLV      827             0.0000000000
      2600       838  TIP3      H1             -5.0464949752        9.4219306768      -23.4788171492  SOLV      827             0.0000000000
      2601       838  TIP3      H2             -5.8100449752        9.5181806768      -22.1751271492  SOLV      827             0.0000000000
      2602       839  TIP3      OH2            -8.5926849752        5.9805106768      -28.0517471492  SOLV      828             0.0000000000
      2603       839  TIP3      H1             -9.5035749752        6.0371906768      -27.7631471492  SOLV      828             0.0000000000
      2604       839  TIP3      H2             -8.0873949752        5.9200606768      -27.2410271492  SOLV      828             0.0000000000
      2605       840  TIP3      OH2           -13.7643449752        7.6091406768      -29.2249871492  SOLV      829             0.0000000000
      2606       840  TIP3      H1            -14.6535449752        7.7086906768      -29.5650271492  SOLV      829             0.0000000000
      2607       840  TIP3      H2            -13.4678549752        6.7674406768      -29.5711971492  SOLV      829             0.0000000000
      2608       841  TIP3      OH2           -10.1111649752        7.6094006768      -31.5685271492  SOLV      830             0.0000000000
      2609       841  TIP3      H1             -9.1796149752        7.7384006768      -31.3902171492  SOLV      830             0.0000000000
      2610       841  TIP3      H2            -10.3261349752        8.2788306768      -32.2180571492  SOLV      830             0.0000000000
      2611       842  TIP3      OH2            -4.1874949752        5.2151406768      -24.7875671492  SOLV      831             0.0000000000
      2612       842  TIP3      H1             -4.8643349752        5.3464506768      -24.1235971492  SOLV      831             0.0000000000
      2613       842  TIP3      H2             -4.6730049752        5.0600906768      -25.5977971492  SOLV      831             0.0000000000
      2614       843  TIP3      OH2           -11.4371449752        8.8036206768      -34.0019171492  SOLV      832             0.0000000000
      2615       843  TIP3      H1            -11.9796349752        8.4240006768      -34.6931571492  SOLV      832             0.0000000000
      2616       843  TIP3      H2            -10.6036549752        8.9980906768      -34.4305071492  SOLV      832             0.0000000000
      2617       844  TIP3      OH2            -0.8999849752       20.8866806768      -18.5108071492  SOLV      833             0.0000000000
      2618       844  TIP3      H1             -0.7001149752       21.3108706768      -19.3452771492  SOLV      833             0.0000000000
      2619       844  TIP3      H2             -0.2446149752       21.2305006768      -17.9037671492  SOLV      833             0.0000000000
      2620       845  TIP3      OH2           -13.3020049752       13.3608106768      -18.9027571492  SOLV      834             0.0000000000
      2621       845  TIP3      H1            -12.5697649752       13.6154006768      -18.3413071492  SOLV      834             0.0000000000
      2622       845  TIP3      H2            -14.0821349752       13.5653506768      -18.3872171492  SOLV      834             0.0000000000
      2623       846  TIP3      OH2            -7.2727149752        8.7678106768      -26.1647871492  SOLV      835             0.0000000000
      2624       846  TIP3      H1             -6.7083749752        8.2214706768      -26.7118271492  SOLV      835             0.0000000000
      2625       846  TIP3      H2             -7.4203749752        8.2460006768      -25.3760271492  SOLV      835             0.0000000000
      2626       847  TIP3      OH2           -12.2707449752        4.9044206768      -29.7463071492  SOLV      836             0.0000000000
      2627       847  TIP3      H1            -12.5877949752        4.0019506768      -29.7817671492  SOLV      836             0.0000000000
      2628       847  TIP3      H2            -11.4893349752        4.9061606768      -30.2991471492  SOLV      836             0.0000000000
      2629       848  TIP3      OH2            -8.6461249752        7.1564206768      -23.7507471492  SOLV      837             0.0000000000
      2630       848  TIP3      H1             -9.4815949752        7.6103706768      -23.6405071492  SOLV      837             0.0000000000
      2631       848  TIP3      H2             -8.1220649752        7.4322706768      -22.9987571492  SOLV      837             0.0000000000
      2632       849  TIP3      OH2            -8.1018649752       13.3691906768      -32.0661071492  SOLV      838             0.0000000000
      2633       849  TIP3      H1             -8.8467649752       12.8617206768      -32.3883171492  SOLV      838             0.0000000000
      2634       849  TIP3      H2             -8.2361449752       13.4179906768      -31.1196271492  SOLV      838             0.0000000000
      2635       850  TIP3      OH2            -0.9519749752       12.5020106768      -23.2793471492  SOLV      839             0.0000000000
      2636       850  TIP3      H1             -0.3100949752       12.9586406768      -23.8231271492  SOLV      839             0.0000000000
      2637       850  TIP3      H2             -1.7822849752       12.6152506768      -23.7419371492  SOLV      839             0.0000000000
      2638       851  TIP3      OH2            -4.2041849752        6.1831806768      -33.8668471492  SOLV      840             0.0000000000
      2639       851  TIP3      H1             -5.1427649752        6.2947406768      -34.0179671492  SOLV      840             0.0000000000
      2640       851  TIP3      H2             -3.9069749752        7.0398706768      -33.5602771492  SOLV      840             0.0000000000
      2641       852  TIP3      OH2            -6.5826549752       13.5535206768      -20.8291971492  SOLV      841             0.0000000000
      2642       852  TIP3      H1             -6.9280449752       13.1717606768      -20.0222371492  SOLV      841             0.0000000000
      2643       852  TIP3      H2             -6.7826449752       14.4868806768      -20.7579071492  SOLV      841             0.0000000000
      2644       853  TIP3      OH2            -3.4858349752        8.0504506768      -32.2061071492  SOLV      842             0.0000000000
      2645       853  TIP3      H1             -2.5939349752        7.9129506768      -31.8869871492  SOLV      842             0.0000000000
      2646       853  TIP3      H2             -3.4294749752        8.8410606768      -32.7427571492  SOLV      842             0.0000000000
      2647       854  TIP3      OH2           -12.9770349752       12.6641906768      -26.2963171492  SOLV      843             0.0000000000
      2648       854  TIP3      H1            -12.2323149752       12.6617606768      -26.8976671492  SOLV      843             0.0000000000
      2649       854  TIP3      H2            -12.8993749752       11.8405706768      -25.8148071492  SOLV      843             0.0000000000
      2650       855  TIP3      OH2            -5.9764549752       14.8276206768      -33.0406471492  SOLV      844             0.0000000000
      2651       855  TIP3      H1             -6.2716149752       15.6544106768      -32.6591671492  SOLV      844             0.0000000000
      2652       855  TIP3      H2             -6.6794549752       14.2083106768      -32.8445071492  SOLV      844             0.0000000000
      2653       856  TIP3      OH2           -15.9690649752       11.1248806768      -20.9814671492  SOLV      845             0.0000000000
      2654       856  TIP3      H1            -15.7462049752       10.7068406768      -20.1497171492  SOLV      845             0.0000000000
      2655       856  TIP3      H2            -16.5710549752       10.5123806768      -21.4041871492  SOLV      845             0.0000000000
      2656       857  TIP3      OH2            -8.9525749752       10.6418706768      -18.7684971492  SOLV      846             0.0000000000
      2657       857  TIP3      H1             -9.2484949752       10.4761706768      -19.6635871492  SOLV      846             0.0000000000
      2658       857  TIP3      H2             -8.0210549752       10.4219006768      -18.7791071492  SOLV      846             0.0000000000
      2659       858  TIP3      OH2            -4.3322949752       16.0150706768      -20.8786971492  SOLV      847             0.0000000000
      2660       858  TIP3      H1             -5.2328649752       16.1983306768      -21.1463071492  SOLV      847             0.0000000000
      2661       858  TIP3      H2             -4.2981849752       16.2740006768      -19.9578171492  SOLV      847             0.0000000000
      2662       859  TIP3      OH2             1.3990350248        8.2598606768      -32.5114371492  SOLV      848             0.0000000000
      2663       859  TIP3      H1              0.8446650248        7.8636606768      -33.1836871492  SOLV      848             0.0000000000
      2664       859  TIP3      H2              1.4993950248        9.1703806768      -32.7891071492  SOLV      848             0.0000000000
      2665       860  TIP3      OH2             1.3622350248       14.0600306768      -19.6742871492  SOLV      849             0.0000000000
      2666       860  TIP3      H1              0.5110850248       14.2984106768      -20.0416471492  SOLV      849             0.0000000000
      2667       860  TIP3      H2              1.9525750248       14.0433506768      -20.4275771492  SOLV      849             0.0000000000
      2668       861  TIP3      OH2            -0.3057949752       17.0459006768      -32.0462271492  SOLV      850             0.0000000000
      2669       861  TIP3      H1             -0.6786849752       16.2202806768      -31.7371671492  SOLV      850             0.0000000000
      2670       861  TIP3      H2             -0.0284449752       16.8628406768      -32.9438871492  SOLV      850             0.0000000000
      2671       862  TIP3      OH2            -3.1454049752       11.8538506768      -25.0250371492  SOLV      851             0.0000000000
      2672       862  TIP3      H1             -4.0737149752       11.6220406768      -25.0521071492  SOLV      851             0.0000000000
      2673       862  TIP3      H2             -2.6942949752       11.0768306768      -25.3551571492  SOLV      851             0.0000000000
      2674       863  TIP3      OH2           -10.6020949752       16.1820106768      -28.8921671492  SOLV      852             0.0000000000
      2675       863  TIP3      H1            -10.0748749752       16.9554506768      -29.0922871492  SOLV      852             0.0000000000
      2676       863  TIP3      H2            -11.4822449752       16.4069306768      -29.1937671492  SOLV      852             0.0000000000
      2677       864  TIP3      OH2           -14.8473249752       11.0444206768      -34.3049271492  SOLV      853             0.0000000000
      2678       864  TIP3      H1            -14.2313349752       11.6711406768      -33.9254471492  SOLV      853             0.0000000000
      2679       864  TIP3      H2            -15.7090649752       11.3604006768      -34.0332771492  SOLV      853             0.0000000000
      2680       865  TIP3      OH2            -9.1748649752       13.8450006768      -29.3157371492  SOLV      854             0.0000000000
      2681       865  TIP3      H1             -9.4158649752       14.7704406768      -29.2742071492  SOLV      854             0.0000000000
      2682       865  TIP3      H2             -9.9155049752       13.3861306768      -28.9193471492  SOLV      854             0.0000000000
      2683       866  TIP3      OH2            -8.6602049752       17.9943606768      -23.0006271492  SOLV      855             0.0000000000
      2684       866  TIP3      H1             -8.2977349752       18.8489206768      -23.2341871492  SOLV      855             0.0000000000
      2685       866  TIP3      H2             -8.1286849752       17.7025206768      -22.2599971492  SOLV      855             0.0000000000
      2686       867  TIP3      OH2           -10.4917849752       18.8667606768      -29.7705171492  SOLV      856             0.0000000000
      2687       867  TIP3      H1            -11.4417349752       18.9725006768      -29.7191871492  SOLV      856             0.0000000000
      2688       867  TIP3      H2            -10.1399749752       19.6875006768      -29.4257671492  SOLV      856             0.0000000000
      2689       868  TIP3      OH2            -5.1161249752       14.0934306768      -23.3000671492  SOLV      857             0.0000000000
      2690       868  TIP3      H1             -5.5419949752       13.8656006768      -22.4736671492  SOLV      857             0.0000000000
      2691       868  TIP3      H2             -4.5355449752       13.3546106768      -23.4825371492  SOLV      857             0.0000000000
      2692       869  TIP3      OH2            -2.9132349752       15.0224806768      -34.2261671492  SOLV      858             0.0000000000
      2693       869  TIP3      H1             -2.5599249752       14.6424606768      -33.4218171492  SOLV      858             0.0000000000
      2694       869  TIP3      H2             -3.8618849752       14.9289606768      -34.1392371492  SOLV      858             0.0000000000
      2695       870  TIP3      OH2            -2.4577049752       18.6453806768      -20.8305871492  SOLV      859             0.0000000000
      2696       870  TIP3      H1             -3.0593849752       18.0896706768      -21.3259571492  SOLV      859             0.0000000000
      2697       870  TIP3      H2             -2.1763349752       19.3123606768      -21.4568471492  SOLV      859             0.0000000000
      2698       871  TIP3      OH2           -14.3351149752        5.8781506768      -21.4233271492  SOLV      860             0.0000000000
      2699       871  TIP3      H1            -15.2278849752        6.2166906768      -21.4909271492  SOLV      860             0.0000000000
      2700       871  TIP3      H2            -14.4338349752        5.0227606768      -21.0052471492  SOLV      860             0.0000000000
      2701       872  TIP3      OH2            -2.0473049752       13.6946806768      -31.9993771492  SOLV      861             0.0000000000
      2702       872  TIP3      H1             -2.3245449752       12.9666106768      -31.4432671492  SOLV      861             0.0000000000
      2703       872  TIP3      H2             -1.1200049752       13.8138806768      -31.7941171492  SOLV      861             0.0000000000
      2704       873  TIP3      OH2           -14.6839149752       17.6825906768      -22.9883871492  SOLV      862             0.0000000000
      2705       873  TIP3      H1            -14.4668849752       16.7508306768      -23.0194171492  SOLV      862             0.0000000000
      2706       873  TIP3      H2            -14.4375649752       17.9570906768      -22.1051071492  SOLV      862             0.0000000000
      2707       874  TIP3      OH2            -9.8853949752       15.7044706768      -33.3229071492  SOLV      863             0.0000000000
      2708       874  TIP3      H1             -9.7385949752       15.1844506768      -32.5328171492  SOLV      863             0.0000000000
      2709       874  TIP3      H2             -9.8882249752       16.6112306768      -33.0163171492  SOLV      863             0.0000000000
      2710       875  TIP3      OH2           -13.4322849752       12.9568006768      -32.8123671492  SOLV      864             0.0000000000
      2711       875  TIP3      H1            -14.1183549752       13.3090506768      -32.2453971492  SOLV      864             0.0000000000
      2712       875  TIP3      H2            -12.9094949752       13.7197606768      -33.0589371492  SOLV      864             0.0000000000
      2713       876  TIP3      OH2            -5.6007749752        5.6191806768      -22.5334671492  SOLV      865             0.0000000000
      2714       876  TIP3      H1             -4.9019849752        5.6930506768      -21.8834971492  SOLV      865             0.0000000000
      2715       876  TIP3      H2             -5.9816349752        4.7546806768      -22.3791771492  SOLV      865             0.0000000000
      2716       877  TIP3      OH2            -4.8162849752        5.2713506768      -31.4362371492  SOLV      866             0.0000000000
      2717       877  TIP3      H1             -4.5964549752        5.7428906768      -32.2396971492  SOLV      866             0.0000000000
      2718       877  TIP3      H2             -4.2578849752        5.6656106768      -30.7661771492  SOLV      866             0.0000000000
      2719       878  TIP3      OH2            -7.1476749752       17.4018306768      -32.5734871492  SOLV      867             0.0000000000
      2720       878  TIP3      H1             -7.9640649752       17.8988006768      -32.5210571492  SOLV      867             0.0000000000
      2721       878  TIP3      H2             -6.6180449752       17.8771806768      -33.2136071492  SOLV      867             0.0000000000
      2722       879  TIP3      OH2            -7.6162949752        6.9992306768      -30.6013971492  SOLV      868             0.0000000000
      2723       879  TIP3      H1             -6.8040349752        7.5035506768      -30.5552271492  SOLV      868             0.0000000000
      2724       879  TIP3      H2             -7.8609949752        6.8542006768      -29.6874371492  SOLV      868             0.0000000000
      2725       880  TIP3      OH2            -7.0806549752        7.9855006768      -21.4167371492  SOLV      869             0.0000000000
      2726       880  TIP3      H1             -6.9616249752        8.5590406768      -20.6596971492  SOLV      869             0.0000000000
      2727       880  TIP3      H2             -6.4251949752        7.2974406768      -21.3019571492  SOLV      869             0.0000000000
      2728       881  TIP3      OH2            -6.7326249752        4.0805306768      -29.6632871492  SOLV      870             0.0000000000
      2729       881  TIP3      H1             -7.0792749752        4.6975906768      -29.0188571492  SOLV      870             0.0000000000
      2730       881  TIP3      H2             -6.0739349752        4.5811006768      -30.1447371492  SOLV      870             0.0000000000
      2731       882  TIP3      OH2            -0.8760749752        5.8925306768      -20.5817671492  SOLV      871             0.0000000000
      2732       882  TIP3      H1             -1.7924949752        6.1547006768      -20.6693971492  SOLV      871             0.0000000000
      2733       882  TIP3      H2             -0.5405749752        5.8894306768      -21.4782371492  SOLV      871             0.0000000000
      2734       883  TIP3      OH2            -2.2739749752        9.6426306768      -26.4860371492  SOLV      872             0.0000000000
      2735       883  TIP3      H1             -3.0715349752        9.2276506768      -26.8145371492  SOLV      872             0.0000000000
      2736       883  TIP3      H2             -1.8288649752        8.9520006768      -25.9949871492  SOLV      872             0.0000000000
      2737       884  TIP3      OH2            -1.1875149752       18.8988806768      -24.8636871492  SOLV      873             0.0000000000
      2738       884  TIP3      H1             -1.3430849752       19.5773206768      -25.5207571492  SOLV      873             0.0000000000
      2739       884  TIP3      H2             -0.2548749752       18.9708106768      -24.6606271492  SOLV      873             0.0000000000
      2740       885  TIP3      OH2           -13.6922749752        3.0166506768      -26.1265471492  SOLV      874             0.0000000000
      2741       885  TIP3      H1            -13.9212949752        3.0759006768      -27.0540471492  SOLV      874             0.0000000000
      2742       885  TIP3      H2            -14.1349349752        2.2252006768      -25.8201371492  SOLV      874             0.0000000000
      2743       886  TIP3      OH2           -14.7619449752       16.9573606768      -29.9659671492  SOLV      875             0.0000000000
      2744       886  TIP3      H1            -15.5940849752       17.4296306768      -29.9388271492  SOLV      875             0.0000000000
      2745       886  TIP3      H2            -14.2161149752       17.4671206768      -30.5646571492  SOLV      875             0.0000000000
      2746       887  TIP3      OH2           -15.4735749752       19.5697306768      -18.6361671492  SOLV      876             0.0000000000
      2747       887  TIP3      H1            -14.9333549752       19.3531306768      -17.8762471492  SOLV      876             0.0000000000
      2748       887  TIP3      H2            -15.9547749752       18.7643306768      -18.8259171492  SOLV      876             0.0000000000
      2749       888  TIP3      OH2           -10.8762349752       18.4891706768      -17.0157471492  SOLV      877             0.0000000000
      2750       888  TIP3      H1            -10.1085149752       18.0302506768      -16.6748271492  SOLV      877             0.0000000000
      2751       888  TIP3      H2            -10.8976149752       18.2631506768      -17.9456271492  SOLV      877             0.0000000000
      2752       889  TIP3      OH2            -4.2993649752       16.8692806768      -18.2865971492  SOLV      878             0.0000000000
      2753       889  TIP3      H1             -4.6504149752       16.0125806768      -18.0435571492  SOLV      878             0.0000000000
      2754       889  TIP3      H2             -3.5730449752       17.0119506768      -17.6796971492  SOLV      878             0.0000000000
      2755       890  TIP3      OH2           -15.5666249752       13.3801406768      -17.6817371492  SOLV      879             0.0000000000
      2756       890  TIP3      H1            -15.4225749752       12.4782106768      -17.9680671492  SOLV      879             0.0000000000
      2757       890  TIP3      H2            -16.3388849752       13.6663506768      -18.1695071492  SOLV      879             0.0000000000
      2758       891  TIP3      OH2           -11.2252549752       13.7237106768      -35.5492771492  SOLV      880             0.0000000000
      2759       891  TIP3      H1            -11.1608449752       12.9296706768      -35.0186371492  SOLV      880             0.0000000000
      2760       891  TIP3      H2            -10.5723349752       13.6049906768      -36.2390771492  SOLV      880             0.0000000000
      2761       892  TIP3      OH2            -8.9110149752       13.3499506768      -18.2490971492  SOLV      881             0.0000000000
      2762       892  TIP3      H1             -9.2396349752       13.6207606768      -19.1063571492  SOLV      881             0.0000000000
      2763       892  TIP3      H2             -8.7591949752       12.4089306768      -18.3365971492  SOLV      881             0.0000000000
      2764       893  TIP3      OH2            -5.8729149752       14.7708806768      -35.8134771492  SOLV      882             0.0000000000
      2765       893  TIP3      H1             -6.1415049752       14.9510906768      -34.9125871492  SOLV      882             0.0000000000
      2766       893  TIP3      H2             -6.0793549752       13.8455006768      -35.9448971492  SOLV      882             0.0000000000
      2767       894  TIP3      OH2            -3.1764949752       13.2656806768      -20.8658671492  SOLV      883             0.0000000000
      2768       894  TIP3      H1             -2.4310149752       13.8540506768      -20.9854671492  SOLV      883             0.0000000000
      2769       894  TIP3      H2             -3.9338149752       13.8476506768      -20.8025571492  SOLV      883             0.0000000000
      2770       895  TIP3      OH2           -14.7339749752       10.5804706768      -18.2618071492  SOLV      884             0.0000000000
      2771       895  TIP3      H1            -14.3258549752        9.7231306768      -18.3827471492  SOLV      884             0.0000000000
      2772       895  TIP3      H2            -14.9942149752       10.5946006768      -17.3407771492  SOLV      884             0.0000000000
      2773       896  TIP3      OH2           -10.0758749752       11.6963306768      -33.2434771492  SOLV      885             0.0000000000
      2774       896  TIP3      H1            -10.5356749752       11.2121606768      -32.5576271492  SOLV      885             0.0000000000
      2775       896  TIP3      H2             -9.8210049752       11.0278706768      -33.8794271492  SOLV      885             0.0000000000
      2776       897  TIP3      OH2           -10.7869449752        9.5890406768      -20.8875171492  SOLV      886             0.0000000000
      2777       897  TIP3      H1            -11.4053349752       10.2637006768      -20.6070471492  SOLV      886             0.0000000000
      2778       897  TIP3      H2            -10.4428249752        9.9104306768      -21.7208971492  SOLV      886             0.0000000000
      2779       898  TIP3      OH2            -9.0048349752        9.9395106768      -34.9811571492  SOLV      887             0.0000000000
      2780       898  TIP3      H1             -9.1853349752        9.7846306768      -35.9083271492  SOLV      887             0.0000000000
      2781       898  TIP3      H2             -8.0547849752       10.0473806768      -34.9363671492  SOLV      887             0.0000000000
      2782       899  TIP3      OH2            -5.7671249752       12.0605706768      -17.6100371492  SOLV      888             0.0000000000
      2783       899  TIP3      H1             -4.8140049752       12.1444806768      -17.6374371492  SOLV      888             0.0000000000
      2784       899  TIP3      H2             -5.9276649752       11.3487506768      -16.9905471492  SOLV      888             0.0000000000
      2785       900  TIP3      OH2           -10.4475749752        6.9441206768      -19.8052071492  SOLV      889             0.0000000000
      2786       900  TIP3      H1            -10.2974849752        6.2152506768      -20.4072371492  SOLV      889             0.0000000000
      2787       900  TIP3      H2            -10.4453349752        7.7212906768      -20.3639871492  SOLV      889             0.0000000000
      2788       901  TIP3      OH2           -10.0350049752        5.3137006768      -22.3124671492  SOLV      890             0.0000000000
      2789       901  TIP3      H1             -9.4992549752        5.7653706768      -22.9645371492  SOLV      890             0.0000000000
      2790       901  TIP3      H2            -10.8870449752        5.2056806768      -22.7350571492  SOLV      890             0.0000000000
      2791       902  TIP3      OH2            -8.4531649752       10.7533206768      -22.0729471492  SOLV      891             0.0000000000
      2792       902  TIP3      H1             -7.7026849752       10.5970706768      -22.6461671492  SOLV      891             0.0000000000
      2793       902  TIP3      H2             -8.7923349752       11.6049806768      -22.3483971492  SOLV      891             0.0000000000
      2794       903  TIP3      OH2            -4.0375449752        8.5685006768      -17.0444171492  SOLV      892             0.0000000000
      2795       903  TIP3      H1             -3.8454149752        7.6374406768      -17.1559671492  SOLV      892             0.0000000000
      2796       903  TIP3      H2             -3.1799149752        8.9934506768      -17.0548771492  SOLV      892             0.0000000000
      2797       904  TIP3      OH2            -2.7208249752       11.3570206768      -18.9671471492  SOLV      893             0.0000000000
      2798       904  TIP3      H1             -3.0023249752       12.0664806768      -19.5447671492  SOLV      893             0.0000000000
      2799       904  TIP3      H2             -1.7783949752       11.2843206768      -19.1180271492  SOLV      893             0.0000000000
      2800       905  TIP3      OH2           -11.9689449752        8.1424706768      -17.8936471492  SOLV      894             0.0000000000
      2801       905  TIP3      H1            -12.7360449752        7.6099506768      -18.1038871492  SOLV      894             0.0000000000
      2802       905  TIP3      H2            -11.2900449752        7.8325106768      -18.4930171492  SOLV      894             0.0000000000
      2803       906  TIP3      OH2            -9.2294549752        2.7702706768      -21.8811071492  SOLV      895             0.0000000000
      2804       906  TIP3      H1             -9.3274949752        3.7165906768      -21.9864871492  SOLV      895             0.0000000000
      2805       906  TIP3      H2             -9.9718349752        2.3976506768      -22.3567571492  SOLV      895             0.0000000000
      2806       907  TIP3      OH2            -7.9654049752        7.0918106768      -18.3172671492  SOLV      896             0.0000000000
      2807       907  TIP3      H1             -8.2008649752        6.8724806768      -17.4157771492  SOLV      896             0.0000000000
      2808       907  TIP3      H2             -8.7487149752        6.8849306768      -18.8270171492  SOLV      896             0.0000000000
      2809       908  TIP3      OH2            -5.2497449752        6.2191606768      -19.2419171492  SOLV      897             0.0000000000
      2810       908  TIP3      H1             -6.1972049752        6.2511306768      -19.1095871492  SOLV      897             0.0000000000
      2811       908  TIP3      H2             -4.9370749752        5.5938706768      -18.5880971492  SOLV      897             0.0000000000
      2812       909  TIP3      OH2            -3.6155949752        4.8532706768      -17.2367271492  SOLV      898             0.0000000000
      2813       909  TIP3      H1             -3.7124149752        3.9010006768      -17.2425371492  SOLV      898             0.0000000000
      2814       909  TIP3      H2             -3.9372849752        5.1219506768      -16.3761771492  SOLV      898             0.0000000000
      2815       910  TIP3      OH2           -13.7886649752        6.0628506768      -18.1891771492  SOLV      899             0.0000000000
      2816       910  TIP3      H1            -13.5769249752        5.3564606768      -18.7994271492  SOLV      899             0.0000000000
      2817       910  TIP3      H2            -13.8999149752        5.6254506768      -17.3450571492  SOLV      899             0.0000000000
      2818       911  TIP3      OH2            -9.0076449752        2.0640106768      -19.2098271492  SOLV      900             0.0000000000
      2819       911  TIP3      H1             -8.2958049752        1.4242306768      -19.2239171492  SOLV      900             0.0000000000
      2820       911  TIP3      H2             -9.1086049752        2.3308406768      -20.1235171492  SOLV      900             0.0000000000
      2821       912  TIP3      OH2            -8.6538949752        3.7468506768      -17.1561971492  SOLV      901             0.0000000000
      2822       912  TIP3      H1             -8.7856749752        3.2712306768      -17.9763471492  SOLV      901             0.0000000000
      2823       912  TIP3      H2             -9.2531549752        4.4912106768      -17.2114871492  SOLV      901             0.0000000000
      2824       913  TIP3      OH2           -16.0201949752       18.7398106768      -27.6149771492  SOLV      902             0.0000000000
      2825       913  TIP3      H1            -16.3545149752       17.8595406768      -27.4429571492  SOLV      902             0.0000000000
      2826       913  TIP3      H2            -15.7979549752       19.0853106768      -26.7504171492  SOLV      902             0.0000000000
      2827       914  TIP3      OH2             1.5282850248       19.5494506768      -24.6344971492  SOLV      903             0.0000000000
      2828       914  TIP3      H1              1.5069550248       19.7342906768      -23.6955571492  SOLV      903             0.0000000000
      2829       914  TIP3      H2              2.2189050248       20.1178506768      -24.9753571492  SOLV      903             0.0000000000
      2830       915  TIP3      OH2             1.0915750248       19.1165606768      -21.7125871492  SOLV      904             0.0000000000
      2831       915  TIP3      H1              0.6044450248       18.3809706768      -22.0838471492  SOLV      904             0.0000000000
      2832       915  TIP3      H2              1.6408450248       18.7229506768      -21.0346471492  SOLV      904             0.0000000000
      2833       916  TIP3      OH2            -0.4576949752       14.9063706768      -17.0745571492  SOLV      905             0.0000000000
      2834       916  TIP3      H1             -1.3235849752       14.8013406768      -16.6803271492  SOLV      905             0.0000000000
      2835       916  TIP3      H2             -0.0811049752       15.6647006768      -16.6280871492  SOLV      905             0.0000000000
      2836       917  TIP3      OH2             0.8432750248       13.1627406768      -31.5603071492  SOLV      906             0.0000000000
      2837       917  TIP3      H1              1.6934150248       13.5838306768      -31.4331471492  SOLV      906             0.0000000000
      2838       917  TIP3      H2              0.8487850248       12.4227506768      -30.9531671492  SOLV      906             0.0000000000
      2839       918  TIP3      OH2             1.2378350248       11.2164806768      -29.7367371492  SOLV      907             0.0000000000
      2840       918  TIP3      H1              0.5112950248       10.7367406768      -29.3389771492  SOLV      907             0.0000000000
      2841       918  TIP3      H2              1.8191650248       11.4219506768      -29.0045771492  SOLV      907             0.0000000000
      2842       919  TIP3      OH2             0.9969550248       14.0012306768      -24.7889771492  SOLV      908             0.0000000000
      2843       919  TIP3      H1              1.8303750248       13.6232306768      -25.0696171492  SOLV      908             0.0000000000
      2844       919  TIP3      H2              1.1089850248       14.9443506768      -24.9080671492  SOLV      908             0.0000000000
      2845       920  TIP3      OH2            -0.5168149752       16.8789806768      -22.4821371492  SOLV      909             0.0000000000
      2846       920  TIP3      H1             -1.1642849752       17.2041306768      -21.8566171492  SOLV      909             0.0000000000
      2847       920  TIP3      H2             -1.0344149752       16.4387506768      -23.1563071492  SOLV      909             0.0000000000
      2848       921  TIP3      OH2             1.5061450248       11.1173306768      -33.3456071492  SOLV      910             0.0000000000
      2849       921  TIP3      H1              0.9842550248       11.4737406768      -34.0645171492  SOLV      910             0.0000000000
      2850       921  TIP3      H2              1.4730650248       11.7921106768      -32.6675171492  SOLV      910             0.0000000000
      2851       922  TIP3      OH2            -0.1449549752        8.3568906768      -34.7948971492  SOLV      911             0.0000000000
      2852       922  TIP3      H1             -0.0485149752        9.0235906768      -35.4749271492  SOLV      911             0.0000000000
      2853       922  TIP3      H2             -0.2849949752        7.5415206768      -35.2763471492  SOLV      911             0.0000000000
      2854       923  TIP3      OH2            -0.9754849752        9.7371306768      -29.1738671492  SOLV      912             0.0000000000
      2855       923  TIP3      H1             -1.1256049752        8.7919906768      -29.1940871492  SOLV      912             0.0000000000
      2856       923  TIP3      H2             -1.3290349752       10.0182706768      -28.3299571492  SOLV      912             0.0000000000
      2857       924  TIP3      OH2           -15.9402449752       11.8153506768      -25.1634871492  SOLV      913             0.0000000000
      2858       924  TIP3      H1            -15.7559549752       11.7335206768      -26.0991971492  SOLV      913             0.0000000000
      2859       924  TIP3      H2            -15.0909549752       11.6910506768      -24.7398471492  SOLV      913             0.0000000000
      2860       925  TIP3      OH2            -0.1191949752       11.7074606768      -19.5350371492  SOLV      914             0.0000000000
      2861       925  TIP3      H1              0.4635350248       10.9726906768      -19.3433171492  SOLV      914             0.0000000000
      2862       925  TIP3      H2              0.4447350248       12.4794906768      -19.4884571492  SOLV      914             0.0000000000
      2863       926  TIP3      OH2             1.3775150248        9.6100406768      -18.8504971492  SOLV      915             0.0000000000
      2864       926  TIP3      H1              0.5141850248        9.2312506768      -19.0160271492  SOLV      915             0.0000000000
      2865       926  TIP3      H2              1.9818850248        8.8715206768      -18.9249171492  SOLV      915             0.0000000000
      2866       927  TIP3      OH2            -0.8975749752        5.7648706768      -35.6773471492  SOLV      916             0.0000000000
      2867       927  TIP3      H1             -0.2869949752        5.3935506768      -35.0405271492  SOLV      916             0.0000000000
      2868       927  TIP3      H2             -1.7344249752        5.3435606768      -35.4813471492  SOLV      916             0.0000000000
      2869       928  TIP3      OH2            -1.2650049752        7.3197106768      -30.7113571492  SOLV      917             0.0000000000
      2870       928  TIP3      H1             -0.9852949752        6.4127506768      -30.5871871492  SOLV      917             0.0000000000
      2871       928  TIP3      H2             -0.5058349752        7.7538606768      -31.1004371492  SOLV      917             0.0000000000
      2872       929  TIP3      OH2            -0.6531749752        7.9014506768      -25.2754671492  SOLV      918             0.0000000000
      2873       929  TIP3      H1              0.2796250248        8.1134406768      -25.3098671492  SOLV      918             0.0000000000
      2874       929  TIP3      H2             -0.8884249752        8.0026606768      -24.3531671492  SOLV      918             0.0000000000
      2875       930  TIP3      OH2            -0.6239849752        8.6379806768      -22.4995271492  SOLV      919             0.0000000000
      2876       930  TIP3      H1             -1.4668549752        8.9060206768      -22.1335471492  SOLV      919             0.0000000000
      2877       930  TIP3      H2             -0.1815549752        9.4601706768      -22.7104171492  SOLV      919             0.0000000000
      2878       931  TIP3      OH2           -16.3427649752        7.0858506768      -19.0226071492  SOLV      920             0.0000000000
      2879       931  TIP3      H1            -15.4232749752        6.9636806768      -18.7862971492  SOLV      920             0.0000000000
      2880       931  TIP3      H2            -16.7923149752        6.3358206768      -18.6332571492  SOLV      920             0.0000000000
      2881       932  TIP3      OH2             1.6591750248        2.6180006768      -17.1460271492  SOLV      921             0.0000000000
      2882       932  TIP3      H1              2.0088750248        1.9643506768      -17.7515571492  SOLV      921             0.0000000000
      2883       932  TIP3      H2              1.8061250248        3.4554106768      -17.5857671492  SOLV      921             0.0000000000
      2884       933  TIP3      OH2            -0.6515249752        4.5826406768      -30.6631571492  SOLV      922             0.0000000000
      2885       933  TIP3      H1             -0.4690249752        4.1337906768      -29.8376571492  SOLV      922             0.0000000000
      2886       933  TIP3      H2             -1.2512349752        3.9980806768      -31.1266971492  SOLV      922             0.0000000000
      2887       934  TIP3      OH2           -15.1215149752        5.3980106768      -26.1313171492  SOLV      923             0.0000000000
      2888       934  TIP3      H1            -14.6763549752        4.6062606768      -25.8293471492  SOLV      923             0.0000000000
      2889       934  TIP3      H2            -14.6552149752        6.1145306768      -25.7007571492  SOLV      923             0.0000000000
      2890       935  TIP3      OH2           -16.8174849752        8.3973106768      -25.0622971492  SOLV      924             0.0000000000
      2891       935  TIP3      H1            -16.3255049752        8.1763606768      -25.8530971492  SOLV      924             0.0000000000
      2892       935  TIP3      H2            -16.4553949752        9.2376506768      -24.7813471492  SOLV      924             0.0000000000
      2893       936  TIP3      OH2             1.1788950248        4.7274606768      -18.7968971492  SOLV      925             0.0000000000
      2894       936  TIP3      H1              0.2614650248        4.9981706768      -18.8325471492  SOLV      925             0.0000000000
      2895       936  TIP3      H2              1.3018350248        4.1923006768      -19.5809271492  SOLV      925             0.0000000000
      2896       937  TIP3      OH2             1.2150950248        4.6504506768      -34.1351271492  SOLV      926             0.0000000000
      2897       937  TIP3      H1              1.6273550248        3.9290206768      -34.6103271492  SOLV      926             0.0000000000
      2898       937  TIP3      H2              1.8967450248        5.3199106768      -34.0766971492  SOLV      926             0.0000000000
      2899       938  TIP3      OH2           -16.5038349752        4.6552206768      -31.0080571492  SOLV      927             0.0000000000
      2900       938  TIP3      H1            -17.4289949752        4.8638806768      -31.1375071492  SOLV      927             0.0000000000
      2901       938  TIP3      H2            -16.0498449752        5.1393006768      -31.6978271492  SOLV      927             0.0000000000
      2902       939  TIP3      OH2            -1.7331149752       19.6393906768      -29.0623171492  SOLV      928             0.0000000000
      2903       939  TIP3      H1             -1.0808249752       19.2916006768      -29.6704071492  SOLV      928             0.0000000000
      2904       939  TIP3      H2             -1.2227349752       20.1277106768      -28.4163471492  SOLV      928             0.0000000000
      2905       940  TIP3      OH2           -16.5402949752        3.3931206768      -22.6638071492  SOLV      929             0.0000000000
      2906       940  TIP3      H1            -17.2052449752        3.1471506768      -22.0207171492  SOLV      929             0.0000000000
      2907       940  TIP3      H2            -16.9831649752        4.0151606768      -23.2410071492  SOLV      929             0.0000000000
      2908       941  TIP3      OH2           -14.3483649752       16.5685306768      -18.5192271492  SOLV      930             0.0000000000
      2909       941  TIP3      H1            -15.1691149752       16.7431806768      -18.9797571492  SOLV      930             0.0000000000
      2910       941  TIP3      H2            -14.6005849752       16.4950006768      -17.5987871492  SOLV      930             0.0000000000
      2911       942  TIP3      OH2           -11.3940749752       17.5426506768      -22.2608271492  SOLV      931             0.0000000000
      2912       942  TIP3      H1            -11.8189649752       18.3525006768      -22.5433671492  SOLV      931             0.0000000000
      2913       942  TIP3      H2            -10.4897949752       17.6280606768      -22.5628471492  SOLV      931             0.0000000000
      2914       943  TIP3      OH2            -7.0829349752       18.9416506768      -19.3014571492  SOLV      932             0.0000000000
      2915       943  TIP3      H1             -6.8981849752       18.6082606768      -18.4234271492  SOLV      932             0.0000000000
      2916       943  TIP3      H2             -6.2364849752       19.2515106768      -19.6235371492  SOLV      932             0.0000000000
      2917       944  TIP3      OH2            -4.7378949752       20.2275406768      -20.0573171492  SOLV      933             0.0000000000
      2918       944  TIP3      H1             -4.0610049752       19.5947706768      -20.2973971492  SOLV      933             0.0000000000
      2919       944  TIP3      H2             -4.4160149752       20.6285906768      -19.2499871492  SOLV      933             0.0000000000
      2920       945  TIP3      OH2             0.1794850248        2.8170906768      -20.9778171492  SOLV      934             0.0000000000
      2921       945  TIP3      H1             -0.6331649752        3.1421206768      -21.3653471492  SOLV      934             0.0000000000
      2922       945  TIP3      H2              0.4123350248        2.0569406768      -21.5109071492  SOLV      934             0.0000000000
      2923       946  TIP3      OH2           -13.9924049752       20.7990406768      -22.2132971492  SOLV      935             0.0000000000
      2924       946  TIP3      H1            -14.7127649752       21.2391406768      -22.6645271492  SOLV      935             0.0000000000
      2925       946  TIP3      H2            -14.3580049752       20.5485106768      -21.3648971492  SOLV      935             0.0000000000
      2926       947  TIP3      OH2           -11.5251449752       20.3994306768      -23.1835771492  SOLV      936             0.0000000000
      2927       947  TIP3      H1            -12.3899249752       20.4712806768      -22.7795671492  SOLV      936             0.0000000000
      2928       947  TIP3      H2            -11.5802449752       20.9461606768      -23.9673271492  SOLV      936             0.0000000000
      2929       948  TIP3      OH2            -6.8145849752       20.2873206768      -24.0079771492  SOLV      937             0.0000000000
      2930       948  TIP3      H1             -7.2711849752       20.8162906768      -24.6621371492  SOLV      937             0.0000000000
      2931       948  TIP3      H2             -6.6517849752       20.8904606768      -23.2827471492  SOLV      937             0.0000000000
      2932       949  TIP3      OH2            -4.4869549752       19.1652806768      -23.0629471492  SOLV      938             0.0000000000
      2933       949  TIP3      H1             -5.3915849752       19.3303006768      -23.3287371492  SOLV      938             0.0000000000
      2934       949  TIP3      H2             -4.0580949752       20.0185006768      -23.1286071492  SOLV      938             0.0000000000
      2935       950  TIP3      OH2            -1.8827649752       20.7351906768      -22.7681671492  SOLV      939             0.0000000000
      2936       950  TIP3      H1             -2.0645649752       21.6510806768      -22.9786771492  SOLV      939             0.0000000000
      2937       950  TIP3      H2             -1.7059849752       20.3249006768      -23.6147071492  SOLV      939             0.0000000000
      2938       951  TIP3      OH2           -14.5775949752       19.4222906768      -25.3031171492  SOLV      940             0.0000000000
      2939       951  TIP3      H1            -14.5959949752       18.9968006768      -24.4458871492  SOLV      940             0.0000000000
      2940       951  TIP3      H2            -13.7728049752       19.1037906768      -25.7118971492  SOLV      940             0.0000000000
      2941       952  TIP3      OH2           -12.4362849752       18.1321606768      -26.6481271492  SOLV      941             0.0000000000
      2942       952  TIP3      H1            -12.6552149752       17.2159006768      -26.4785271492  SOLV      941             0.0000000000
      2943       952  TIP3      H2            -11.6120649752       18.2722006768      -26.1819871492  SOLV      941             0.0000000000
      2944       953  TIP3      OH2            -9.8990349752       18.6020906768      -25.7993271492  SOLV      942             0.0000000000
      2945       953  TIP3      H1             -9.6864649752       17.7139906768      -26.0862371492  SOLV      942             0.0000000000
      2946       953  TIP3      H2             -9.8345249752       18.5678606768      -24.8449271492  SOLV      942             0.0000000000
      2947       954  TIP3      OH2            -6.3906649752        4.2661506768      -26.6549971492  SOLV      943             0.0000000000
      2948       954  TIP3      H1             -7.0649849752        3.6367106768      -26.3994171492  SOLV      943             0.0000000000
      2949       954  TIP3      H2             -5.8267449752        3.7820406768      -27.2582071492  SOLV      943             0.0000000000
      2950       955  TIP3      OH2            -1.2479449752        2.3735506768      -26.5422871492  SOLV      944             0.0000000000
      2951       955  TIP3      H1             -0.6441849752        2.9210906768      -27.0441871492  SOLV      944             0.0000000000
      2952       955  TIP3      H2             -2.1177449752        2.6925906768      -26.7828771492  SOLV      944             0.0000000000
      2953       956  TIP3      OH2             0.4790950248        3.5124206768      -28.2091971492  SOLV      945             0.0000000000
      2954       956  TIP3      H1              1.0908450248        2.9979906768      -28.7358371492  SOLV      945             0.0000000000
      2955       956  TIP3      H2              0.8614350248        4.3896306768      -28.1857571492  SOLV      945             0.0000000000
      2956       957  TIP3      OH2           -14.0639149752        2.9001806768      -28.8330071492  SOLV      946             0.0000000000
      2957       957  TIP3      H1            -14.8409349752        2.6656706768      -29.3404171492  SOLV      946             0.0000000000
      2958       957  TIP3      H2            -13.5335549752        2.1033906768      -28.8242071492  SOLV      946             0.0000000000
      2959       958  TIP3      OH2            -9.4846549752        2.8268906768      -29.0196971492  SOLV      947             0.0000000000
      2960       958  TIP3      H1             -8.6103149752        3.2153206768      -29.0492671492  SOLV      947             0.0000000000
      2961       958  TIP3      H2             -9.6205749752        2.6116706768      -28.0969771492  SOLV      947             0.0000000000
      2962       959  TIP3      OH2            -3.9278149752        2.8568706768      -27.3705271492  SOLV      948             0.0000000000
      2963       959  TIP3      H1             -3.8516549752        2.9520306768      -28.3199271492  SOLV      948             0.0000000000
      2964       959  TIP3      H2             -4.2028949752        1.9491606768      -27.2416171492  SOLV      948             0.0000000000
      2965       960  TIP3      OH2            -2.5745549752        2.8826506768      -31.6780271492  SOLV      949             0.0000000000
      2966       960  TIP3      H1             -3.2774449752        3.4975706768      -31.8878871492  SOLV      949             0.0000000000
      2967       960  TIP3      H2             -3.0194149752        2.0453206768      -31.5469371492  SOLV      949             0.0000000000
      2968       961  TIP3      OH2            -8.3406549752        4.9072906768      -32.1299371492  SOLV      950             0.0000000000
      2969       961  TIP3      H1             -8.1625249752        4.2606106768      -31.4470771492  SOLV      950             0.0000000000
      2970       961  TIP3      H2             -8.3940349752        5.7410606768      -31.6628271492  SOLV      950             0.0000000000
      2971       962  TIP3      OH2             0.2466850248       19.4187306768      -31.0551571492  SOLV      951             0.0000000000
      2972       962  TIP3      H1              0.0523950248       18.6709406768      -31.6201971492  SOLV      951             0.0000000000
      2973       962  TIP3      H2              0.2076950248       20.1767406768      -31.6383671492  SOLV      951             0.0000000000
      2974       963  TIP3      OH2           -14.1061149752        3.4143706768      -19.3153871492  SOLV      952             0.0000000000
      2975       963  TIP3      H1            -14.4722949752        2.6486306768      -18.8729171492  SOLV      952             0.0000000000
      2976       963  TIP3      H2            -13.1932649752        3.4433906768      -19.0288771492  SOLV      952             0.0000000000
      2977       964  TIP3      OH2           -12.1330349752        2.7648106768      -17.7796771492  SOLV      953             0.0000000000
      2978       964  TIP3      H1            -11.2346749752        2.4908306768      -17.9643371492  SOLV      953             0.0000000000
      2979       964  TIP3      H2            -12.5197249752        2.0224106768      -17.3154171492  SOLV      953             0.0000000000
      2980       965  TIP3      OH2            -3.7118049752        2.0973406768      -17.5973971492  SOLV      954             0.0000000000
      2981       965  TIP3      H1             -3.6350849752        1.6714106768      -16.7436271492  SOLV      954             0.0000000000
      2982       965  TIP3      H2             -2.8181449752        2.1108106768      -17.9400471492  SOLV      954             0.0000000000
      2983       966  TIP3      OH2            -0.5356949752       18.1699706768      -18.9049771492  SOLV      955             0.0000000000
      2984       966  TIP3      H1             -1.3175049752       17.9837706768      -19.4249171492  SOLV      955             0.0000000000
      2985       966  TIP3      H2             -0.6077049752       19.0994006768      -18.6877271492  SOLV      955             0.0000000000
      2986       967  TIP3      OH2            12.8034750248       11.3114806768      -25.4554371492  SOLV      956             0.0000000000
      2987       967  TIP3      H1             12.7652250248       10.6651106768      -24.7504771492  SOLV      956             0.0000000000
      2988       967  TIP3      H2             12.4811250248       10.8449206768      -26.2265671492  SOLV      956             0.0000000000
      2989       968  TIP3      OH2             5.1719750248       10.9256906768      -23.8624471492  SOLV      957             0.0000000000
      2990       968  TIP3      H1              5.2131850248       10.3000206768      -23.1392071492  SOLV      957             0.0000000000
      2991       968  TIP3      H2              5.8747450248       11.5495506768      -23.6804071492  SOLV      957             0.0000000000
      2992       969  TIP3      OH2             6.0952850248       15.3755806768      -25.3275371492  SOLV      958             0.0000000000
      2993       969  TIP3      H1              5.7258050248       14.5736306768      -25.6971071492  SOLV      958             0.0000000000
      2994       969  TIP3      H2              7.0363950248       15.2070706768      -25.2811971492  SOLV      958             0.0000000000
      2995       970  TIP3      OH2             2.7053350248        9.0358406768      -29.9346571492  SOLV      959             0.0000000000
      2996       970  TIP3      H1              2.2576750248        9.8817106768      -29.9530071492  SOLV      959             0.0000000000
      2997       970  TIP3      H2              2.1444550248        8.4562606768      -30.4501471492  SOLV      959             0.0000000000
      2998       971  TIP3      OH2             3.4159450248       11.1978006768      -27.8088571492  SOLV      960             0.0000000000
      2999       971  TIP3      H1              3.6292950248       10.4279606768      -27.2815571492  SOLV      960             0.0000000000
      3000       971  TIP3      H2              4.1537050248       11.2874706768      -28.4120971492  SOLV      960             0.0000000000
      3001       972  TIP3      OH2            11.1929150248       13.7436206768      -25.0493371492  SOLV      961             0.0000000000
      3002       972  TIP3      H1             11.4967050248       13.0577606768      -25.6439271492  SOLV      961             0.0000000000
      3003       972  TIP3      H2             11.9143150248       13.8624906768      -24.4315371492  SOLV      961             0.0000000000
      3004       973  TIP3      OH2            19.8558950248        5.3451506768      -24.1887171492  SOLV      962             0.0000000000
      3005       973  TIP3      H1             19.9051150248        5.9552706768      -23.4528071492  SOLV      962             0.0000000000
      3006       973  TIP3      H2             20.2814050248        5.8062406768      -24.9116071492  SOLV      962             0.0000000000
      3007       974  TIP3      OH2            14.3336150248        8.1378606768      -24.7218571492  SOLV      963             0.0000000000
      3008       974  TIP3      H1             14.4762050248        7.1915606768      -24.7016971492  SOLV      963             0.0000000000
      3009       974  TIP3      H2             14.2275150248        8.3448406768      -25.6503671492  SOLV      963             0.0000000000
      3010       975  TIP3      OH2             7.4884450248        6.2395006768      -27.4493771492  SOLV      964             0.0000000000
      3011       975  TIP3      H1              7.5315550248        7.0993506768      -27.8677471492  SOLV      964             0.0000000000
      3012       975  TIP3      H2              7.0308550248        5.6869706768      -28.0830571492  SOLV      964             0.0000000000
      3013       976  TIP3      OH2             4.1085950248        8.6360806768      -26.6872371492  SOLV      965             0.0000000000
      3014       976  TIP3      H1              4.7622550248        8.0862506768      -26.2552271492  SOLV      965             0.0000000000
      3015       976  TIP3      H2              4.1325250248        8.3619806768      -27.6040371492  SOLV      965             0.0000000000
      3016       977  TIP3      OH2             9.2650450248       10.1862106768      -27.4720871492  SOLV      966             0.0000000000
      3017       977  TIP3      H1              9.8811450248        9.6597506768      -26.9626871492  SOLV      966             0.0000000000
      3018       977  TIP3      H2              8.6789250248        9.5460806768      -27.8757271492  SOLV      966             0.0000000000
      3019       978  TIP3      OH2            20.2473550248        6.8230706768      -21.9527371492  SOLV      967             0.0000000000
      3020       978  TIP3      H1             19.5588150248        7.4811406768      -22.0480771492  SOLV      967             0.0000000000
      3021       978  TIP3      H2             20.2628150248        6.6258606768      -21.0161971492  SOLV      967             0.0000000000
      3022       979  TIP3      OH2             6.2986350248        5.1573406768      -23.3752971492  SOLV      968             0.0000000000
      3023       979  TIP3      H1              6.0798050248        5.6874006768      -24.1416971492  SOLV      968             0.0000000000
      3024       979  TIP3      H2              5.6307250248        5.3838906768      -22.7281571492  SOLV      968             0.0000000000
      3025       980  TIP3      OH2             8.8677750248       12.8329106768      -23.0879271492  SOLV      969             0.0000000000
      3026       980  TIP3      H1              8.1276850248       13.4310606768      -22.9844071492  SOLV      969             0.0000000000
      3027       980  TIP3      H2              9.5817250248       13.3868706768      -23.4035671492  SOLV      969             0.0000000000
      3028       981  TIP3      OH2            16.9745550248        5.6609906768      -27.0679571492  SOLV      970             0.0000000000
      3029       981  TIP3      H1             16.7593550248        4.8953306768      -26.5353571492  SOLV      970             0.0000000000
      3030       981  TIP3      H2             17.6302950248        6.1334506768      -26.5551071492  SOLV      970             0.0000000000
      3031       982  TIP3      OH2             5.8923650248        7.0495206768      -25.4230771492  SOLV      971             0.0000000000
      3032       982  TIP3      H1              6.5059950248        7.6822806768      -25.0498371492  SOLV      971             0.0000000000
      3033       982  TIP3      H2              6.4044350248        6.5770206768      -26.0793871492  SOLV      971             0.0000000000
      3034       983  TIP3      OH2             7.2752050248       14.7972106768      -22.3007771492  SOLV      972             0.0000000000
      3035       983  TIP3      H1              7.2699650248       15.6765606768      -22.6788471492  SOLV      972             0.0000000000
      3036       983  TIP3      H2              6.4216150248       14.7136206768      -21.8757871492  SOLV      972             0.0000000000
      3037       984  TIP3      OH2             3.3962950248       14.4680006768      -31.5188471492  SOLV      973             0.0000000000
      3038       984  TIP3      H1              3.1243850248       14.6971006768      -32.4075571492  SOLV      973             0.0000000000
      3039       984  TIP3      H2              3.4418650248       15.3058806768      -31.0583171492  SOLV      973             0.0000000000
      3040       985  TIP3      OH2            17.3219650248        4.3761206768      -23.3886071492  SOLV      974             0.0000000000
      3041       985  TIP3      H1             16.5858850248        4.9868306768      -23.4264771492  SOLV      974             0.0000000000
      3042       985  TIP3      H2             18.0053650248        4.7910206768      -23.9149671492  SOLV      974             0.0000000000
      3043       986  TIP3      OH2            10.3251050248        2.4628506768      -25.9228071492  SOLV      975             0.0000000000
      3044       986  TIP3      H1             10.2075250248        1.5144506768      -25.9769771492  SOLV      975             0.0000000000
      3045       986  TIP3      H2              9.4701150248        2.7954606768      -25.6496971492  SOLV      975             0.0000000000
      3046       987  TIP3      OH2            18.1190550248       14.3384606768      -21.1948271492  SOLV      976             0.0000000000
      3047       987  TIP3      H1             18.2586850248       13.7467106768      -21.9341271492  SOLV      976             0.0000000000
      3048       987  TIP3      H2             18.2863350248       15.2110506768      -21.5509471492  SOLV      976             0.0000000000
      3049       988  TIP3      OH2            19.9609850248       10.6782606768      -23.1287871492  SOLV      977             0.0000000000
      3050       988  TIP3      H1             19.3083950248       11.3728206768      -23.0396971492  SOLV      977             0.0000000000
      3051       988  TIP3      H2             20.4260150248       10.8883506768      -23.9386271492  SOLV      977             0.0000000000
      3052       989  TIP3      OH2            15.8947150248        9.6840006768      -21.4029371492  SOLV      978             0.0000000000
      3053       989  TIP3      H1             15.9746250248       10.4474406768      -20.8310871492  SOLV      978             0.0000000000
      3054       989  TIP3      H2             15.2934850248        9.9632406768      -22.0934271492  SOLV      978             0.0000000000
      3055       990  TIP3      OH2             7.6427350248       12.1403606768      -28.5881371492  SOLV      979             0.0000000000
      3056       990  TIP3      H1              7.3122550248       11.7697006768      -29.4064371492  SOLV      979             0.0000000000
      3057       990  TIP3      H2              8.2311450248       11.4697606768      -28.2413071492  SOLV      979             0.0000000000
      3058       991  TIP3      OH2             9.0094850248       15.5684206768      -25.9069171492  SOLV      980             0.0000000000
      3059       991  TIP3      H1              8.9146150248       14.9897306768      -26.6634571492  SOLV      980             0.0000000000
      3060       991  TIP3      H2              9.7388450248       15.1969906768      -25.4106371492  SOLV      980             0.0000000000
      3061       992  TIP3      OH2             8.0092850248       10.9089206768      -24.9546371492  SOLV      981             0.0000000000
      3062       992  TIP3      H1              8.5745350248       11.0303406768      -25.7175171492  SOLV      981             0.0000000000
      3063       992  TIP3      H2              8.3281750248       11.5464206768      -24.3157871492  SOLV      981             0.0000000000
      3064       993  TIP3      OH2            14.3185050248       16.4121106768      -24.2205871492  SOLV      982             0.0000000000
      3065       993  TIP3      H1             14.0781650248       17.0744206768      -23.5726671492  SOLV      982             0.0000000000
      3066       993  TIP3      H2             14.1203250248       15.5776306768      -23.7956271492  SOLV      982             0.0000000000
      3067       994  TIP3      OH2             8.8893550248       15.3081906768      -20.2374471492  SOLV      983             0.0000000000
      3068       994  TIP3      H1              8.5781050248       16.0905106768      -19.7821271492  SOLV      983             0.0000000000
      3069       994  TIP3      H2              8.2393750248       15.1551006768      -20.9232471492  SOLV      983             0.0000000000
      3070       995  TIP3      OH2             5.8093450248       11.5063006768      -21.0088771492  SOLV      984             0.0000000000
      3071       995  TIP3      H1              5.8796650248       12.1569806768      -20.3103771492  SOLV      984             0.0000000000
      3072       995  TIP3      H2              4.9185650248       11.6090506768      -21.3437871492  SOLV      984             0.0000000000
      3073       996  TIP3      OH2             7.1289450248       17.3796906768      -19.4740671492  SOLV      985             0.0000000000
      3074       996  TIP3      H1              7.1364750248       17.2436606768      -20.4215171492  SOLV      985             0.0000000000
      3075       996  TIP3      H2              6.2129850248       17.2625006768      -19.2220671492  SOLV      985             0.0000000000
      3076       997  TIP3      OH2             6.6330050248       11.2097906768      -30.9988571492  SOLV      986             0.0000000000
      3077       997  TIP3      H1              6.3411350248       11.9779606768      -31.4897271492  SOLV      986             0.0000000000
      3078       997  TIP3      H2              5.9585250248       10.5504106768      -31.1617171492  SOLV      986             0.0000000000
      3079       998  TIP3      OH2             2.7260150248       13.5727106768      -22.1838771492  SOLV      987             0.0000000000
      3080       998  TIP3      H1              2.2248550248       13.5446506768      -22.9989071492  SOLV      987             0.0000000000
      3081       998  TIP3      H2              2.7313850248       12.6670306768      -21.8741471492  SOLV      987             0.0000000000
      3082       999  TIP3      OH2             2.4762850248       16.3530906768      -25.2998571492  SOLV      988             0.0000000000
      3083       999  TIP3      H1              3.4223450248       16.2087906768      -25.3189071492  SOLV      988             0.0000000000
      3084       999  TIP3      H2              2.3639150248       17.1373706768      -24.7627371492  SOLV      988             0.0000000000
      3085      1000  TIP3      OH2            20.6741350248       17.0190606768      -19.6174871492  SOLV      989             0.0000000000
      3086      1000  TIP3      H1             20.6248150248       16.0638706768      -19.6547271492  SOLV      989             0.0000000000
      3087      1000  TIP3      H2             19.8473650248       17.2865906768      -19.2161071492  SOLV      989             0.0000000000
      3088      1001  TIP3      OH2            11.6525350248       16.5929806768      -20.7413471492  SOLV      990             0.0000000000
      3089      1001  TIP3      H1             11.7399950248       17.4194406768      -20.2664371492  SOLV      990             0.0000000000
      3090      1001  TIP3      H2             10.7890450248       16.2633606768      -20.4924171492  SOLV      990             0.0000000000
      3091      1002  TIP3      OH2             5.7204950248       19.1540506768      -29.1543871492  SOLV      991             0.0000000000
      3092      1002  TIP3      H1              5.8725350248       18.8060906768      -28.2757371492  SOLV      991             0.0000000000
      3093      1002  TIP3      H2              4.8695350248       18.7977806768      -29.4096671492  SOLV      991             0.0000000000
      3094      1003  TIP3      OH2            17.8261150248        8.5123106768      -19.1372671492  SOLV      992             0.0000000000
      3095      1003  TIP3      H1             17.4187950248        8.9928706768      -19.8579371492  SOLV      992             0.0000000000
      3096      1003  TIP3      H2             17.8666850248        7.6069106768      -19.4451871492  SOLV      992             0.0000000000
      3097      1004  TIP3      OH2             4.9750650248       14.8962506768      -21.1405971492  SOLV      993             0.0000000000
      3098      1004  TIP3      H1              5.1911950248       14.5348106768      -20.2810171492  SOLV      993             0.0000000000
      3099      1004  TIP3      H2              4.1195350248       14.5216306768      -21.3502471492  SOLV      993             0.0000000000
      3100      1005  TIP3      OH2             7.5938650248        3.3663006768      -25.1451771492  SOLV      994             0.0000000000
      3101      1005  TIP3      H1              6.7322350248        3.2791206768      -25.5528871492  SOLV      994             0.0000000000
      3102      1005  TIP3      H2              7.5714350248        4.2223106768      -24.7174171492  SOLV      994             0.0000000000
      3103      1006  TIP3      OH2            12.2566450248        3.0883406768      -21.7704771492  SOLV      995             0.0000000000
      3104      1006  TIP3      H1             12.6769550248        2.6730506768      -21.0174171492  SOLV      995             0.0000000000
      3105      1006  TIP3      H2             11.3236050248        2.9096706768      -21.6532771492  SOLV      995             0.0000000000
      3106      1007  TIP3      OH2            15.5831350248        6.8438606768      -20.9170271492  SOLV      996             0.0000000000
      3107      1007  TIP3      H1             15.0690850248        6.7180806768      -20.1194271492  SOLV      996             0.0000000000
      3108      1007  TIP3      H2             15.4276050248        7.7561706768      -21.1614071492  SOLV      996             0.0000000000
      3109      1008  TIP3      OH2             7.6848750248        8.3317506768      -24.0501571492  SOLV      997             0.0000000000
      3110      1008  TIP3      H1              7.0430850248        8.2914806768      -23.3411471492  SOLV      997             0.0000000000
      3111      1008  TIP3      H2              7.7220750248        9.2582206768      -24.2878571492  SOLV      997             0.0000000000
      3112      1009  TIP3      OH2             7.6817850248        8.5527606768      -29.1381571492  SOLV      998             0.0000000000
      3113      1009  TIP3      H1              6.7890750248        8.2123706768      -29.1967771492  SOLV      998             0.0000000000
      3114      1009  TIP3      H2              8.1324450248        8.1758506768      -29.8938371492  SOLV      998             0.0000000000
      3115      1010  TIP3      OH2            12.3194950248        9.1444306768      -18.8330071492  SOLV      999             0.0000000000
      3116      1010  TIP3      H1             11.7568750248        8.4395906768      -18.5122271492  SOLV      999             0.0000000000
      3117      1010  TIP3      H2             13.1458350248        9.0236206768      -18.3652471492  SOLV      999             0.0000000000
      3118      1011  TIP3      OH2            14.2221050248        8.4148306768      -27.5071071492  SOLV      1000            0.0000000000
      3119      1011  TIP3      H1             14.0265550248        9.0205106768      -28.2220471492  SOLV      1000            0.0000000000
      3120      1011  TIP3      H2             14.4033650248        7.5813506768      -27.9414771492  SOLV      1000            0.0000000000
      3121      1012  TIP3      OH2             5.4349250248        8.6521006768      -22.1829571492  SOLV      1001            0.0000000000
      3122      1012  TIP3      H1              5.3968650248        9.0522606768      -21.3142471492  SOLV      1001            0.0000000000
      3123      1012  TIP3      H2              4.9440350248        7.8353406768      -22.0926671492  SOLV      1001            0.0000000000
      3124      1013  TIP3      OH2             2.0430050248        5.7682806768      -28.3324871492  SOLV      1002            0.0000000000
      3125      1013  TIP3      H1              2.6737750248        5.7394906768      -27.6130971492  SOLV      1002            0.0000000000
      3126      1013  TIP3      H2              2.4924350248        5.3431506768      -29.0628971492  SOLV      1002            0.0000000000
      3127      1014  TIP3      OH2             3.3172150248        6.5144806768      -32.9084471492  SOLV      1003            0.0000000000
      3128      1014  TIP3      H1              3.7913850248        7.1054706768      -33.4933571492  SOLV      1003            0.0000000000
      3129      1014  TIP3      H2              2.5998550248        7.0447706768      -32.5614371492  SOLV      1003            0.0000000000
      3130      1015  TIP3      OH2            13.4860250248       10.0529606768      -22.8358671492  SOLV      1004            0.0000000000
      3131      1015  TIP3      H1             13.8095050248        9.4219306768      -23.4788171492  SOLV      1004            0.0000000000
      3132      1015  TIP3      H2             13.0459550248        9.5181806768      -22.1751271492  SOLV      1004            0.0000000000
      3133      1016  TIP3      OH2            10.2633150248        5.9805106768      -28.0517471492  SOLV      1005            0.0000000000
      3134      1016  TIP3      H1              9.3524250248        6.0371906768      -27.7631471492  SOLV      1005            0.0000000000
      3135      1016  TIP3      H2             10.7686050248        5.9200606768      -27.2410271492  SOLV      1005            0.0000000000
      3136      1017  TIP3      OH2             5.0916550248        7.6091406768      -29.2249871492  SOLV      1006            0.0000000000
      3137      1017  TIP3      H1              4.2024550248        7.7086906768      -29.5650271492  SOLV      1006            0.0000000000
      3138      1017  TIP3      H2              5.3881450248        6.7674406768      -29.5711971492  SOLV      1006            0.0000000000
      3139      1018  TIP3      OH2            14.6685050248        5.2151406768      -24.7875671492  SOLV      1007            0.0000000000
      3140      1018  TIP3      H1             13.9916650248        5.3464506768      -24.1235971492  SOLV      1007            0.0000000000
      3141      1018  TIP3      H2             14.1829950248        5.0600906768      -25.5977971492  SOLV      1007            0.0000000000
      3142      1019  TIP3      OH2            17.9560150248       20.8866806768      -18.5108071492  SOLV      1008            0.0000000000
      3143      1019  TIP3      H1             18.1558850248       21.3108706768      -19.3452771492  SOLV      1008            0.0000000000
      3144      1019  TIP3      H2             18.6113850248       21.2305006768      -17.9037671492  SOLV      1008            0.0000000000
      3145      1020  TIP3      OH2             5.5539950248       13.3608106768      -18.9027571492  SOLV      1009            0.0000000000
      3146      1020  TIP3      H1              6.2862350248       13.6154006768      -18.3413071492  SOLV      1009            0.0000000000
      3147      1020  TIP3      H2              4.7738650248       13.5653506768      -18.3872171492  SOLV      1009            0.0000000000
      3148      1021  TIP3      OH2            11.5832850248        8.7678106768      -26.1647871492  SOLV      1010            0.0000000000
      3149      1021  TIP3      H1             12.1476250248        8.2214706768      -26.7118271492  SOLV      1010            0.0000000000
      3150      1021  TIP3      H2             11.4356250248        8.2460006768      -25.3760271492  SOLV      1010            0.0000000000
      3151      1022  TIP3      OH2             6.5852550248        4.9044206768      -29.7463071492  SOLV      1011            0.0000000000
      3152      1022  TIP3      H1              6.2682050248        4.0019506768      -29.7817671492  SOLV      1011            0.0000000000
      3153      1022  TIP3      H2              7.3666650248        4.9061606768      -30.2991471492  SOLV      1011            0.0000000000
      3154      1023  TIP3      OH2            10.2098750248        7.1564206768      -23.7507471492  SOLV      1012            0.0000000000
      3155      1023  TIP3      H1              9.3744050248        7.6103706768      -23.6405071492  SOLV      1012            0.0000000000
      3156      1023  TIP3      H2             10.7339350248        7.4322706768      -22.9987571492  SOLV      1012            0.0000000000
      3157      1024  TIP3      OH2            17.9040250248       12.5020106768      -23.2793471492  SOLV      1013            0.0000000000
      3158      1024  TIP3      H1             18.5459050248       12.9586406768      -23.8231271492  SOLV      1013            0.0000000000
      3159      1024  TIP3      H2             17.0737150248       12.6152506768      -23.7419371492  SOLV      1013            0.0000000000
      3160      1025  TIP3      OH2            12.2733450248       13.5535206768      -20.8291971492  SOLV      1014            0.0000000000
      3161      1025  TIP3      H1             11.9279550248       13.1717606768      -20.0222371492  SOLV      1014            0.0000000000
      3162      1025  TIP3      H2             12.0733550248       14.4868806768      -20.7579071492  SOLV      1014            0.0000000000
      3163      1026  TIP3      OH2             5.8789650248       12.6641906768      -26.2963171492  SOLV      1015            0.0000000000
      3164      1026  TIP3      H1              6.6236850248       12.6617606768      -26.8976671492  SOLV      1015            0.0000000000
      3165      1026  TIP3      H2              5.9566250248       11.8405706768      -25.8148071492  SOLV      1015            0.0000000000
      3166      1027  TIP3      OH2             2.8869350248       11.1248806768      -20.9814671492  SOLV      1016            0.0000000000
      3167      1027  TIP3      H1              3.1097950248       10.7068406768      -20.1497171492  SOLV      1016            0.0000000000
      3168      1027  TIP3      H2              2.2849450248       10.5123806768      -21.4041871492  SOLV      1016            0.0000000000
      3169      1028  TIP3      OH2             9.9034250248       10.6418706768      -18.7684971492  SOLV      1017            0.0000000000
      3170      1028  TIP3      H1              9.6075050248       10.4761706768      -19.6635871492  SOLV      1017            0.0000000000
      3171      1028  TIP3      H2             10.8349450248       10.4219006768      -18.7791071492  SOLV      1017            0.0000000000
      3172      1029  TIP3      OH2            14.5237050248       16.0150706768      -20.8786971492  SOLV      1018            0.0000000000
      3173      1029  TIP3      H1             13.6231350248       16.1983306768      -21.1463071492  SOLV      1018            0.0000000000
      3174      1029  TIP3      H2             14.5578150248       16.2740006768      -19.9578171492  SOLV      1018            0.0000000000
      3175      1030  TIP3      OH2            20.2182350248       14.0600306768      -19.6742871492  SOLV      1019            0.0000000000
      3176      1030  TIP3      H1             19.3670850248       14.2984106768      -20.0416471492  SOLV      1019            0.0000000000
      3177      1030  TIP3      H2             20.8085750248       14.0433506768      -20.4275771492  SOLV      1019            0.0000000000
      3178      1031  TIP3      OH2            15.7105950248       11.8538506768      -25.0250371492  SOLV      1020            0.0000000000
      3179      1031  TIP3      H1             14.7822850248       11.6220406768      -25.0521071492  SOLV      1020            0.0000000000
      3180      1031  TIP3      H2             16.1617050248       11.0768306768      -25.3551571492  SOLV      1020            0.0000000000
      3181      1032  TIP3      OH2            10.1957950248       17.9943606768      -23.0006271492  SOLV      1021            0.0000000000
      3182      1032  TIP3      H1             10.5582650248       18.8489206768      -23.2341871492  SOLV      1021            0.0000000000
      3183      1032  TIP3      H2             10.7273150248       17.7025206768      -22.2599971492  SOLV      1021            0.0000000000
      3184      1033  TIP3      OH2            13.7398750248       14.0934306768      -23.3000671492  SOLV      1022            0.0000000000
      3185      1033  TIP3      H1             13.3140050248       13.8656006768      -22.4736671492  SOLV      1022            0.0000000000
      3186      1033  TIP3      H2             14.3204550248       13.3546106768      -23.4825371492  SOLV      1022            0.0000000000
      3187      1034  TIP3      OH2            16.3982950248       18.6453806768      -20.8305871492  SOLV      1023            0.0000000000
      3188      1034  TIP3      H1             15.7966150248       18.0896706768      -21.3259571492  SOLV      1023            0.0000000000
      3189      1034  TIP3      H2             16.6796650248       19.3123606768      -21.4568471492  SOLV      1023            0.0000000000
      3190      1035  TIP3      OH2             4.5208850248        5.8781506768      -21.4233271492  SOLV      1024            0.0000000000
      3191      1035  TIP3      H1              3.6281150248        6.2166906768      -21.4909271492  SOLV      1024            0.0000000000
      3192      1035  TIP3      H2              4.4221650248        5.0227606768      -21.0052471492  SOLV      1024            0.0000000000
      3193      1036  TIP3      OH2             4.1720850248       17.6825906768      -22.9883871492  SOLV      1025            0.0000000000
      3194      1036  TIP3      H1              4.3891150248       16.7508306768      -23.0194171492  SOLV      1025            0.0000000000
      3195      1036  TIP3      H2              4.4184350248       17.9570906768      -22.1051071492  SOLV      1025            0.0000000000
      3196      1037  TIP3      OH2            13.2552250248        5.6191806768      -22.5334671492  SOLV      1026            0.0000000000
      3197      1037  TIP3      H1             13.9540150248        5.6930506768      -21.8834971492  SOLV      1026            0.0000000000
      3198      1037  TIP3      H2             12.8743650248        4.7546806768      -22.3791771492  SOLV      1026            0.0000000000
      3199      1038  TIP3      OH2            11.2397050248        6.9992306768      -30.6013971492  SOLV      1027            0.0000000000
      3200      1038  TIP3      H1             12.0519650248        7.5035506768      -30.5552271492  SOLV      1027            0.0000000000
      3201      1038  TIP3      H2             10.9950050248        6.8542006768      -29.6874371492  SOLV      1027            0.0000000000
      3202      1039  TIP3      OH2            11.7753450248        7.9855006768      -21.4167371492  SOLV      1028            0.0000000000
      3203      1039  TIP3      H1             11.8943750248        8.5590406768      -20.6596971492  SOLV      1028            0.0000000000
      3204      1039  TIP3      H2             12.4308050248        7.2974406768      -21.3019571492  SOLV      1028            0.0000000000
      3205      1040  TIP3      OH2            12.1233750248        4.0805306768      -29.6632871492  SOLV      1029            0.0000000000
      3206      1040  TIP3      H1             11.7767250248        4.6975906768      -29.0188571492  SOLV      1029            0.0000000000
      3207      1040  TIP3      H2             12.7820650248        4.5811006768      -30.1447371492  SOLV      1029            0.0000000000
      3208      1041  TIP3      OH2             7.7810750248        5.1434706768      -32.9760371492  SOLV      1030            0.0000000000
      3209      1041  TIP3      H1              7.6975550248        6.0317806768      -32.6293971492  SOLV      1030            0.0000000000
      3210      1041  TIP3      H2              8.6711050248        4.8781406768      -32.7443571492  SOLV      1030            0.0000000000
      3211      1042  TIP3      OH2            17.9799250248        5.8925306768      -20.5817671492  SOLV      1031            0.0000000000
      3212      1042  TIP3      H1             17.0635050248        6.1547006768      -20.6693971492  SOLV      1031            0.0000000000
      3213      1042  TIP3      H2             18.3154250248        5.8894306768      -21.4782371492  SOLV      1031            0.0000000000
      3214      1043  TIP3      OH2            16.5820250248        9.6426306768      -26.4860371492  SOLV      1032            0.0000000000
      3215      1043  TIP3      H1             15.7844650248        9.2276506768      -26.8145371492  SOLV      1032            0.0000000000
      3216      1043  TIP3      H2             17.0271350248        8.9520006768      -25.9949871492  SOLV      1032            0.0000000000
      3217      1044  TIP3      OH2             5.1637250248        3.0166506768      -26.1265471492  SOLV      1033            0.0000000000
      3218      1044  TIP3      H1              4.9347050248        3.0759006768      -27.0540471492  SOLV      1033            0.0000000000
      3219      1044  TIP3      H2              4.7210650248        2.2252006768      -25.8201371492  SOLV      1033            0.0000000000
      3220      1045  TIP3      OH2             4.0940550248       16.9573606768      -29.9659671492  SOLV      1034            0.0000000000
      3221      1045  TIP3      H1              3.2619150248       17.4296306768      -29.9388271492  SOLV      1034            0.0000000000
      3222      1045  TIP3      H2              4.6398850248       17.4671206768      -30.5646571492  SOLV      1034            0.0000000000
      3223      1046  TIP3      OH2             3.3824250248       19.5697306768      -18.6361671492  SOLV      1035            0.0000000000
      3224      1046  TIP3      H1              3.9226450248       19.3531306768      -17.8762471492  SOLV      1035            0.0000000000
      3225      1046  TIP3      H2              2.9012250248       18.7643306768      -18.8259171492  SOLV      1035            0.0000000000
      3226      1047  TIP3      OH2             7.9797650248       18.4891706768      -17.0157471492  SOLV      1036            0.0000000000
      3227      1047  TIP3      H1              8.7474850248       18.0302506768      -16.6748271492  SOLV      1036            0.0000000000
      3228      1047  TIP3      H2              7.9583850248       18.2631506768      -17.9456271492  SOLV      1036            0.0000000000
      3229      1048  TIP3      OH2            14.5566350248       16.8692806768      -18.2865971492  SOLV      1037            0.0000000000
      3230      1048  TIP3      H1             14.2055850248       16.0125806768      -18.0435571492  SOLV      1037            0.0000000000
      3231      1048  TIP3      H2             15.2829550248       17.0119506768      -17.6796971492  SOLV      1037            0.0000000000
      3232      1049  TIP3      OH2             3.2893750248       13.3801406768      -17.6817371492  SOLV      1038            0.0000000000
      3233      1049  TIP3      H1              3.4334250248       12.4782106768      -17.9680671492  SOLV      1038            0.0000000000
      3234      1049  TIP3      H2              2.5171150248       13.6663506768      -18.1695071492  SOLV      1038            0.0000000000
      3235      1050  TIP3      OH2             9.9449850248       13.3499506768      -18.2490971492  SOLV      1039            0.0000000000
      3236      1050  TIP3      H1              9.6163650248       13.6207606768      -19.1063571492  SOLV      1039            0.0000000000
      3237      1050  TIP3      H2             10.0968050248       12.4089306768      -18.3365971492  SOLV      1039            0.0000000000
      3238      1051  TIP3      OH2            15.6795050248       13.2656806768      -20.8658671492  SOLV      1040            0.0000000000
      3239      1051  TIP3      H1             16.4249850248       13.8540506768      -20.9854671492  SOLV      1040            0.0000000000
      3240      1051  TIP3      H2             14.9221850248       13.8476506768      -20.8025571492  SOLV      1040            0.0000000000
      3241      1052  TIP3      OH2             4.1220250248       10.5804706768      -18.2618071492  SOLV      1041            0.0000000000
      3242      1052  TIP3      H1              4.5301450248        9.7231306768      -18.3827471492  SOLV      1041            0.0000000000
      3243      1052  TIP3      H2              3.8617850248       10.5946006768      -17.3407771492  SOLV      1041            0.0000000000
      3244      1053  TIP3      OH2             8.0690550248        9.5890406768      -20.8875171492  SOLV      1042            0.0000000000
      3245      1053  TIP3      H1              7.4506650248       10.2637006768      -20.6070471492  SOLV      1042            0.0000000000
      3246      1053  TIP3      H2              8.4131750248        9.9104306768      -21.7208971492  SOLV      1042            0.0000000000
      3247      1054  TIP3      OH2            13.0888750248       12.0605706768      -17.6100371492  SOLV      1043            0.0000000000
      3248      1054  TIP3      H1             14.0419950248       12.1444806768      -17.6374371492  SOLV      1043            0.0000000000
      3249      1054  TIP3      H2             12.9283350248       11.3487506768      -16.9905471492  SOLV      1043            0.0000000000
      3250      1055  TIP3      OH2             8.4084250248        6.9441206768      -19.8052071492  SOLV      1044            0.0000000000
      3251      1055  TIP3      H1              8.5585150248        6.2152506768      -20.4072371492  SOLV      1044            0.0000000000
      3252      1055  TIP3      H2              8.4106650248        7.7212906768      -20.3639871492  SOLV      1044            0.0000000000
      3253      1056  TIP3      OH2             8.8209950248        5.3137006768      -22.3124671492  SOLV      1045            0.0000000000
      3254      1056  TIP3      H1              9.3567450248        5.7653706768      -22.9645371492  SOLV      1045            0.0000000000
      3255      1056  TIP3      H2              7.9689550248        5.2056806768      -22.7350571492  SOLV      1045            0.0000000000
      3256      1057  TIP3      OH2            10.4028350248       10.7533206768      -22.0729471492  SOLV      1046            0.0000000000
      3257      1057  TIP3      H1             11.1533150248       10.5970706768      -22.6461671492  SOLV      1046            0.0000000000
      3258      1057  TIP3      H2             10.0636650248       11.6049806768      -22.3483971492  SOLV      1046            0.0000000000
      3259      1058  TIP3      OH2            14.8184550248        8.5685006768      -17.0444171492  SOLV      1047            0.0000000000
      3260      1058  TIP3      H1             15.0105850248        7.6374406768      -17.1559671492  SOLV      1047            0.0000000000
      3261      1058  TIP3      H2             15.6760850248        8.9934506768      -17.0548771492  SOLV      1047            0.0000000000
      3262      1059  TIP3      OH2            16.1351750248       11.3570206768      -18.9671471492  SOLV      1048            0.0000000000
      3263      1059  TIP3      H1             15.8536750248       12.0664806768      -19.5447671492  SOLV      1048            0.0000000000
      3264      1059  TIP3      H2             17.0776050248       11.2843206768      -19.1180271492  SOLV      1048            0.0000000000
      3265      1060  TIP3      OH2             6.8870550248        8.1424706768      -17.8936471492  SOLV      1049            0.0000000000
      3266      1060  TIP3      H1              6.1199550248        7.6099506768      -18.1038871492  SOLV      1049            0.0000000000
      3267      1060  TIP3      H2              7.5659550248        7.8325106768      -18.4930171492  SOLV      1049            0.0000000000
      3268      1061  TIP3      OH2             9.6265450248        2.7702706768      -21.8811071492  SOLV      1050            0.0000000000
      3269      1061  TIP3      H1              9.5285050248        3.7165906768      -21.9864871492  SOLV      1050            0.0000000000
      3270      1061  TIP3      H2              8.8841650248        2.3976506768      -22.3567571492  SOLV      1050            0.0000000000
      3271      1062  TIP3      OH2            10.8905950248        7.0918106768      -18.3172671492  SOLV      1051            0.0000000000
      3272      1062  TIP3      H1             10.6551350248        6.8724806768      -17.4157771492  SOLV      1051            0.0000000000
      3273      1062  TIP3      H2             10.1072850248        6.8849306768      -18.8270171492  SOLV      1051            0.0000000000
      3274      1063  TIP3      OH2            13.6062550248        6.2191606768      -19.2419171492  SOLV      1052            0.0000000000
      3275      1063  TIP3      H1             12.6587950248        6.2511306768      -19.1095871492  SOLV      1052            0.0000000000
      3276      1063  TIP3      H2             13.9189250248        5.5938706768      -18.5880971492  SOLV      1052            0.0000000000
      3277      1064  TIP3      OH2            15.2404050248        4.8532706768      -17.2367271492  SOLV      1053            0.0000000000
      3278      1064  TIP3      H1             15.1435850248        3.9010006768      -17.2425371492  SOLV      1053            0.0000000000
      3279      1064  TIP3      H2             14.9187150248        5.1219506768      -16.3761771492  SOLV      1053            0.0000000000
      3280      1065  TIP3      OH2             5.0673350248        6.0628506768      -18.1891771492  SOLV      1054            0.0000000000
      3281      1065  TIP3      H1              5.2790750248        5.3564606768      -18.7994271492  SOLV      1054            0.0000000000
      3282      1065  TIP3      H2              4.9560850248        5.6254506768      -17.3450571492  SOLV      1054            0.0000000000
      3283      1066  TIP3      OH2             9.8483550248        2.0640106768      -19.2098271492  SOLV      1055            0.0000000000
      3284      1066  TIP3      H1             10.5601950248        1.4242306768      -19.2239171492  SOLV      1055            0.0000000000
      3285      1066  TIP3      H2              9.7473950248        2.3308406768      -20.1235171492  SOLV      1055            0.0000000000
      3286      1067  TIP3      OH2            10.2021050248        3.7468506768      -17.1561971492  SOLV      1056            0.0000000000
      3287      1067  TIP3      H1             10.0703250248        3.2712306768      -17.9763471492  SOLV      1056            0.0000000000
      3288      1067  TIP3      H2              9.6028450248        4.4912106768      -17.2114871492  SOLV      1056            0.0000000000
      3289      1068  TIP3      OH2             1.9658850248       20.6591106768      -29.4195971492  SOLV      1057            0.0000000000
      3290      1068  TIP3      H1              1.3185950248       20.1972806768      -29.9524771492  SOLV      1057            0.0000000000
      3291      1068  TIP3      H2              2.3203450248       19.9874406768      -28.8369771492  SOLV      1057            0.0000000000
      3292      1069  TIP3      OH2             2.8358050248       18.7398106768      -27.6149771492  SOLV      1058            0.0000000000
      3293      1069  TIP3      H1              2.5014850248       17.8595406768      -27.4429571492  SOLV      1058            0.0000000000
      3294      1069  TIP3      H2              3.0580450248       19.0853106768      -26.7504171492  SOLV      1058            0.0000000000
      3295      1070  TIP3      OH2            18.3983050248       14.9063706768      -17.0745571492  SOLV      1059            0.0000000000
      3296      1070  TIP3      H1             17.5324150248       14.8013406768      -16.6803271492  SOLV      1059            0.0000000000
      3297      1070  TIP3      H2             18.7748950248       15.6647006768      -16.6280871492  SOLV      1059            0.0000000000
      3298      1071  TIP3      OH2            18.3391850248       16.8789806768      -22.4821371492  SOLV      1060            0.0000000000
      3299      1071  TIP3      H1             17.6917150248       17.2041306768      -21.8566171492  SOLV      1060            0.0000000000
      3300      1071  TIP3      H2             17.8215850248       16.4387506768      -23.1563071492  SOLV      1060            0.0000000000
      3301      1072  TIP3      OH2             2.9157550248       11.8153506768      -25.1634871492  SOLV      1061            0.0000000000
      3302      1072  TIP3      H1              3.1000450248       11.7335206768      -26.0991971492  SOLV      1061            0.0000000000
      3303      1072  TIP3      H2              3.7650450248       11.6910506768      -24.7398471492  SOLV      1061            0.0000000000
      3304      1073  TIP3      OH2            18.7368050248       11.7074606768      -19.5350371492  SOLV      1062            0.0000000000
      3305      1073  TIP3      H1             19.3195350248       10.9726906768      -19.3433171492  SOLV      1062            0.0000000000
      3306      1073  TIP3      H2             19.3007350248       12.4794906768      -19.4884571492  SOLV      1062            0.0000000000
      3307      1074  TIP3      OH2            20.2335150248        9.6100406768      -18.8504971492  SOLV      1063            0.0000000000
      3308      1074  TIP3      H1             19.3701850248        9.2312506768      -19.0160271492  SOLV      1063            0.0000000000
      3309      1074  TIP3      H2             20.8378850248        8.8715206768      -18.9249171492  SOLV      1063            0.0000000000
      3310      1075  TIP3      OH2            18.2028250248        7.9014506768      -25.2754671492  SOLV      1064            0.0000000000
      3311      1075  TIP3      H1             19.1356250248        8.1134406768      -25.3098671492  SOLV      1064            0.0000000000
      3312      1075  TIP3      H2             17.9675750248        8.0026606768      -24.3531671492  SOLV      1064            0.0000000000
      3313      1076  TIP3      OH2            18.2320150248        8.6379806768      -22.4995271492  SOLV      1065            0.0000000000
      3314      1076  TIP3      H1             17.3891450248        8.9060206768      -22.1335471492  SOLV      1065            0.0000000000
      3315      1076  TIP3      H2             18.6744450248        9.4601706768      -22.7104171492  SOLV      1065            0.0000000000
      3316      1077  TIP3      OH2             2.5132350248        7.0858506768      -19.0226071492  SOLV      1066            0.0000000000
      3317      1077  TIP3      H1              3.4327250248        6.9636806768      -18.7862971492  SOLV      1066            0.0000000000
      3318      1077  TIP3      H2              2.0636850248        6.3358206768      -18.6332571492  SOLV      1066            0.0000000000
      3319      1078  TIP3      OH2            20.5151750248        2.6180006768      -17.1460271492  SOLV      1067            0.0000000000
      3320      1078  TIP3      H1             20.8648750248        1.9643506768      -17.7515571492  SOLV      1067            0.0000000000
      3321      1078  TIP3      H2             20.6621250248        3.4554106768      -17.5857671492  SOLV      1067            0.0000000000
      3322      1079  TIP3      OH2             3.7344850248        5.3980106768      -26.1313171492  SOLV      1068            0.0000000000
      3323      1079  TIP3      H1              4.1796450248        4.6062606768      -25.8293471492  SOLV      1068            0.0000000000
      3324      1079  TIP3      H2              4.2007850248        6.1145306768      -25.7007571492  SOLV      1068            0.0000000000
      3325      1080  TIP3      OH2             2.0385150248        8.3973106768      -25.0622971492  SOLV      1069            0.0000000000
      3326      1080  TIP3      H1              2.5304950248        8.1763606768      -25.8530971492  SOLV      1069            0.0000000000
      3327      1080  TIP3      H2              2.4006050248        9.2376506768      -24.7813471492  SOLV      1069            0.0000000000
      3328      1081  TIP3      OH2            20.0348950248        4.7274606768      -18.7968971492  SOLV      1070            0.0000000000
      3329      1081  TIP3      H1             19.1174650248        4.9981706768      -18.8325471492  SOLV      1070            0.0000000000
      3330      1081  TIP3      H2             20.1578350248        4.1923006768      -19.5809271492  SOLV      1070            0.0000000000
      3331      1082  TIP3      OH2             2.3521650248        4.6552206768      -31.0080571492  SOLV      1071            0.0000000000
      3332      1082  TIP3      H1              1.4270050248        4.8638806768      -31.1375071492  SOLV      1071            0.0000000000
      3333      1082  TIP3      H2              2.8061550248        5.1393006768      -31.6978271492  SOLV      1071            0.0000000000
      3334      1083  TIP3      OH2             2.3157050248        3.3931206768      -22.6638071492  SOLV      1072            0.0000000000
      3335      1083  TIP3      H1              1.6507550248        3.1471506768      -22.0207171492  SOLV      1072            0.0000000000
      3336      1083  TIP3      H2              1.8728350248        4.0151606768      -23.2410071492  SOLV      1072            0.0000000000
      3337      1084  TIP3      OH2             4.5076350248       16.5685306768      -18.5192271492  SOLV      1073            0.0000000000
      3338      1084  TIP3      H1              3.6868850248       16.7431806768      -18.9797571492  SOLV      1073            0.0000000000
      3339      1084  TIP3      H2              4.2554150248       16.4950006768      -17.5987871492  SOLV      1073            0.0000000000
      3340      1085  TIP3      OH2             7.4619250248       17.5426506768      -22.2608271492  SOLV      1074            0.0000000000
      3341      1085  TIP3      H1              7.0370350248       18.3525006768      -22.5433671492  SOLV      1074            0.0000000000
      3342      1085  TIP3      H2              8.3662050248       17.6280606768      -22.5628471492  SOLV      1074            0.0000000000
      3343      1086  TIP3      OH2            19.0354850248        2.8170906768      -20.9778171492  SOLV      1075            0.0000000000
      3344      1086  TIP3      H1             18.2228350248        3.1421206768      -21.3653471492  SOLV      1075            0.0000000000
      3345      1086  TIP3      H2             19.2683350248        2.0569406768      -21.5109071492  SOLV      1075            0.0000000000
      3346      1087  TIP3      OH2             4.8635950248       20.7990406768      -22.2132971492  SOLV      1076            0.0000000000
      3347      1087  TIP3      H1              4.1432350248       21.2391406768      -22.6645271492  SOLV      1076            0.0000000000
      3348      1087  TIP3      H2              4.4979950248       20.5485106768      -21.3648971492  SOLV      1076            0.0000000000
      3349      1088  TIP3      OH2             7.3308550248       20.3994306768      -23.1835771492  SOLV      1077            0.0000000000
      3350      1088  TIP3      H1              6.4660750248       20.4712806768      -22.7795671492  SOLV      1077            0.0000000000
      3351      1088  TIP3      H2              7.2757550248       20.9461606768      -23.9673271492  SOLV      1077            0.0000000000
      3352      1089  TIP3      OH2            12.0414150248       20.2873206768      -24.0079771492  SOLV      1078            0.0000000000
      3353      1089  TIP3      H1             11.5848150248       20.8162906768      -24.6621371492  SOLV      1078            0.0000000000
      3354      1089  TIP3      H2             12.2042150248       20.8904606768      -23.2827471492  SOLV      1078            0.0000000000
      3355      1090  TIP3      OH2            14.3690450248       19.1652806768      -23.0629471492  SOLV      1079            0.0000000000
      3356      1090  TIP3      H1             13.4644150248       19.3303006768      -23.3287371492  SOLV      1079            0.0000000000
      3357      1090  TIP3      H2             14.7979050248       20.0185006768      -23.1286071492  SOLV      1079            0.0000000000
      3358      1091  TIP3      OH2             4.2784050248       19.4222906768      -25.3031171492  SOLV      1080            0.0000000000
      3359      1091  TIP3      H1              4.2600050248       18.9968006768      -24.4458871492  SOLV      1080            0.0000000000
      3360      1091  TIP3      H2              5.0831950248       19.1037906768      -25.7118971492  SOLV      1080            0.0000000000
      3361      1092  TIP3      OH2             6.4197150248       18.1321606768      -26.6481271492  SOLV      1081            0.0000000000
      3362      1092  TIP3      H1              6.2007850248       17.2159006768      -26.4785271492  SOLV      1081            0.0000000000
      3363      1092  TIP3      H2              7.2439350248       18.2722006768      -26.1819871492  SOLV      1081            0.0000000000
      3364      1093  TIP3      OH2             8.9569650248       18.6020906768      -25.7993271492  SOLV      1082            0.0000000000
      3365      1093  TIP3      H1              9.1695350248       17.7139906768      -26.0862371492  SOLV      1082            0.0000000000
      3366      1093  TIP3      H2              9.0214750248       18.5678606768      -24.8449271492  SOLV      1082            0.0000000000
      3367      1094  TIP3      OH2            12.4653350248        4.2661506768      -26.6549971492  SOLV      1083            0.0000000000
      3368      1094  TIP3      H1             11.7910150248        3.6367106768      -26.3994171492  SOLV      1083            0.0000000000
      3369      1094  TIP3      H2             13.0292550248        3.7820406768      -27.2582071492  SOLV      1083            0.0000000000
      3370      1095  TIP3      OH2            17.6080550248        2.3735506768      -26.5422871492  SOLV      1084            0.0000000000
      3371      1095  TIP3      H1             18.2118150248        2.9210906768      -27.0441871492  SOLV      1084            0.0000000000
      3372      1095  TIP3      H2             16.7382550248        2.6925906768      -26.7828771492  SOLV      1084            0.0000000000
      3373      1096  TIP3      OH2             4.7920850248        2.9001806768      -28.8330071492  SOLV      1085            0.0000000000
      3374      1096  TIP3      H1              4.0150650248        2.6656706768      -29.3404171492  SOLV      1085            0.0000000000
      3375      1096  TIP3      H2              5.3224450248        2.1033906768      -28.8242071492  SOLV      1085            0.0000000000
      3376      1097  TIP3      OH2             3.6284250248        2.6979906768      -33.0293971492  SOLV      1086            0.0000000000
      3377      1097  TIP3      H1              4.0674950248        3.3090406768      -33.6210471492  SOLV      1086            0.0000000000
      3378      1097  TIP3      H2              2.9946650248        3.2364006768      -32.5553971492  SOLV      1086            0.0000000000
      3379      1098  TIP3      OH2             9.3713450248        2.8268906768      -29.0196971492  SOLV      1087            0.0000000000
      3380      1098  TIP3      H1             10.2456850248        3.2153206768      -29.0492671492  SOLV      1087            0.0000000000
      3381      1098  TIP3      H2              9.2354250248        2.6116706768      -28.0969771492  SOLV      1087            0.0000000000
      3382      1099  TIP3      OH2            14.9281850248        2.8568706768      -27.3705271492  SOLV      1088            0.0000000000
      3383      1099  TIP3      H1             15.0043450248        2.9520306768      -28.3199271492  SOLV      1088            0.0000000000
      3384      1099  TIP3      H2             14.6531050248        1.9491606768      -27.2416171492  SOLV      1088            0.0000000000
      3385      1100  TIP3      OH2             5.4893350248        4.6141406768      -34.5869871492  SOLV      1089            0.0000000000
      3386      1100  TIP3      H1              5.9806750248        3.9843806768      -35.1144371492  SOLV      1089            0.0000000000
      3387      1100  TIP3      H2              6.1129650248        4.9100806768      -33.9238671492  SOLV      1089            0.0000000000
      3388      1101  TIP3      OH2             4.7498850248        3.4143706768      -19.3153871492  SOLV      1090            0.0000000000
      3389      1101  TIP3      H1              4.3837050248        2.6486306768      -18.8729171492  SOLV      1090            0.0000000000
      3390      1101  TIP3      H2              5.6627350248        3.4433906768      -19.0288771492  SOLV      1090            0.0000000000
      3391      1102  TIP3      OH2             6.7229650248        2.7648106768      -17.7796771492  SOLV      1091            0.0000000000
      3392      1102  TIP3      H1              7.6213250248        2.4908306768      -17.9643371492  SOLV      1091            0.0000000000
      3393      1102  TIP3      H2              6.3362750248        2.0224106768      -17.3154171492  SOLV      1091            0.0000000000
      3394      1103  TIP3      OH2            15.1441950248        2.0973406768      -17.5973971492  SOLV      1092            0.0000000000
      3395      1103  TIP3      H1             15.2209150248        1.6714106768      -16.7436271492  SOLV      1092            0.0000000000
      3396      1103  TIP3      H2             16.0378550248        2.1108106768      -17.9400471492  SOLV      1092            0.0000000000
      3397      1104  TIP3      OH2            18.3203050248       18.1699706768      -18.9049771492  SOLV      1093            0.0000000000
      3398      1104  TIP3      H1             17.5384950248       17.9837706768      -19.4249171492  SOLV      1093            0.0000000000
      3399      1104  TIP3      H2             18.2482950248       19.0994006768      -18.6877271492  SOLV      1093            0.0000000000
      3400      1105  TIP3      OH2            24.6653450248       11.5063006768      -21.0088771492  SOLV      1094            0.0000000000
      3401      1105  TIP3      H1             24.7356650248       12.1569806768      -20.3103771492  SOLV      1094            0.0000000000
      3402      1105  TIP3      H2             23.7745650248       11.6090506768      -21.3437871492  SOLV      1094            0.0000000000
      3403      1106  TIP3      OH2            24.2909250248        8.6521006768      -22.1829571492  SOLV      1095            0.0000000000
      3404      1106  TIP3      H1             24.2528650248        9.0522606768      -21.3142471492  SOLV      1095            0.0000000000
      3405      1106  TIP3      H2             23.8000350248        7.8353406768      -22.0926671492  SOLV      1095            0.0000000000
      3406      1107  TIP3      OH2            24.4099950248       13.3608106768      -18.9027571492  SOLV      1096            0.0000000000
      3407      1107  TIP3      H1             25.1422350248       13.6154006768      -18.3413071492  SOLV      1096            0.0000000000
      3408      1107  TIP3      H2             23.6298650248       13.5653506768      -18.3872171492  SOLV      1096            0.0000000000
      3409      1108  TIP3      OH2            21.7429350248       11.1248806768      -20.9814671492  SOLV      1097            0.0000000000
      3410      1108  TIP3      H1             21.9657950248       10.7068406768      -20.1497171492  SOLV      1097            0.0000000000
      3411      1108  TIP3      H2             21.1409450248       10.5123806768      -21.4041871492  SOLV      1097            0.0000000000
      3412      1109  TIP3      OH2            23.3768850248        5.8781506768      -21.4233271492  SOLV      1098            0.0000000000
      3413      1109  TIP3      H1             22.4841150248        6.2166906768      -21.4909271492  SOLV      1098            0.0000000000
      3414      1109  TIP3      H2             23.2781650248        5.0227606768      -21.0052471492  SOLV      1098            0.0000000000
      3415      1110  TIP3      OH2            22.2384250248       19.5697306768      -18.6361671492  SOLV      1099            0.0000000000
      3416      1110  TIP3      H1             22.7786450248       19.3531306768      -17.8762471492  SOLV      1099            0.0000000000
      3417      1110  TIP3      H2             21.7572250248       18.7643306768      -18.8259171492  SOLV      1099            0.0000000000
      3418      1111  TIP3      OH2            22.1453750248       13.3801406768      -17.6817371492  SOLV      1100            0.0000000000
      3419      1111  TIP3      H1             22.2894250248       12.4782106768      -17.9680671492  SOLV      1100            0.0000000000
      3420      1111  TIP3      H2             21.3731150248       13.6663506768      -18.1695071492  SOLV      1100            0.0000000000
      3421      1112  TIP3      OH2            22.9780250248       10.5804706768      -18.2618071492  SOLV      1101            0.0000000000
      3422      1112  TIP3      H1             23.3861450248        9.7231306768      -18.3827471492  SOLV      1101            0.0000000000
      3423      1112  TIP3      H2             22.7177850248       10.5946006768      -17.3407771492  SOLV      1101            0.0000000000
      3424      1113  TIP3      OH2            27.2644250248        6.9441206768      -19.8052071492  SOLV      1102            0.0000000000
      3425      1113  TIP3      H1             27.4145150248        6.2152506768      -20.4072371492  SOLV      1102            0.0000000000
      3426      1113  TIP3      H2             27.2666650248        7.7212906768      -20.3639871492  SOLV      1102            0.0000000000
      3427      1114  TIP3      OH2            25.7430550248        8.1424706768      -17.8936471492  SOLV      1103            0.0000000000
      3428      1114  TIP3      H1             24.9759550248        7.6099506768      -18.1038871492  SOLV      1103            0.0000000000
      3429      1114  TIP3      H2             26.4219550248        7.8325106768      -18.4930171492  SOLV      1103            0.0000000000
      3430      1115  TIP3      OH2            28.4825450248        2.7702706768      -21.8811071492  SOLV      1104            0.0000000000
      3431      1115  TIP3      H1             28.3845050248        3.7165906768      -21.9864871492  SOLV      1104            0.0000000000
      3432      1115  TIP3      H2             27.7401650248        2.3976506768      -22.3567571492  SOLV      1104            0.0000000000
      3433      1116  TIP3      OH2            29.7465950248        7.0918106768      -18.3172671492  SOLV      1105            0.0000000000
      3434      1116  TIP3      H1             29.5111350248        6.8724806768      -17.4157771492  SOLV      1105            0.0000000000
      3435      1116  TIP3      H2             28.9632850248        6.8849306768      -18.8270171492  SOLV      1105            0.0000000000
      3436      1117  TIP3      OH2            34.0964050248        4.8532706768      -17.2367271492  SOLV      1106            0.0000000000
      3437      1117  TIP3      H1             33.9995850248        3.9010006768      -17.2425371492  SOLV      1106            0.0000000000
      3438      1117  TIP3      H2             33.7747150248        5.1219506768      -16.3761771492  SOLV      1106            0.0000000000
      3439      1118  TIP3      OH2            23.9233350248        6.0628506768      -18.1891771492  SOLV      1107            0.0000000000
      3440      1118  TIP3      H1             24.1350750248        5.3564606768      -18.7994271492  SOLV      1107            0.0000000000
      3441      1118  TIP3      H2             23.8120850248        5.6254506768      -17.3450571492  SOLV      1107            0.0000000000
      3442      1119  TIP3      OH2            28.7043550248        2.0640106768      -19.2098271492  SOLV      1108            0.0000000000
      3443      1119  TIP3      H1             29.4161950248        1.4242306768      -19.2239171492  SOLV      1108            0.0000000000
      3444      1119  TIP3      H2             28.6033950248        2.3308406768      -20.1235171492  SOLV      1108            0.0000000000
      3445      1120  TIP3      OH2            29.0581050248        3.7468506768      -17.1561971492  SOLV      1109            0.0000000000
      3446      1120  TIP3      H1             28.9263250248        3.2712306768      -17.9763471492  SOLV      1109            0.0000000000
      3447      1120  TIP3      H2             28.4588450248        4.4912106768      -17.2114871492  SOLV      1109            0.0000000000
      3448      1121  TIP3      OH2            21.3692350248        7.0858506768      -19.0226071492  SOLV      1110            0.0000000000
      3449      1121  TIP3      H1             22.2887250248        6.9636806768      -18.7862971492  SOLV      1110            0.0000000000
      3450      1121  TIP3      H2             20.9196850248        6.3358206768      -18.6332571492  SOLV      1110            0.0000000000
      3451      1122  TIP3      OH2            21.1717050248        3.3931206768      -22.6638071492  SOLV      1111            0.0000000000
      3452      1122  TIP3      H1             20.5067550248        3.1471506768      -22.0207171492  SOLV      1111            0.0000000000
      3453      1122  TIP3      H2             20.7288350248        4.0151606768      -23.2410071492  SOLV      1111            0.0000000000
      3454      1123  TIP3      OH2            23.3636350248       16.5685306768      -18.5192271492  SOLV      1112            0.0000000000
      3455      1123  TIP3      H1             22.5428850248       16.7431806768      -18.9797571492  SOLV      1112            0.0000000000
      3456      1123  TIP3      H2             23.1114150248       16.4950006768      -17.5987871492  SOLV      1112            0.0000000000
      3457      1124  TIP3      OH2            23.6058850248        3.4143706768      -19.3153871492  SOLV      1113            0.0000000000
      3458      1124  TIP3      H1             23.2397050248        2.6486306768      -18.8729171492  SOLV      1113            0.0000000000
      3459      1124  TIP3      H2             24.5187350248        3.4433906768      -19.0288771492  SOLV      1113            0.0000000000
      3460      1125  TIP3      OH2            25.5789650248        2.7648106768      -17.7796771492  SOLV      1114            0.0000000000
      3461      1125  TIP3      H1             26.4773250248        2.4908306768      -17.9643371492  SOLV      1114            0.0000000000
      3462      1125  TIP3      H2             25.1922750248        2.0224106768      -17.3154171492  SOLV      1114            0.0000000000
      3463      1126  TIP3      OH2            34.0001950248        2.0973406768      -17.5973971492  SOLV      1115            0.0000000000
      3464      1126  TIP3      H1             34.0769150248        1.6714106768      -16.7436271492  SOLV      1115            0.0000000000
      3465      1126  TIP3      H2             34.8938550248        2.1108106768      -17.9400471492  SOLV      1115            0.0000000000
      3466      1127  TIP3      OH2           -17.4646449752       25.6790706768      -21.9527371492  SOLV      1116            0.0000000000
      3467      1127  TIP3      H1            -18.1531849752       26.3371406768      -22.0480771492  SOLV      1116            0.0000000000
      3468      1127  TIP3      H2            -17.4491849752       25.4818606768      -21.0161971492  SOLV      1116            0.0000000000
      3469      1128  TIP3      OH2           -19.7320749752       24.7485306768      -20.5817671492  SOLV      1117            0.0000000000
      3470      1128  TIP3      H1            -20.6484949752       25.0107006768      -20.6693971492  SOLV      1117            0.0000000000
      3471      1128  TIP3      H2            -19.3965749752       24.7454306768      -21.4782371492  SOLV      1117            0.0000000000
      3472      1129  TIP3      OH2           -22.8935449752       27.4245006768      -17.0444171492  SOLV      1118            0.0000000000
      3473      1129  TIP3      H1            -22.7014149752       26.4934406768      -17.1559671492  SOLV      1118            0.0000000000
      3474      1129  TIP3      H2            -22.0359149752       27.8494506768      -17.0548771492  SOLV      1118            0.0000000000
      3475      1130  TIP3      OH2           -22.4715949752       23.7092706768      -17.2367271492  SOLV      1119            0.0000000000
      3476      1130  TIP3      H1            -22.5684149752       22.7570006768      -17.2425371492  SOLV      1119            0.0000000000
      3477      1130  TIP3      H2            -22.7932849752       23.9779506768      -16.3761771492  SOLV      1119            0.0000000000
      3478      1131  TIP3      OH2           -17.4784849752       28.4660406768      -18.8504971492  SOLV      1120            0.0000000000
      3479      1131  TIP3      H1            -18.3418149752       28.0872506768      -19.0160271492  SOLV      1120            0.0000000000
      3480      1131  TIP3      H2            -16.8741149752       27.7275206768      -18.9249171492  SOLV      1120            0.0000000000
      3481      1132  TIP3      OH2           -17.1968249752       21.4740006768      -17.1460271492  SOLV      1121            0.0000000000
      3482      1132  TIP3      H1            -16.8471249752       20.8203506768      -17.7515571492  SOLV      1121            0.0000000000
      3483      1132  TIP3      H2            -17.0498749752       22.3114106768      -17.5857671492  SOLV      1121            0.0000000000
      3484      1133  TIP3      OH2           -17.6771049752       23.5834606768      -18.7968971492  SOLV      1122            0.0000000000
      3485      1133  TIP3      H1            -18.5945349752       23.8541706768      -18.8325471492  SOLV      1122            0.0000000000
      3486      1133  TIP3      H2            -17.5541649752       23.0483006768      -19.5809271492  SOLV      1122            0.0000000000
      3487      1134  TIP3      OH2           -18.6765149752       21.6730906768      -20.9778171492  SOLV      1123            0.0000000000
      3488      1134  TIP3      H1            -19.4891649752       21.9981206768      -21.3653471492  SOLV      1123            0.0000000000
      3489      1134  TIP3      H2            -18.4436649752       20.9129406768      -21.5109071492  SOLV      1123            0.0000000000
      3490      1135  TIP3      OH2           -22.5678049752       20.9533406768      -17.5973971492  SOLV      1124            0.0000000000
      3491      1135  TIP3      H1            -22.4910849752       20.5274106768      -16.7436271492  SOLV      1124            0.0000000000
      3492      1135  TIP3      H2            -21.6741449752       20.9668106768      -17.9400471492  SOLV      1124            0.0000000000
      3493      1136  TIP3      OH2             0.9998950248       24.2011506768      -24.1887171492  SOLV      1125            0.0000000000
      3494      1136  TIP3      H1              1.0491150248       24.8112706768      -23.4528071492  SOLV      1125            0.0000000000
      3495      1136  TIP3      H2              1.4254050248       24.6622406768      -24.9116071492  SOLV      1125            0.0000000000
      3496      1137  TIP3      OH2            -4.5223849752       26.9938606768      -24.7218571492  SOLV      1126            0.0000000000
      3497      1137  TIP3      H1             -4.3797949752       26.0475606768      -24.7016971492  SOLV      1126            0.0000000000
      3498      1137  TIP3      H2             -4.6284849752       27.2008406768      -25.6503671492  SOLV      1126            0.0000000000
      3499      1138  TIP3      OH2            -3.6452849752       25.2260606768      -29.0485471492  SOLV      1127            0.0000000000
      3500      1138  TIP3      H1             -2.9988549752       24.8973806768      -28.4237871492  SOLV      1127            0.0000000000
      3501      1138  TIP3      H2             -3.1353449752       25.7439606768      -29.6714071492  SOLV      1127            0.0000000000
      3502      1139  TIP3      OH2             1.3913550248       25.6790706768      -21.9527371492  SOLV      1128            0.0000000000
      3503      1139  TIP3      H1              0.7028150248       26.3371406768      -22.0480771492  SOLV      1128            0.0000000000
      3504      1139  TIP3      H2              1.4068150248       25.4818606768      -21.0161971492  SOLV      1128            0.0000000000
      3505      1140  TIP3      OH2           -12.5573649752       24.0133406768      -23.3752971492  SOLV      1129            0.0000000000
      3506      1140  TIP3      H1            -12.7761949752       24.5434006768      -24.1416971492  SOLV      1129            0.0000000000
      3507      1140  TIP3      H2            -13.2252749752       24.2398906768      -22.7281571492  SOLV      1129            0.0000000000
      3508      1141  TIP3      OH2            -1.8814449752       24.5169906768      -27.0679571492  SOLV      1130            0.0000000000
      3509      1141  TIP3      H1             -2.0966449752       23.7513306768      -26.5353571492  SOLV      1130            0.0000000000
      3510      1141  TIP3      H2             -1.2257049752       24.9894506768      -26.5551071492  SOLV      1130            0.0000000000
      3511      1142  TIP3      OH2            -1.5340349752       23.2321206768      -23.3886071492  SOLV      1131            0.0000000000
      3512      1142  TIP3      H1             -2.2701149752       23.8428306768      -23.4264771492  SOLV      1131            0.0000000000
      3513      1142  TIP3      H2             -0.8506349752       23.6470206768      -23.9149671492  SOLV      1131            0.0000000000
      3514      1143  TIP3      OH2            -8.5308949752       21.3188506768      -25.9228071492  SOLV      1132            0.0000000000
      3515      1143  TIP3      H1             -8.6484749752       20.3704506768      -25.9769771492  SOLV      1132            0.0000000000
      3516      1143  TIP3      H2             -9.3858849752       21.6514606768      -25.6496971492  SOLV      1132            0.0000000000
      3517      1144  TIP3      OH2             1.1049850248       29.5342606768      -23.1287871492  SOLV      1133            0.0000000000
      3518      1144  TIP3      H1              0.4523950248       30.2288206768      -23.0396971492  SOLV      1133            0.0000000000
      3519      1144  TIP3      H2              1.5700150248       29.7443506768      -23.9386271492  SOLV      1133            0.0000000000
      3520      1145  TIP3      OH2            -2.9612849752       28.5400006768      -21.4029371492  SOLV      1134            0.0000000000
      3521      1145  TIP3      H1             -2.8813749752       29.3034406768      -20.8310871492  SOLV      1134            0.0000000000
      3522      1145  TIP3      H2             -3.5625149752       28.8192406768      -22.0934271492  SOLV      1134            0.0000000000
      3523      1146  TIP3      OH2            -1.0298849752       27.3683106768      -19.1372671492  SOLV      1135            0.0000000000
      3524      1146  TIP3      H1             -1.4372049752       27.8488706768      -19.8579371492  SOLV      1135            0.0000000000
      3525      1146  TIP3      H2             -0.9893149752       26.4629106768      -19.4451871492  SOLV      1135            0.0000000000
      3526      1147  TIP3      OH2           -11.2621349752       22.2223006768      -25.1451771492  SOLV      1136            0.0000000000
      3527      1147  TIP3      H1            -12.1237649752       22.1351206768      -25.5528871492  SOLV      1136            0.0000000000
      3528      1147  TIP3      H2            -11.2845649752       23.0783106768      -24.7174171492  SOLV      1136            0.0000000000
      3529      1148  TIP3      OH2            -6.5993549752       21.9443406768      -21.7704771492  SOLV      1137            0.0000000000
      3530      1148  TIP3      H1             -6.1790449752       21.5290506768      -21.0174171492  SOLV      1137            0.0000000000
      3531      1148  TIP3      H2             -7.5323949752       21.7656706768      -21.6532771492  SOLV      1137            0.0000000000
      3532      1149  TIP3      OH2            -3.2728649752       25.6998606768      -20.9170271492  SOLV      1138            0.0000000000
      3533      1149  TIP3      H1             -3.7869149752       25.5740806768      -20.1194271492  SOLV      1138            0.0000000000
      3534      1149  TIP3      H2             -3.4283949752       26.6121706768      -21.1614071492  SOLV      1138            0.0000000000
      3535      1150  TIP3      OH2           -11.1711249752       27.1877506768      -24.0501571492  SOLV      1139            0.0000000000
      3536      1150  TIP3      H1            -11.8129149752       27.1474806768      -23.3411471492  SOLV      1139            0.0000000000
      3537      1150  TIP3      H2            -11.1339249752       28.1142206768      -24.2878571492  SOLV      1139            0.0000000000
      3538      1151  TIP3      OH2            -6.5365049752       28.0004306768      -18.8330071492  SOLV      1140            0.0000000000
      3539      1151  TIP3      H1             -7.0991249752       27.2955906768      -18.5122271492  SOLV      1140            0.0000000000
      3540      1151  TIP3      H2             -5.7101649752       27.8796206768      -18.3652471492  SOLV      1140            0.0000000000
      3541      1152  TIP3      OH2            -4.6338949752       27.2708306768      -27.5071071492  SOLV      1141            0.0000000000
      3542      1152  TIP3      H1             -4.8294449752       27.8765106768      -28.2220471492  SOLV      1141            0.0000000000
      3543      1152  TIP3      H2             -4.4526349752       26.4373506768      -27.9414771492  SOLV      1141            0.0000000000
      3544      1153  TIP3      OH2           -13.4210749752       27.5081006768      -22.1829571492  SOLV      1142            0.0000000000
      3545      1153  TIP3      H1            -13.4591349752       27.9082606768      -21.3142471492  SOLV      1142            0.0000000000
      3546      1153  TIP3      H2            -13.9119649752       26.6913406768      -22.0926671492  SOLV      1142            0.0000000000
      3547      1154  TIP3      OH2            -5.3699749752       28.9089606768      -22.8358671492  SOLV      1143            0.0000000000
      3548      1154  TIP3      H1             -5.0464949752       28.2779306768      -23.4788171492  SOLV      1143            0.0000000000
      3549      1154  TIP3      H2             -5.8100449752       28.3741806768      -22.1751271492  SOLV      1143            0.0000000000
      3550      1155  TIP3      OH2            -4.1874949752       24.0711406768      -24.7875671492  SOLV      1144            0.0000000000
      3551      1155  TIP3      H1             -4.8643349752       24.2024506768      -24.1235971492  SOLV      1144            0.0000000000
      3552      1155  TIP3      H2             -4.6730049752       23.9160906768      -25.5977971492  SOLV      1144            0.0000000000
      3553      1156  TIP3      OH2           -13.3020049752       32.2168106768      -18.9027571492  SOLV      1145            0.0000000000
      3554      1156  TIP3      H1            -12.5697649752       32.4714006768      -18.3413071492  SOLV      1145            0.0000000000
      3555      1156  TIP3      H2            -14.0821349752       32.4213506768      -18.3872171492  SOLV      1145            0.0000000000
      3556      1157  TIP3      OH2            -7.2727149752       27.6238106768      -26.1647871492  SOLV      1146            0.0000000000
      3557      1157  TIP3      H1             -6.7083749752       27.0774706768      -26.7118271492  SOLV      1146            0.0000000000
      3558      1157  TIP3      H2             -7.4203749752       27.1020006768      -25.3760271492  SOLV      1146            0.0000000000
      3559      1158  TIP3      OH2            -8.6461249752       26.0124206768      -23.7507471492  SOLV      1147            0.0000000000
      3560      1158  TIP3      H1             -9.4815949752       26.4663706768      -23.6405071492  SOLV      1147            0.0000000000
      3561      1158  TIP3      H2             -8.1220649752       26.2882706768      -22.9987571492  SOLV      1147            0.0000000000
      3562      1159  TIP3      OH2            -0.9519749752       31.3580106768      -23.2793471492  SOLV      1148            0.0000000000
      3563      1159  TIP3      H1             -0.3100949752       31.8146406768      -23.8231271492  SOLV      1148            0.0000000000
      3564      1159  TIP3      H2             -1.7822849752       31.4712506768      -23.7419371492  SOLV      1148            0.0000000000
      3565      1160  TIP3      OH2            -8.9525749752       29.4978706768      -18.7684971492  SOLV      1149            0.0000000000
      3566      1160  TIP3      H1             -9.2484949752       29.3321706768      -19.6635871492  SOLV      1149            0.0000000000
      3567      1160  TIP3      H2             -8.0210549752       29.2779006768      -18.7791071492  SOLV      1149            0.0000000000
      3568      1161  TIP3      OH2            -3.1454049752       30.7098506768      -25.0250371492  SOLV      1150            0.0000000000
      3569      1161  TIP3      H1             -4.0737149752       30.4780406768      -25.0521071492  SOLV      1150            0.0000000000
      3570      1161  TIP3      H2             -2.6942949752       29.9328306768      -25.3551571492  SOLV      1150            0.0000000000
      3571      1162  TIP3      OH2           -14.3351149752       24.7341506768      -21.4233271492  SOLV      1151            0.0000000000
      3572      1162  TIP3      H1            -15.2278849752       25.0726906768      -21.4909271492  SOLV      1151            0.0000000000
      3573      1162  TIP3      H2            -14.4338349752       23.8787606768      -21.0052471492  SOLV      1151            0.0000000000
      3574      1163  TIP3      OH2            -5.6007749752       24.4751806768      -22.5334671492  SOLV      1152            0.0000000000
      3575      1163  TIP3      H1             -4.9019849752       24.5490506768      -21.8834971492  SOLV      1152            0.0000000000
      3576      1163  TIP3      H2             -5.9816349752       23.6106806768      -22.3791771492  SOLV      1152            0.0000000000
      3577      1164  TIP3      OH2            -7.0806549752       26.8415006768      -21.4167371492  SOLV      1153            0.0000000000
      3578      1164  TIP3      H1             -6.9616249752       27.4150406768      -20.6596971492  SOLV      1153            0.0000000000
      3579      1164  TIP3      H2             -6.4251949752       26.1534406768      -21.3019571492  SOLV      1153            0.0000000000
      3580      1165  TIP3      OH2            -6.7326249752       22.9365306768      -29.6632871492  SOLV      1154            0.0000000000
      3581      1165  TIP3      H1             -7.0792749752       23.5535906768      -29.0188571492  SOLV      1154            0.0000000000
      3582      1165  TIP3      H2             -6.0739349752       23.4371006768      -30.1447371492  SOLV      1154            0.0000000000
      3583      1166  TIP3      OH2            -0.8760749752       24.7485306768      -20.5817671492  SOLV      1155            0.0000000000
      3584      1166  TIP3      H1             -1.7924949752       25.0107006768      -20.6693971492  SOLV      1155            0.0000000000
      3585      1166  TIP3      H2             -0.5405749752       24.7454306768      -21.4782371492  SOLV      1155            0.0000000000
      3586      1167  TIP3      OH2            -2.2739749752       28.4986306768      -26.4860371492  SOLV      1156            0.0000000000
      3587      1167  TIP3      H1             -3.0715349752       28.0836506768      -26.8145371492  SOLV      1156            0.0000000000
      3588      1167  TIP3      H2             -1.8288649752       27.8080006768      -25.9949871492  SOLV      1156            0.0000000000
      3589      1168  TIP3      OH2           -13.6922749752       21.8726506768      -26.1265471492  SOLV      1157            0.0000000000
      3590      1168  TIP3      H1            -13.9212949752       21.9319006768      -27.0540471492  SOLV      1157            0.0000000000
      3591      1168  TIP3      H2            -14.1349349752       21.0812006768      -25.8201371492  SOLV      1157            0.0000000000
      3592      1169  TIP3      OH2            -8.9110149752       32.2059506768      -18.2490971492  SOLV      1158            0.0000000000
      3593      1169  TIP3      H1             -9.2396349752       32.4767606768      -19.1063571492  SOLV      1158            0.0000000000
      3594      1169  TIP3      H2             -8.7591949752       31.2649306768      -18.3365971492  SOLV      1158            0.0000000000
      3595      1170  TIP3      OH2            -3.1764949752       32.1216806768      -20.8658671492  SOLV      1159            0.0000000000
      3596      1170  TIP3      H1             -2.4310149752       32.7100506768      -20.9854671492  SOLV      1159            0.0000000000
      3597      1170  TIP3      H2             -3.9338149752       32.7036506768      -20.8025571492  SOLV      1159            0.0000000000
      3598      1171  TIP3      OH2           -14.7339749752       29.4364706768      -18.2618071492  SOLV      1160            0.0000000000
      3599      1171  TIP3      H1            -14.3258549752       28.5791306768      -18.3827471492  SOLV      1160            0.0000000000
      3600      1171  TIP3      H2            -14.9942149752       29.4506006768      -17.3407771492  SOLV      1160            0.0000000000
      3601      1172  TIP3      OH2           -10.7869449752       28.4450406768      -20.8875171492  SOLV      1161            0.0000000000
      3602      1172  TIP3      H1            -11.4053349752       29.1197006768      -20.6070471492  SOLV      1161            0.0000000000
      3603      1172  TIP3      H2            -10.4428249752       28.7664306768      -21.7208971492  SOLV      1161            0.0000000000
      3604      1173  TIP3      OH2            -5.7671249752       30.9165706768      -17.6100371492  SOLV      1162            0.0000000000
      3605      1173  TIP3      H1             -4.8140049752       31.0004806768      -17.6374371492  SOLV      1162            0.0000000000
      3606      1173  TIP3      H2             -5.9276649752       30.2047506768      -16.9905471492  SOLV      1162            0.0000000000
      3607      1174  TIP3      OH2           -10.4475749752       25.8001206768      -19.8052071492  SOLV      1163            0.0000000000
      3608      1174  TIP3      H1            -10.2974849752       25.0712506768      -20.4072371492  SOLV      1163            0.0000000000
      3609      1174  TIP3      H2            -10.4453349752       26.5772906768      -20.3639871492  SOLV      1163            0.0000000000
      3610      1175  TIP3      OH2           -10.0350049752       24.1697006768      -22.3124671492  SOLV      1164            0.0000000000
      3611      1175  TIP3      H1             -9.4992549752       24.6213706768      -22.9645371492  SOLV      1164            0.0000000000
      3612      1175  TIP3      H2            -10.8870449752       24.0616806768      -22.7350571492  SOLV      1164            0.0000000000
      3613      1176  TIP3      OH2            -8.4531649752       29.6093206768      -22.0729471492  SOLV      1165            0.0000000000
      3614      1176  TIP3      H1             -7.7026849752       29.4530706768      -22.6461671492  SOLV      1165            0.0000000000
      3615      1176  TIP3      H2             -8.7923349752       30.4609806768      -22.3483971492  SOLV      1165            0.0000000000
      3616      1177  TIP3      OH2            -4.0375449752       27.4245006768      -17.0444171492  SOLV      1166            0.0000000000
      3617      1177  TIP3      H1             -3.8454149752       26.4934406768      -17.1559671492  SOLV      1166            0.0000000000
      3618      1177  TIP3      H2             -3.1799149752       27.8494506768      -17.0548771492  SOLV      1166            0.0000000000
      3619      1178  TIP3      OH2            -2.7208249752       30.2130206768      -18.9671471492  SOLV      1167            0.0000000000
      3620      1178  TIP3      H1             -3.0023249752       30.9224806768      -19.5447671492  SOLV      1167            0.0000000000
      3621      1178  TIP3      H2             -1.7783949752       30.1403206768      -19.1180271492  SOLV      1167            0.0000000000
      3622      1179  TIP3      OH2           -11.9689449752       26.9984706768      -17.8936471492  SOLV      1168            0.0000000000
      3623      1179  TIP3      H1            -12.7360449752       26.4659506768      -18.1038871492  SOLV      1168            0.0000000000
      3624      1179  TIP3      H2            -11.2900449752       26.6885106768      -18.4930171492  SOLV      1168            0.0000000000
      3625      1180  TIP3      OH2            -9.2294549752       21.6262706768      -21.8811071492  SOLV      1169            0.0000000000
      3626      1180  TIP3      H1             -9.3274949752       22.5725906768      -21.9864871492  SOLV      1169            0.0000000000
      3627      1180  TIP3      H2             -9.9718349752       21.2536506768      -22.3567571492  SOLV      1169            0.0000000000
      3628      1181  TIP3      OH2            -7.9654049752       25.9478106768      -18.3172671492  SOLV      1170            0.0000000000
      3629      1181  TIP3      H1             -8.2008649752       25.7284806768      -17.4157771492  SOLV      1170            0.0000000000
      3630      1181  TIP3      H2             -8.7487149752       25.7409306768      -18.8270171492  SOLV      1170            0.0000000000
      3631      1182  TIP3      OH2            -5.2497449752       25.0751606768      -19.2419171492  SOLV      1171            0.0000000000
      3632      1182  TIP3      H1             -6.1972049752       25.1071306768      -19.1095871492  SOLV      1171            0.0000000000
      3633      1182  TIP3      H2             -4.9370749752       24.4498706768      -18.5880971492  SOLV      1171            0.0000000000
      3634      1183  TIP3      OH2            -3.6155949752       23.7092706768      -17.2367271492  SOLV      1172            0.0000000000
      3635      1183  TIP3      H1             -3.7124149752       22.7570006768      -17.2425371492  SOLV      1172            0.0000000000
      3636      1183  TIP3      H2             -3.9372849752       23.9779506768      -16.3761771492  SOLV      1172            0.0000000000
      3637      1184  TIP3      OH2           -13.7886649752       24.9188506768      -18.1891771492  SOLV      1173            0.0000000000
      3638      1184  TIP3      H1            -13.5769249752       24.2124606768      -18.7994271492  SOLV      1173            0.0000000000
      3639      1184  TIP3      H2            -13.8999149752       24.4814506768      -17.3450571492  SOLV      1173            0.0000000000
      3640      1185  TIP3      OH2            -9.0076449752       20.9200106768      -19.2098271492  SOLV      1174            0.0000000000
      3641      1185  TIP3      H1             -8.2958049752       20.2802306768      -19.2239171492  SOLV      1174            0.0000000000
      3642      1185  TIP3      H2             -9.1086049752       21.1868406768      -20.1235171492  SOLV      1174            0.0000000000
      3643      1186  TIP3      OH2            -0.9754849752       28.5931306768      -29.1738671492  SOLV      1175            0.0000000000
      3644      1186  TIP3      H1             -1.1256049752       27.6479906768      -29.1940871492  SOLV      1175            0.0000000000
      3645      1186  TIP3      H2             -1.3290349752       28.8742706768      -28.3299571492  SOLV      1175            0.0000000000
      3646      1187  TIP3      OH2            -0.1191949752       30.5634606768      -19.5350371492  SOLV      1176            0.0000000000
      3647      1187  TIP3      H1              0.4635350248       29.8286906768      -19.3433171492  SOLV      1176            0.0000000000
      3648      1187  TIP3      H2              0.4447350248       31.3354906768      -19.4884571492  SOLV      1176            0.0000000000
      3649      1188  TIP3      OH2             1.3775150248       28.4660406768      -18.8504971492  SOLV      1177            0.0000000000
      3650      1188  TIP3      H1              0.5141850248       28.0872506768      -19.0160271492  SOLV      1177            0.0000000000
      3651      1188  TIP3      H2              1.9818850248       27.7275206768      -18.9249171492  SOLV      1177            0.0000000000
      3652      1189  TIP3      OH2            -0.6531749752       26.7574506768      -25.2754671492  SOLV      1178            0.0000000000
      3653      1189  TIP3      H1              0.2796250248       26.9694406768      -25.3098671492  SOLV      1178            0.0000000000
      3654      1189  TIP3      H2             -0.8884249752       26.8586606768      -24.3531671492  SOLV      1178            0.0000000000
      3655      1190  TIP3      OH2            -0.6239849752       27.4939806768      -22.4995271492  SOLV      1179            0.0000000000
      3656      1190  TIP3      H1             -1.4668549752       27.7620206768      -22.1335471492  SOLV      1179            0.0000000000
      3657      1190  TIP3      H2             -0.1815549752       28.3161706768      -22.7104171492  SOLV      1179            0.0000000000
      3658      1191  TIP3      OH2           -16.3427649752       25.9418506768      -19.0226071492  SOLV      1180            0.0000000000
      3659      1191  TIP3      H1            -15.4232749752       25.8196806768      -18.7862971492  SOLV      1180            0.0000000000
      3660      1191  TIP3      H2            -16.7923149752       25.1918206768      -18.6332571492  SOLV      1180            0.0000000000
      3661      1192  TIP3      OH2             1.6591750248       21.4740006768      -17.1460271492  SOLV      1181            0.0000000000
      3662      1192  TIP3      H1              2.0088750248       20.8203506768      -17.7515571492  SOLV      1181            0.0000000000
      3663      1192  TIP3      H2              1.8061250248       22.3114106768      -17.5857671492  SOLV      1181            0.0000000000
      3664      1193  TIP3      OH2            -0.6515249752       23.4386406768      -30.6631571492  SOLV      1182            0.0000000000
      3665      1193  TIP3      H1             -0.4690249752       22.9897906768      -29.8376571492  SOLV      1182            0.0000000000
      3666      1193  TIP3      H2             -1.2512349752       22.8540806768      -31.1266971492  SOLV      1182            0.0000000000
      3667      1194  TIP3      OH2             1.1788950248       23.5834606768      -18.7968971492  SOLV      1183            0.0000000000
      3668      1194  TIP3      H1              0.2614650248       23.8541706768      -18.8325471492  SOLV      1183            0.0000000000
      3669      1194  TIP3      H2              1.3018350248       23.0483006768      -19.5809271492  SOLV      1183            0.0000000000
      3670      1195  TIP3      OH2           -16.5402949752       22.2491206768      -22.6638071492  SOLV      1184            0.0000000000
      3671      1195  TIP3      H1            -17.2052449752       22.0031506768      -22.0207171492  SOLV      1184            0.0000000000
      3672      1195  TIP3      H2            -16.9831649752       22.8711606768      -23.2410071492  SOLV      1184            0.0000000000
      3673      1196  TIP3      OH2             0.1794850248       21.6730906768      -20.9778171492  SOLV      1185            0.0000000000
      3674      1196  TIP3      H1             -0.6331649752       21.9981206768      -21.3653471492  SOLV      1185            0.0000000000
      3675      1196  TIP3      H2              0.4123350248       20.9129406768      -21.5109071492  SOLV      1185            0.0000000000
      3676      1197  TIP3      OH2            -6.3906649752       23.1221506768      -26.6549971492  SOLV      1186            0.0000000000
      3677      1197  TIP3      H1             -7.0649849752       22.4927106768      -26.3994171492  SOLV      1186            0.0000000000
      3678      1197  TIP3      H2             -5.8267449752       22.6380406768      -27.2582071492  SOLV      1186            0.0000000000
      3679      1198  TIP3      OH2            -1.2479449752       21.2295506768      -26.5422871492  SOLV      1187            0.0000000000
      3680      1198  TIP3      H1             -0.6441849752       21.7770906768      -27.0441871492  SOLV      1187            0.0000000000
      3681      1198  TIP3      H2             -2.1177449752       21.5485906768      -26.7828771492  SOLV      1187            0.0000000000
      3682      1199  TIP3      OH2             0.4790950248       22.3684206768      -28.2091971492  SOLV      1188            0.0000000000
      3683      1199  TIP3      H1              1.0908450248       21.8539906768      -28.7358371492  SOLV      1188            0.0000000000
      3684      1199  TIP3      H2              0.8614350248       23.2456306768      -28.1857571492  SOLV      1188            0.0000000000
      3685      1200  TIP3      OH2            -9.4846549752       21.6828906768      -29.0196971492  SOLV      1189            0.0000000000
      3686      1200  TIP3      H1             -8.6103149752       22.0713206768      -29.0492671492  SOLV      1189            0.0000000000
      3687      1200  TIP3      H2             -9.6205749752       21.4676706768      -28.0969771492  SOLV      1189            0.0000000000
      3688      1201  TIP3      OH2            -3.9278149752       21.7128706768      -27.3705271492  SOLV      1190            0.0000000000
      3689      1201  TIP3      H1             -3.8516549752       21.8080306768      -28.3199271492  SOLV      1190            0.0000000000
      3690      1201  TIP3      H2             -4.2028949752       20.8051606768      -27.2416171492  SOLV      1190            0.0000000000
      3691      1202  TIP3      OH2            -2.5745549752       21.7386506768      -31.6780271492  SOLV      1191            0.0000000000
      3692      1202  TIP3      H1             -3.2774449752       22.3535706768      -31.8878871492  SOLV      1191            0.0000000000
      3693      1202  TIP3      H2             -3.0194149752       20.9013206768      -31.5469371492  SOLV      1191            0.0000000000
      3694      1203  TIP3      OH2           -14.1061149752       22.2703706768      -19.3153871492  SOLV      1192            0.0000000000
      3695      1203  TIP3      H1            -14.4722949752       21.5046306768      -18.8729171492  SOLV      1192            0.0000000000
      3696      1203  TIP3      H2            -13.1932649752       22.2993906768      -19.0288771492  SOLV      1192            0.0000000000
      3697      1204  TIP3      OH2            -3.7118049752       20.9533406768      -17.5973971492  SOLV      1193            0.0000000000
      3698      1204  TIP3      H1             -3.6350849752       20.5274106768      -16.7436271492  SOLV      1193            0.0000000000
      3699      1204  TIP3      H2             -2.8181449752       20.9668106768      -17.9400471492  SOLV      1193            0.0000000000
      3700      1205  TIP3      OH2             5.1719750248       29.7816906768      -23.8624471492  SOLV      1194            0.0000000000
      3701      1205  TIP3      H1              5.2131850248       29.1560206768      -23.1392071492  SOLV      1194            0.0000000000
      3702      1205  TIP3      H2              5.8747450248       30.4055506768      -23.6804071492  SOLV      1194            0.0000000000
      3703      1206  TIP3      OH2             6.2986350248       24.0133406768      -23.3752971492  SOLV      1195            0.0000000000
      3704      1206  TIP3      H1              6.0798050248       24.5434006768      -24.1416971492  SOLV      1195            0.0000000000
      3705      1206  TIP3      H2              5.6307250248       24.2398906768      -22.7281571492  SOLV      1195            0.0000000000
      3706      1207  TIP3      OH2             5.8093450248       30.3623006768      -21.0088771492  SOLV      1196            0.0000000000
      3707      1207  TIP3      H1              5.8796650248       31.0129806768      -20.3103771492  SOLV      1196            0.0000000000
      3708      1207  TIP3      H2              4.9185650248       30.4650506768      -21.3437871492  SOLV      1196            0.0000000000
      3709      1208  TIP3      OH2             2.7260150248       32.4287106768      -22.1838771492  SOLV      1197            0.0000000000
      3710      1208  TIP3      H1              2.2248550248       32.4006506768      -22.9989071492  SOLV      1197            0.0000000000
      3711      1208  TIP3      H2              2.7313850248       31.5230306768      -21.8741471492  SOLV      1197            0.0000000000
      3712      1209  TIP3      OH2             7.5938650248       22.2223006768      -25.1451771492  SOLV      1198            0.0000000000
      3713      1209  TIP3      H1              6.7322350248       22.1351206768      -25.5528871492  SOLV      1198            0.0000000000
      3714      1209  TIP3      H2              7.5714350248       23.0783106768      -24.7174171492  SOLV      1198            0.0000000000
      3715      1210  TIP3      OH2            12.2566450248       21.9443406768      -21.7704771492  SOLV      1199            0.0000000000
      3716      1210  TIP3      H1             12.6769550248       21.5290506768      -21.0174171492  SOLV      1199            0.0000000000
      3717      1210  TIP3      H2             11.3236050248       21.7656706768      -21.6532771492  SOLV      1199            0.0000000000
      3718      1211  TIP3      OH2             7.6848750248       27.1877506768      -24.0501571492  SOLV      1200            0.0000000000
      3719      1211  TIP3      H1              7.0430850248       27.1474806768      -23.3411471492  SOLV      1200            0.0000000000
      3720      1211  TIP3      H2              7.7220750248       28.1142206768      -24.2878571492  SOLV      1200            0.0000000000
      3721      1212  TIP3      OH2            12.3194950248       28.0004306768      -18.8330071492  SOLV      1201            0.0000000000
      3722      1212  TIP3      H1             11.7568750248       27.2955906768      -18.5122271492  SOLV      1201            0.0000000000
      3723      1212  TIP3      H2             13.1458350248       27.8796206768      -18.3652471492  SOLV      1201            0.0000000000
      3724      1213  TIP3      OH2             5.4349250248       27.5081006768      -22.1829571492  SOLV      1202            0.0000000000
      3725      1213  TIP3      H1              5.3968650248       27.9082606768      -21.3142471492  SOLV      1202            0.0000000000
      3726      1213  TIP3      H2              4.9440350248       26.6913406768      -22.0926671492  SOLV      1202            0.0000000000
      3727      1214  TIP3      OH2             2.0430050248       24.6242806768      -28.3324871492  SOLV      1203            0.0000000000
      3728      1214  TIP3      H1              2.6737750248       24.5954906768      -27.6130971492  SOLV      1203            0.0000000000
      3729      1214  TIP3      H2              2.4924350248       24.1991506768      -29.0628971492  SOLV      1203            0.0000000000
      3730      1215  TIP3      OH2             5.5539950248       32.2168106768      -18.9027571492  SOLV      1204            0.0000000000
      3731      1215  TIP3      H1              6.2862350248       32.4714006768      -18.3413071492  SOLV      1204            0.0000000000
      3732      1215  TIP3      H2              4.7738650248       32.4213506768      -18.3872171492  SOLV      1204            0.0000000000
      3733      1216  TIP3      OH2             2.8869350248       29.9808806768      -20.9814671492  SOLV      1205            0.0000000000
      3734      1216  TIP3      H1              3.1097950248       29.5628406768      -20.1497171492  SOLV      1205            0.0000000000
      3735      1216  TIP3      H2              2.2849450248       29.3683806768      -21.4041871492  SOLV      1205            0.0000000000
      3736      1217  TIP3      OH2             9.9034250248       29.4978706768      -18.7684971492  SOLV      1206            0.0000000000
      3737      1217  TIP3      H1              9.6075050248       29.3321706768      -19.6635871492  SOLV      1206            0.0000000000
      3738      1217  TIP3      H2             10.8349450248       29.2779006768      -18.7791071492  SOLV      1206            0.0000000000
      3739      1218  TIP3      OH2             4.5208850248       24.7341506768      -21.4233271492  SOLV      1207            0.0000000000
      3740      1218  TIP3      H1              3.6281150248       25.0726906768      -21.4909271492  SOLV      1207            0.0000000000
      3741      1218  TIP3      H2              4.4221650248       23.8787606768      -21.0052471492  SOLV      1207            0.0000000000
      3742      1219  TIP3      OH2            11.7753450248       26.8415006768      -21.4167371492  SOLV      1208            0.0000000000
      3743      1219  TIP3      H1             11.8943750248       27.4150406768      -20.6596971492  SOLV      1208            0.0000000000
      3744      1219  TIP3      H2             12.4308050248       26.1534406768      -21.3019571492  SOLV      1208            0.0000000000
      3745      1220  TIP3      OH2             5.1637250248       21.8726506768      -26.1265471492  SOLV      1209            0.0000000000
      3746      1220  TIP3      H1              4.9347050248       21.9319006768      -27.0540471492  SOLV      1209            0.0000000000
      3747      1220  TIP3      H2              4.7210650248       21.0812006768      -25.8201371492  SOLV      1209            0.0000000000
      3748      1221  TIP3      OH2             3.2893750248       32.2361406768      -17.6817371492  SOLV      1210            0.0000000000
      3749      1221  TIP3      H1              3.4334250248       31.3342106768      -17.9680671492  SOLV      1210            0.0000000000
      3750      1221  TIP3      H2              2.5171150248       32.5223506768      -18.1695071492  SOLV      1210            0.0000000000
      3751      1222  TIP3      OH2             9.9449850248       32.2059506768      -18.2490971492  SOLV      1211            0.0000000000
      3752      1222  TIP3      H1              9.6163650248       32.4767606768      -19.1063571492  SOLV      1211            0.0000000000
      3753      1222  TIP3      H2             10.0968050248       31.2649306768      -18.3365971492  SOLV      1211            0.0000000000
      3754      1223  TIP3      OH2             4.1220250248       29.4364706768      -18.2618071492  SOLV      1212            0.0000000000
      3755      1223  TIP3      H1              4.5301450248       28.5791306768      -18.3827471492  SOLV      1212            0.0000000000
      3756      1223  TIP3      H2              3.8617850248       29.4506006768      -17.3407771492  SOLV      1212            0.0000000000
      3757      1224  TIP3      OH2             8.0690550248       28.4450406768      -20.8875171492  SOLV      1213            0.0000000000
      3758      1224  TIP3      H1              7.4506650248       29.1197006768      -20.6070471492  SOLV      1213            0.0000000000
      3759      1224  TIP3      H2              8.4131750248       28.7664306768      -21.7208971492  SOLV      1213            0.0000000000
      3760      1225  TIP3      OH2            13.0888750248       30.9165706768      -17.6100371492  SOLV      1214            0.0000000000
      3761      1225  TIP3      H1             14.0419950248       31.0004806768      -17.6374371492  SOLV      1214            0.0000000000
      3762      1225  TIP3      H2             12.9283350248       30.2047506768      -16.9905471492  SOLV      1214            0.0000000000
      3763      1226  TIP3      OH2             8.4084250248       25.8001206768      -19.8052071492  SOLV      1215            0.0000000000
      3764      1226  TIP3      H1              8.5585150248       25.0712506768      -20.4072371492  SOLV      1215            0.0000000000
      3765      1226  TIP3      H2              8.4106650248       26.5772906768      -20.3639871492  SOLV      1215            0.0000000000
      3766      1227  TIP3      OH2             8.8209950248       24.1697006768      -22.3124671492  SOLV      1216            0.0000000000
      3767      1227  TIP3      H1              9.3567450248       24.6213706768      -22.9645371492  SOLV      1216            0.0000000000
      3768      1227  TIP3      H2              7.9689550248       24.0616806768      -22.7350571492  SOLV      1216            0.0000000000
      3769      1228  TIP3      OH2            14.8184550248       27.4245006768      -17.0444171492  SOLV      1217            0.0000000000
      3770      1228  TIP3      H1             15.0105850248       26.4934406768      -17.1559671492  SOLV      1217            0.0000000000
      3771      1228  TIP3      H2             15.6760850248       27.8494506768      -17.0548771492  SOLV      1217            0.0000000000
      3772      1229  TIP3      OH2             6.8870550248       26.9984706768      -17.8936471492  SOLV      1218            0.0000000000
      3773      1229  TIP3      H1              6.1199550248       26.4659506768      -18.1038871492  SOLV      1218            0.0000000000
      3774      1229  TIP3      H2              7.5659550248       26.6885106768      -18.4930171492  SOLV      1218            0.0000000000
      3775      1230  TIP3      OH2             9.6265450248       21.6262706768      -21.8811071492  SOLV      1219            0.0000000000
      3776      1230  TIP3      H1              9.5285050248       22.5725906768      -21.9864871492  SOLV      1219            0.0000000000
      3777      1230  TIP3      H2              8.8841650248       21.2536506768      -22.3567571492  SOLV      1219            0.0000000000
      3778      1231  TIP3      OH2            10.8905950248       25.9478106768      -18.3172671492  SOLV      1220            0.0000000000
      3779      1231  TIP3      H1             10.6551350248       25.7284806768      -17.4157771492  SOLV      1220            0.0000000000
      3780      1231  TIP3      H2             10.1072850248       25.7409306768      -18.8270171492  SOLV      1220            0.0000000000
      3781      1232  TIP3      OH2            13.6062550248       25.0751606768      -19.2419171492  SOLV      1221            0.0000000000
      3782      1232  TIP3      H1             12.6587950248       25.1071306768      -19.1095871492  SOLV      1221            0.0000000000
      3783      1232  TIP3      H2             13.9189250248       24.4498706768      -18.5880971492  SOLV      1221            0.0000000000
      3784      1233  TIP3      OH2            15.2404050248       23.7092706768      -17.2367271492  SOLV      1222            0.0000000000
      3785      1233  TIP3      H1             15.1435850248       22.7570006768      -17.2425371492  SOLV      1222            0.0000000000
      3786      1233  TIP3      H2             14.9187150248       23.9779506768      -16.3761771492  SOLV      1222            0.0000000000
      3787      1234  TIP3      OH2             5.0673350248       24.9188506768      -18.1891771492  SOLV      1223            0.0000000000
      3788      1234  TIP3      H1              5.2790750248       24.2124606768      -18.7994271492  SOLV      1223            0.0000000000
      3789      1234  TIP3      H2              4.9560850248       24.4814506768      -17.3450571492  SOLV      1223            0.0000000000
      3790      1235  TIP3      OH2             9.8483550248       20.9200106768      -19.2098271492  SOLV      1224            0.0000000000
      3791      1235  TIP3      H1             10.5601950248       20.2802306768      -19.2239171492  SOLV      1224            0.0000000000
      3792      1235  TIP3      H2              9.7473950248       21.1868406768      -20.1235171492  SOLV      1224            0.0000000000
      3793      1236  TIP3      OH2            10.2021050248       22.6028506768      -17.1561971492  SOLV      1225            0.0000000000
      3794      1236  TIP3      H1             10.0703250248       22.1272306768      -17.9763471492  SOLV      1225            0.0000000000
      3795      1236  TIP3      H2              9.6028450248       23.3472106768      -17.2114871492  SOLV      1225            0.0000000000
      3796      1237  TIP3      OH2             2.5132350248       25.9418506768      -19.0226071492  SOLV      1226            0.0000000000
      3797      1237  TIP3      H1              3.4327250248       25.8196806768      -18.7862971492  SOLV      1226            0.0000000000
      3798      1237  TIP3      H2              2.0636850248       25.1918206768      -18.6332571492  SOLV      1226            0.0000000000
      3799      1238  TIP3      OH2            20.5151750248       21.4740006768      -17.1460271492  SOLV      1227            0.0000000000
      3800      1238  TIP3      H1             20.8648750248       20.8203506768      -17.7515571492  SOLV      1227            0.0000000000
      3801      1238  TIP3      H2             20.6621250248       22.3114106768      -17.5857671492  SOLV      1227            0.0000000000
      3802      1239  TIP3      OH2             3.7344850248       24.2540106768      -26.1313171492  SOLV      1228            0.0000000000
      3803      1239  TIP3      H1              4.1796450248       23.4622606768      -25.8293471492  SOLV      1228            0.0000000000
      3804      1239  TIP3      H2              4.2007850248       24.9705306768      -25.7007571492  SOLV      1228            0.0000000000
      3805      1240  TIP3      OH2             2.0385150248       27.2533106768      -25.0622971492  SOLV      1229            0.0000000000
      3806      1240  TIP3      H1              2.5304950248       27.0323606768      -25.8530971492  SOLV      1229            0.0000000000
      3807      1240  TIP3      H2              2.4006050248       28.0936506768      -24.7813471492  SOLV      1229            0.0000000000
      3808      1241  TIP3      OH2             2.3157050248       22.2491206768      -22.6638071492  SOLV      1230            0.0000000000
      3809      1241  TIP3      H1              1.6507550248       22.0031506768      -22.0207171492  SOLV      1230            0.0000000000
      3810      1241  TIP3      H2              1.8728350248       22.8711606768      -23.2410071492  SOLV      1230            0.0000000000
      3811      1242  TIP3      OH2             4.7498850248       22.2703706768      -19.3153871492  SOLV      1231            0.0000000000
      3812      1242  TIP3      H1              4.3837050248       21.5046306768      -18.8729171492  SOLV      1231            0.0000000000
      3813      1242  TIP3      H2              5.6627350248       22.2993906768      -19.0288771492  SOLV      1231            0.0000000000
      3814      1243  TIP3      OH2             6.7229650248       21.6208106768      -17.7796771492  SOLV      1232            0.0000000000
      3815      1243  TIP3      H1              7.6213250248       21.3468306768      -17.9643371492  SOLV      1232            0.0000000000
      3816      1243  TIP3      H2              6.3362750248       20.8784106768      -17.3154171492  SOLV      1232            0.0000000000
      3817      1244  TIP3      OH2           -23.8416549752      -25.6555893232      -10.0182571492  SOLV      1233            0.0000000000
      3818      1244  TIP3      H1            -23.7525449752      -24.7117693232      -10.1505471492  SOLV      1233            0.0000000000
      3819      1244  TIP3      H2            -24.4798949752      -25.9309493232      -10.6763171492  SOLV      1233            0.0000000000
      3820      1245  TIP3      OH2           -24.9085249752      -26.4005193232       -6.5994371492  SOLV      1234            0.0000000000
      3821      1245  TIP3      H1            -24.9467749752      -27.0468893232       -5.8944771492  SOLV      1234            0.0000000000
      3822      1245  TIP3      H2            -25.2308749752      -26.8670793232       -7.3705671492  SOLV      1234            0.0000000000
      3823      1246  TIP3      OH2           -21.2025049752      -23.4614793232       -8.2979271492  SOLV      1235            0.0000000000
      3824      1246  TIP3      H1            -21.6432349752      -24.1818793232       -7.8473671492  SOLV      1235            0.0000000000
      3825      1246  TIP3      H2            -21.2155349752      -22.7407593232       -7.6681571492  SOLV      1235            0.0000000000
      3826      1247  TIP3      OH2           -24.0909549752      -18.3573093232       -8.0858871492  SOLV      1236            0.0000000000
      3827      1247  TIP3      H1            -23.4713149752      -19.0338393232       -8.3589671492  SOLV      1236            0.0000000000
      3828      1247  TIP3      H2            -24.2992149752      -18.5752293232       -7.1773971492  SOLV      1236            0.0000000000
      3829      1248  TIP3      OH2           -26.5190849752      -23.9683793232       -6.1933371492  SOLV      1237            0.0000000000
      3830      1248  TIP3      H1            -26.2152949752      -24.6542393232       -6.7879271492  SOLV      1237            0.0000000000
      3831      1248  TIP3      H2            -25.7976849752      -23.8495093232       -5.5755371492  SOLV      1237            0.0000000000
      3832      1249  TIP3      OH2           -17.8561049752      -32.3668493232       -5.3327171492  SOLV      1238            0.0000000000
      3833      1249  TIP3      H1            -17.8068849752      -31.7567293232       -4.5968071492  SOLV      1238            0.0000000000
      3834      1249  TIP3      H2            -17.4305949752      -31.9057593232       -6.0556071492  SOLV      1238            0.0000000000
      3835      1250  TIP3      OH2           -23.3783849752      -29.5741393232       -5.8658571492  SOLV      1239            0.0000000000
      3836      1250  TIP3      H1            -23.2357949752      -30.5204393232       -5.8456971492  SOLV      1239            0.0000000000
      3837      1250  TIP3      H2            -23.4844849752      -29.3671593232       -6.7943671492  SOLV      1239            0.0000000000
      3838      1251  TIP3      OH2           -22.5012849752      -31.3419393232      -10.1925471492  SOLV      1240            0.0000000000
      3839      1251  TIP3      H1            -21.8548549752      -31.6706193232       -9.5677871492  SOLV      1240            0.0000000000
      3840      1251  TIP3      H2            -21.9913449752      -30.8240393232      -10.8154071492  SOLV      1240            0.0000000000
      3841      1252  TIP3      OH2           -17.4646449752      -30.8889293232       -3.0967371492  SOLV      1241            0.0000000000
      3842      1252  TIP3      H1            -18.1531849752      -30.2308593232       -3.1920771492  SOLV      1241            0.0000000000
      3843      1252  TIP3      H2            -17.4491849752      -31.0861393232       -2.1601971492  SOLV      1241            0.0000000000
      3844      1253  TIP3      OH2           -24.0443849752      -23.0545493232      -10.9753871492  SOLV      1242            0.0000000000
      3845      1253  TIP3      H1            -24.3398749752      -23.3773193232      -11.8266971492  SOLV      1242            0.0000000000
      3846      1253  TIP3      H2            -24.3686049752      -22.1548793232      -10.9341271492  SOLV      1242            0.0000000000
      3847      1254  TIP3      OH2           -20.7374449752      -32.0510093232       -8.2119571492  SOLV      1243            0.0000000000
      3848      1254  TIP3      H1            -20.9526449752      -32.8166693232       -7.6793571492  SOLV      1243            0.0000000000
      3849      1254  TIP3      H2            -20.0817049752      -31.5785493232       -7.6991071492  SOLV      1243            0.0000000000
      3850      1255  TIP3      OH2           -20.6907349752      -21.6224093232       -5.9499971492  SOLV      1244            0.0000000000
      3851      1255  TIP3      H1            -21.6323649752      -21.5640193232       -5.7883071492  SOLV      1244            0.0000000000
      3852      1255  TIP3      H2            -20.4141249752      -20.7163593232       -6.0870271492  SOLV      1244            0.0000000000
      3853      1256  TIP3      OH2           -22.4386149752      -19.8410593232       -9.3248371492  SOLV      1245            0.0000000000
      3854      1256  TIP3      H1            -22.0133849752      -20.5482693232       -9.8098771492  SOLV      1245            0.0000000000
      3855      1256  TIP3      H2            -22.1216149752      -19.0397893232       -9.7416171492  SOLV      1245            0.0000000000
      3856      1257  TIP3      OH2           -21.2789649752      -21.9402093232      -10.8161771492  SOLV      1246            0.0000000000
      3857      1257  TIP3      H1            -21.5364849752      -22.6301993232      -11.4275871492  SOLV      1246            0.0000000000
      3858      1257  TIP3      H2            -21.2078849752      -22.3830893232       -9.9705871492  SOLV      1246            0.0000000000
      3859      1258  TIP3      OH2           -19.5929449752      -23.3735393232       -2.3388271492  SOLV      1247            0.0000000000
      3860      1258  TIP3      H1            -19.4533149752      -23.9652893232       -3.0781271492  SOLV      1247            0.0000000000
      3861      1258  TIP3      H2            -19.4256649752      -22.5009493232       -2.6949471492  SOLV      1247            0.0000000000
      3862      1259  TIP3      OH2           -25.1204049752      -26.4115893232      -12.5662271492  SOLV      1248            0.0000000000
      3863      1259  TIP3      H1            -25.8318549752      -25.8766193232      -12.9181771492  SOLV      1248            0.0000000000
      3864      1259  TIP3      H2            -24.4294449752      -26.3563793232      -13.2263371492  SOLV      1248            0.0000000000
      3865      1260  TIP3      OH2           -17.7510149752      -27.0337393232       -4.2727871492  SOLV      1249            0.0000000000
      3866      1260  TIP3      H1            -18.4036049752      -26.3391793232       -4.1836971492  SOLV      1249            0.0000000000
      3867      1260  TIP3      H2            -17.2859849752      -26.8236493232       -5.0826271492  SOLV      1249            0.0000000000
      3868      1261  TIP3      OH2           -21.7146349752      -26.2022593232      -11.6146371492  SOLV      1250            0.0000000000
      3869      1261  TIP3      H1            -22.4465349752      -25.9738893232      -11.0415771492  SOLV      1250            0.0000000000
      3870      1261  TIP3      H2            -21.2674149752      -26.9159893232      -11.1598871492  SOLV      1250            0.0000000000
      3871      1262  TIP3      OH2           -21.8172849752      -28.0279993232       -2.5469371492  SOLV      1251            0.0000000000
      3872      1262  TIP3      H1            -21.7373749752      -27.2645593232       -1.9750871492  SOLV      1251            0.0000000000
      3873      1262  TIP3      H2            -22.4185149752      -27.7487593232       -3.2374271492  SOLV      1251            0.0000000000
      3874      1263  TIP3      OH2           -28.7025149752      -22.1435793232       -7.0509171492  SOLV      1252            0.0000000000
      3875      1263  TIP3      H1            -28.7973849752      -22.7222693232       -7.8074571492  SOLV      1252            0.0000000000
      3876      1263  TIP3      H2            -27.9731549752      -22.5150093232       -6.5546371492  SOLV      1252            0.0000000000
      3877      1264  TIP3      OH2           -23.3934949752      -21.2998893232       -5.3645871492  SOLV      1253            0.0000000000
      3878      1264  TIP3      H1            -23.6338349752      -20.6375793232       -4.7166671492  SOLV      1253            0.0000000000
      3879      1264  TIP3      H2            -23.5916749752      -22.1343693232       -4.9396271492  SOLV      1253            0.0000000000
      3880      1265  TIP3      OH2           -28.8226449752      -22.4038093232       -1.3814471492  SOLV      1254            0.0000000000
      3881      1265  TIP3      H1            -29.1338949752      -21.6214893232       -0.9261271492  SOLV      1254            0.0000000000
      3882      1265  TIP3      H2            -29.4726249752      -22.5568993232       -2.0672471492  SOLV      1254            0.0000000000
      3883      1266  TIP3      OH2           -22.8436849752      -27.0399693232      -13.9295171492  SOLV      1255            0.0000000000
      3884      1266  TIP3      H1            -22.2641349752      -26.8899393232      -13.1826271492  SOLV      1255            0.0000000000
      3885      1266  TIP3      H2            -22.4296849752      -26.5692293232      -14.6528771492  SOLV      1255            0.0000000000
      3886      1267  TIP3      OH2           -25.1171949752      -20.3031193232      -10.4942071492  SOLV      1256            0.0000000000
      3887      1267  TIP3      H1            -24.6434349752      -20.0074893232       -9.7167871492  SOLV      1256            0.0000000000
      3888      1267  TIP3      H2            -25.6802649752      -19.5649593232      -10.7272471492  SOLV      1256            0.0000000000
      3889      1268  TIP3      OH2           -30.5830549752      -20.3323093232       -0.6180671492  SOLV      1257            0.0000000000
      3890      1268  TIP3      H1            -30.5755249752      -20.4683393232       -1.5655171492  SOLV      1257            0.0000000000
      3891      1268  TIP3      H2            -31.4990149752      -20.4494993232       -0.3660671492  SOLV      1257            0.0000000000
      3892      1269  TIP3      OH2           -17.9557049752      -20.9236893232      -15.7401571492  SOLV      1258            0.0000000000
      3893      1269  TIP3      H1            -17.8823549752      -19.9846693232      -15.5696271492  SOLV      1258            0.0000000000
      3894      1269  TIP3      H2            -17.0501949752      -21.2288293232      -15.7964271492  SOLV      1258            0.0000000000
      3895      1270  TIP3      OH2           -17.0378649752      -20.6929393232       -0.7614871492  SOLV      1259            0.0000000000
      3896      1270  TIP3      H1            -17.0871849752      -21.6481293232       -0.7987271492  SOLV      1259            0.0000000000
      3897      1270  TIP3      H2            -17.8646349752      -20.4254093232       -0.3601071492  SOLV      1259            0.0000000000
      3898      1271  TIP3      OH2           -25.6448849752      -17.3466493232      -12.0792871492  SOLV      1260            0.0000000000
      3899      1271  TIP3      H1            -25.7202849752      -17.4679293232      -13.0257671492  SOLV      1260            0.0000000000
      3900      1271  TIP3      H2            -25.6120149752      -16.3973793232      -11.9608271492  SOLV      1260            0.0000000000
      3901      1272  TIP3      OH2           -31.9915049752      -18.5579493232      -10.2983871492  SOLV      1261            0.0000000000
      3902      1272  TIP3      H1            -31.8394649752      -18.9059093232       -9.4197371492  SOLV      1261            0.0000000000
      3903      1272  TIP3      H2            -32.8424649752      -18.9142193232      -10.5536671492  SOLV      1261            0.0000000000
      3904      1273  TIP3      OH2           -22.5432849752      -18.1926293232      -15.0770471492  SOLV      1262            0.0000000000
      3905      1273  TIP3      H1            -22.1684449752      -18.9370193232      -15.5477871492  SOLV      1262            0.0000000000
      3906      1273  TIP3      H2            -22.5389149752      -18.4625693232      -14.1587171492  SOLV      1262            0.0000000000
      3907      1274  TIP3      OH2           -22.8744749752      -18.2669193232      -12.3278271492  SOLV      1263            0.0000000000
      3908      1274  TIP3      H1            -23.8094949752      -18.1667293232      -12.1491271492  SOLV      1263            0.0000000000
      3909      1274  TIP3      H2            -22.5942849752      -18.9763193232      -11.7495071492  SOLV      1263            0.0000000000
      3910      1275  TIP3      OH2           -19.8858849752      -29.1996893232       -0.2812671492  SOLV      1264            0.0000000000
      3911      1275  TIP3      H1            -20.2932049752      -28.7191293232       -1.0019371492  SOLV      1264            0.0000000000
      3912      1275  TIP3      H2            -19.8453149752      -30.1050893232       -0.5891871492  SOLV      1264            0.0000000000
      3913      1276  TIP3      OH2           -22.1288649752      -30.8681393232       -2.0610271492  SOLV      1265            0.0000000000
      3914      1276  TIP3      H1            -22.6429149752      -30.9939193232       -1.2634271492  SOLV      1265            0.0000000000
      3915      1276  TIP3      H2            -22.2843949752      -29.9558293232       -2.3054071492  SOLV      1265            0.0000000000
      3916      1277  TIP3      OH2           -21.3663749752      -26.0071393232      -16.2997271492  SOLV      1266            0.0000000000
      3917      1277  TIP3      H1            -21.3242949752      -26.2297493232      -17.2297271492  SOLV      1266            0.0000000000
      3918      1277  TIP3      H2            -20.5171649752      -25.6084293232      -16.1097371492  SOLV      1266            0.0000000000
      3919      1278  TIP3      OH2           -24.4946649752      -28.7432093232      -11.4650771492  SOLV      1267            0.0000000000
      3920      1278  TIP3      H1            -24.9036349752      -27.9283493232      -11.7565971492  SOLV      1267            0.0000000000
      3921      1278  TIP3      H2            -23.7740449752      -28.8831993232      -12.0793671492  SOLV      1267            0.0000000000
      3922      1279  TIP3      OH2           -25.3925049752      -28.5675693232        0.0229928508  SOLV      1268            0.0000000000
      3923      1279  TIP3      H1            -25.9551249752      -29.2724093232        0.3437728508  SOLV      1268            0.0000000000
      3924      1279  TIP3      H2            -24.5661649752      -28.6883793232        0.4907528508  SOLV      1268            0.0000000000
      3925      1280  TIP3      OH2           -23.4898949752      -29.2971693232       -8.6511071492  SOLV      1269            0.0000000000
      3926      1280  TIP3      H1            -23.6854449752      -28.6914893232       -9.3660471492  SOLV      1269            0.0000000000
      3927      1280  TIP3      H2            -23.3086349752      -30.1306493232       -9.0854771492  SOLV      1269            0.0000000000
      3928      1281  TIP3      OH2           -24.2259749752      -27.6590393232       -3.9798671492  SOLV      1270            0.0000000000
      3929      1281  TIP3      H1            -23.9024949752      -28.2900693232       -4.6228171492  SOLV      1270            0.0000000000
      3930      1281  TIP3      H2            -24.6660449752      -28.1938193232       -3.3191271492  SOLV      1270            0.0000000000
      3931      1282  TIP3      OH2           -19.7559849752      -16.8253193232        0.3451928508  SOLV      1271            0.0000000000
      3932      1282  TIP3      H1            -19.5561149752      -16.4011293232       -0.4892771492  SOLV      1271            0.0000000000
      3933      1282  TIP3      H2            -19.1006149752      -16.4814993232        0.9522328508  SOLV      1271            0.0000000000
      3934      1283  TIP3      OH2           -26.9578649752      -24.3428093232      -13.2101071492  SOLV      1272            0.0000000000
      3935      1283  TIP3      H1            -27.7027649752      -24.8502793232      -13.5323171492  SOLV      1272            0.0000000000
      3936      1283  TIP3      H2            -27.0921449752      -24.2940093232      -12.2636271492  SOLV      1272            0.0000000000
      3937      1284  TIP3      OH2           -19.8079749752      -25.2099893232       -4.4233471492  SOLV      1273            0.0000000000
      3938      1284  TIP3      H1            -19.1660949752      -24.7533593232       -4.9671271492  SOLV      1273            0.0000000000
      3939      1284  TIP3      H2            -20.6382849752      -25.0967493232       -4.8859371492  SOLV      1273            0.0000000000
      3940      1285  TIP3      OH2           -22.3418349752      -29.6615493232      -13.3501071492  SOLV      1274            0.0000000000
      3941      1285  TIP3      H1            -21.4499349752      -29.7990493232      -13.0309871492  SOLV      1274            0.0000000000
      3942      1285  TIP3      H2            -22.2854749752      -28.8709393232      -13.8867571492  SOLV      1274            0.0000000000
      3943      1286  TIP3      OH2           -24.8324549752      -22.8843793232      -14.1846471492  SOLV      1275            0.0000000000
      3944      1286  TIP3      H1            -25.1276149752      -22.0575893232      -13.8031671492  SOLV      1275            0.0000000000
      3945      1286  TIP3      H2            -25.5354549752      -23.5036893232      -13.9885071492  SOLV      1275            0.0000000000
      3946      1287  TIP3      OH2           -17.4569649752      -29.4521393232      -13.6554371492  SOLV      1276            0.0000000000
      3947      1287  TIP3      H1            -18.0113349752      -29.8483393232      -14.3276871492  SOLV      1276            0.0000000000
      3948      1287  TIP3      H2            -17.3566049752      -28.5416193232      -13.9331071492  SOLV      1276            0.0000000000
      3949      1288  TIP3      OH2           -17.4937649752      -23.6519693232       -0.8182871492  SOLV      1277            0.0000000000
      3950      1288  TIP3      H1            -18.3449149752      -23.4135893232       -1.1856471492  SOLV      1277            0.0000000000
      3951      1288  TIP3      H2            -16.9034249752      -23.6686493232       -1.5715771492  SOLV      1277            0.0000000000
      3952      1289  TIP3      OH2           -19.1617949752      -20.6660993232      -13.1902271492  SOLV      1278            0.0000000000
      3953      1289  TIP3      H1            -19.5346849752      -21.4917193232      -12.8811671492  SOLV      1278            0.0000000000
      3954      1289  TIP3      H2            -18.8844449752      -20.8491593232      -14.0878871492  SOLV      1278            0.0000000000
      3955      1290  TIP3      OH2           -22.0014049752      -25.8581493232       -6.1690371492  SOLV      1279            0.0000000000
      3956      1290  TIP3      H1            -22.9297149752      -26.0899593232       -6.1961071492  SOLV      1279            0.0000000000
      3957      1290  TIP3      H2            -21.5502949752      -26.6351693232       -6.4991571492  SOLV      1279            0.0000000000
      3958      1291  TIP3      OH2           -29.4580949752      -21.5299893232      -10.0361671492  SOLV      1280            0.0000000000
      3959      1291  TIP3      H1            -28.9308749752      -20.7565493232      -10.2362871492  SOLV      1280            0.0000000000
      3960      1291  TIP3      H2            -30.3382449752      -21.3050693232      -10.3377671492  SOLV      1280            0.0000000000
      3961      1292  TIP3      OH2           -28.0308649752      -23.8669993232      -10.4597371492  SOLV      1281            0.0000000000
      3962      1292  TIP3      H1            -28.2718649752      -22.9415593232      -10.4182071492  SOLV      1281            0.0000000000
      3963      1292  TIP3      H2            -28.7715049752      -24.3258693232      -10.0633471492  SOLV      1281            0.0000000000
      3964      1293  TIP3      OH2           -27.5162049752      -19.7176393232       -4.1446271492  SOLV      1282            0.0000000000
      3965      1293  TIP3      H1            -27.1537349752      -18.8630793232       -4.3781871492  SOLV      1282            0.0000000000
      3966      1293  TIP3      H2            -26.9846849752      -20.0094793232       -3.4039971492  SOLV      1282            0.0000000000
      3967      1294  TIP3      OH2           -29.3477849752      -18.8452393232      -10.9145171492  SOLV      1283            0.0000000000
      3968      1294  TIP3      H1            -30.2977349752      -18.7394993232      -10.8631871492  SOLV      1283            0.0000000000
      3969      1294  TIP3      H2            -28.9959749752      -18.0244993232      -10.5697671492  SOLV      1283            0.0000000000
      3970      1295  TIP3      OH2           -21.7692349752      -22.6895193232      -15.3701671492  SOLV      1284            0.0000000000
      3971      1295  TIP3      H1            -21.4159249752      -23.0695393232      -14.5658171492  SOLV      1284            0.0000000000
      3972      1295  TIP3      H2            -22.7178849752      -22.7830393232      -15.2832371492  SOLV      1284            0.0000000000
      3973      1296  TIP3      OH2           -21.3137049752      -19.0666193232       -1.9745871492  SOLV      1285            0.0000000000
      3974      1296  TIP3      H1            -21.9153849752      -19.6223293232       -2.4699571492  SOLV      1285            0.0000000000
      3975      1296  TIP3      H2            -21.0323349752      -18.3996393232       -2.6008471492  SOLV      1285            0.0000000000
      3976      1297  TIP3      OH2           -17.2657949752      -18.2102693232      -15.1691471492  SOLV      1286            0.0000000000
      3977      1297  TIP3      H1            -16.5220049752      -17.6242193232      -15.3089871492  SOLV      1286            0.0000000000
      3978      1297  TIP3      H2            -17.9599849752      -17.6416893232      -14.8359071492  SOLV      1286            0.0000000000
      3979      1298  TIP3      OH2           -20.9033049752      -24.0173193232      -13.1433771492  SOLV      1287            0.0000000000
      3980      1298  TIP3      H1            -21.1805449752      -24.7453893232      -12.5872671492  SOLV      1287            0.0000000000
      3981      1298  TIP3      H2            -19.9760049752      -23.8981193232      -12.9381171492  SOLV      1287            0.0000000000
      3982      1299  TIP3      OH2           -28.7413949752      -22.0075293232      -14.4669071492  SOLV      1288            0.0000000000
      3983      1299  TIP3      H1            -28.5945949752      -22.5275493232      -13.6768171492  SOLV      1288            0.0000000000
      3984      1299  TIP3      H2            -28.7442249752      -21.1007693232      -14.1603171492  SOLV      1288            0.0000000000
      3985      1300  TIP3      OH2           -26.0036749752      -20.3101693232      -13.7174871492  SOLV      1289            0.0000000000
      3986      1300  TIP3      H1            -26.8200649752      -19.8131993232      -13.6650571492  SOLV      1289            0.0000000000
      3987      1300  TIP3      H2            -25.4740449752      -19.8348193232      -14.3576071492  SOLV      1289            0.0000000000
      3988      1301  TIP3      OH2           -28.6653649752      -19.2664493232      -13.7357971492  SOLV      1290            0.0000000000
      3989      1301  TIP3      H1            -28.5044949752      -18.4666993232      -14.2365371492  SOLV      1290            0.0000000000
      3990      1301  TIP3      H2            -28.8625849752      -18.9598493232      -12.8507371492  SOLV      1290            0.0000000000
      3991      1302  TIP3      OH2           -19.7320749752      -31.8194693232       -1.7257671492  SOLV      1291            0.0000000000
      3992      1302  TIP3      H1            -20.6484949752      -31.5572993232       -1.8133971492  SOLV      1291            0.0000000000
      3993      1302  TIP3      H2            -19.3965749752      -31.8225693232       -2.6222371492  SOLV      1291            0.0000000000
      3994      1303  TIP3      OH2           -21.1299749752      -28.0693693232       -7.6300371492  SOLV      1292            0.0000000000
      3995      1303  TIP3      H1            -21.9275349752      -28.4843493232       -7.9585371492  SOLV      1292            0.0000000000
      3996      1303  TIP3      H2            -20.6848649752      -28.7599993232       -7.1389871492  SOLV      1292            0.0000000000
      3997      1304  TIP3      OH2           -20.0435149752      -18.8131193232       -6.0076871492  SOLV      1293            0.0000000000
      3998      1304  TIP3      H1            -20.1990849752      -18.1346793232       -6.6647571492  SOLV      1293            0.0000000000
      3999      1304  TIP3      H2            -19.1108749752      -18.7411893232       -5.8046271492  SOLV      1293            0.0000000000
      4000      1305  TIP3      OH2           -29.7322349752      -19.2228293232        1.8402528508  SOLV      1294            0.0000000000
      4001      1305  TIP3      H1            -28.9645149752      -19.6817493232        2.1811728508  SOLV      1294            0.0000000000
      4002      1305  TIP3      H2            -29.7536149752      -19.4488493232        0.9103728508  SOLV      1294            0.0000000000
      4003      1306  TIP3      OH2           -25.6402749752      -19.7147693232      -16.7845671492  SOLV      1295            0.0000000000
      4004      1306  TIP3      H1            -26.2841749752      -20.3459093232      -16.4631971492  SOLV      1295            0.0000000000
      4005      1306  TIP3      H2            -24.8784449752      -20.2459693232      -17.0162171492  SOLV      1295            0.0000000000
      4006      1307  TIP3      OH2           -23.1553649752      -20.8427193232        0.5694028508  SOLV      1296            0.0000000000
      4007      1307  TIP3      H1            -23.5064149752      -21.6994193232        0.8124428508  SOLV      1296            0.0000000000
      4008      1307  TIP3      H2            -22.4290449752      -20.7000493232        1.1763028508  SOLV      1296            0.0000000000
      4009      1308  TIP3      OH2           -21.0359849752      -19.8977793232      -16.5507671492  SOLV      1297            0.0000000000
      4010      1308  TIP3      H1            -20.7529449752      -20.6922593232      -16.0980771492  SOLV      1297            0.0000000000
      4011      1308  TIP3      H2            -20.2961949752      -19.6646793232      -17.1116571492  SOLV      1297            0.0000000000
      4012      1309  TIP3      OH2           -27.7670149752      -24.3620493232        0.6069028508  SOLV      1298            0.0000000000
      4013      1309  TIP3      H1            -28.0956349752      -24.0912393232       -0.2503571492  SOLV      1298            0.0000000000
      4014      1309  TIP3      H2            -27.6151949752      -25.3030693232        0.5194028508  SOLV      1298            0.0000000000
      4015      1310  TIP3      OH2           -22.0324949752      -24.4463193232       -2.0098671492  SOLV      1299            0.0000000000
      4016      1310  TIP3      H1            -21.2870149752      -23.8579493232       -2.1294671492  SOLV      1299            0.0000000000
      4017      1310  TIP3      H2            -22.7898149752      -23.8643493232       -1.9465571492  SOLV      1299            0.0000000000
      4018      1311  TIP3      OH2           -24.6231249752      -25.6514293232        1.2459628508  SOLV      1300            0.0000000000
      4019      1311  TIP3      H1            -23.6700049752      -25.5675193232        1.2185628508  SOLV      1300            0.0000000000
      4020      1311  TIP3      H2            -24.7836649752      -26.3632493232        1.8654528508  SOLV      1300            0.0000000000
      4021      1312  TIP3      OH2           -18.4710049752      -25.4180693232      -16.6793471492  SOLV      1301            0.0000000000
      4022      1312  TIP3      H1            -18.7445249752      -25.8425193232      -17.4925171492  SOLV      1301            0.0000000000
      4023      1312  TIP3      H2            -18.4315949752      -24.4866193232      -16.8963071492  SOLV      1301            0.0000000000
      4024      1313  TIP3      OH2           -22.8935449752      -29.1434993232        1.8115828508  SOLV      1302            0.0000000000
      4025      1313  TIP3      H1            -22.7014149752      -30.0745593232        1.7000328508  SOLV      1302            0.0000000000
      4026      1313  TIP3      H2            -22.0359149752      -28.7185493232        1.8011228508  SOLV      1302            0.0000000000
      4027      1314  TIP3      OH2           -21.5768249752      -26.3549793232       -0.1111471492  SOLV      1303            0.0000000000
      4028      1314  TIP3      H1            -21.8583249752      -25.6455193232       -0.6887671492  SOLV      1303            0.0000000000
      4029      1314  TIP3      H2            -20.6343949752      -26.4276793232       -0.2620271492  SOLV      1303            0.0000000000
      4030      1315  TIP3      OH2           -27.9636649752      -17.0821193232      -15.1237971492  SOLV      1304            0.0000000000
      4031      1315  TIP3      H1            -27.0305949752      -16.9242493232      -14.9799571492  SOLV      1304            0.0000000000
      4032      1315  TIP3      H2            -28.2277849752      -16.4068193232      -15.7486471492  SOLV      1304            0.0000000000
      4033      1316  TIP3      OH2           -17.3277149752      -18.1625493232       -5.7784971492  SOLV      1305            0.0000000000
      4034      1316  TIP3      H1            -17.3490449752      -17.9777093232       -4.8395571492  SOLV      1305            0.0000000000
      4035      1316  TIP3      H2            -16.6370949752      -17.5941493232       -6.1193571492  SOLV      1305            0.0000000000
      4036      1317  TIP3      OH2           -17.7644249752      -18.5954393232       -2.8565871492  SOLV      1306            0.0000000000
      4037      1317  TIP3      H1            -18.2515549752      -19.3310293232       -3.2278471492  SOLV      1306            0.0000000000
      4038      1317  TIP3      H2            -17.2151549752      -18.9890493232       -2.1786471492  SOLV      1306            0.0000000000
      4039      1318  TIP3      OH2           -19.3136949752      -22.8056293232        1.7814428508  SOLV      1307            0.0000000000
      4040      1318  TIP3      H1            -20.1795849752      -22.9106593232        2.1756728508  SOLV      1307            0.0000000000
      4041      1318  TIP3      H2            -18.9371049752      -22.0472993232        2.2279128508  SOLV      1307            0.0000000000
      4042      1319  TIP3      OH2           -18.0127249752      -24.5492593232      -12.7043071492  SOLV      1308            0.0000000000
      4043      1319  TIP3      H1            -17.1625849752      -24.1281693232      -12.5771471492  SOLV      1308            0.0000000000
      4044      1319  TIP3      H2            -18.0072149752      -25.2892493232      -12.0971671492  SOLV      1308            0.0000000000
      4045      1320  TIP3      OH2           -17.6181649752      -26.4955193232      -10.8807371492  SOLV      1309            0.0000000000
      4046      1320  TIP3      H1            -18.3447049752      -26.9752593232      -10.4829771492  SOLV      1309            0.0000000000
      4047      1320  TIP3      H2            -17.0368349752      -26.2900493232      -10.1485771492  SOLV      1309            0.0000000000
      4048      1321  TIP3      OH2           -17.8590449752      -23.7107693232       -5.9329771492  SOLV      1310            0.0000000000
      4049      1321  TIP3      H1            -17.0256249752      -24.0887693232       -6.2136171492  SOLV      1310            0.0000000000
      4050      1321  TIP3      H2            -17.7470149752      -22.7676493232       -6.0520671492  SOLV      1310            0.0000000000
      4051      1322  TIP3      OH2           -19.3728149752      -20.8330193232       -3.6261371492  SOLV      1311            0.0000000000
      4052      1322  TIP3      H1            -20.0202849752      -20.5078693232       -3.0006171492  SOLV      1311            0.0000000000
      4053      1322  TIP3      H2            -19.8904149752      -21.2732493232       -4.3003071492  SOLV      1311            0.0000000000
      4054      1323  TIP3      OH2           -17.3498549752      -26.5946693232      -14.4896071492  SOLV      1312            0.0000000000
      4055      1323  TIP3      H1            -17.8717449752      -26.2382593232      -15.2085171492  SOLV      1312            0.0000000000
      4056      1323  TIP3      H2            -17.3829349752      -25.9198893232      -13.8115171492  SOLV      1312            0.0000000000
      4057      1324  TIP3      OH2           -19.0009549752      -29.3551093232      -15.9388971492  SOLV      1313            0.0000000000
      4058      1324  TIP3      H1            -18.9045149752      -28.6884093232      -16.6189271492  SOLV      1313            0.0000000000
      4059      1324  TIP3      H2            -19.1409949752      -30.1704793232      -16.4203471492  SOLV      1313            0.0000000000
      4060      1325  TIP3      OH2           -19.8314849752      -27.9748693232      -10.3178671492  SOLV      1314            0.0000000000
      4061      1325  TIP3      H1            -19.9816049752      -28.9200093232      -10.3380871492  SOLV      1314            0.0000000000
      4062      1325  TIP3      H2            -20.1850349752      -27.6937293232       -9.4739571492  SOLV      1314            0.0000000000
      4063      1326  TIP3      OH2           -18.9751949752      -26.0045393232       -0.6790371492  SOLV      1315            0.0000000000
      4064      1326  TIP3      H1            -18.3924649752      -26.7393093232       -0.4873171492  SOLV      1315            0.0000000000
      4065      1326  TIP3      H2            -18.4112649752      -25.2325093232       -0.6324571492  SOLV      1315            0.0000000000
      4066      1327  TIP3      OH2           -17.4784849752      -28.1019593232        0.0055028508  SOLV      1316            0.0000000000
      4067      1327  TIP3      H1            -18.3418149752      -28.4807493232       -0.1600271492  SOLV      1316            0.0000000000
      4068      1327  TIP3      H2            -16.8741149752      -28.8404793232       -0.0689171492  SOLV      1316            0.0000000000
      4069      1328  TIP3      OH2           -20.1210049752      -30.3922893232      -11.8553571492  SOLV      1317            0.0000000000
      4070      1328  TIP3      H1            -19.8412949752      -31.2992493232      -11.7311871492  SOLV      1317            0.0000000000
      4071      1328  TIP3      H2            -19.3618349752      -29.9581393232      -12.2444371492  SOLV      1317            0.0000000000
      4072      1329  TIP3      OH2           -19.5091749752      -29.8105493232       -6.4194671492  SOLV      1318            0.0000000000
      4073      1329  TIP3      H1            -18.5763749752      -29.5985593232       -6.4538671492  SOLV      1318            0.0000000000
      4074      1329  TIP3      H2            -19.7444249752      -29.7093393232       -5.4971671492  SOLV      1318            0.0000000000
      4075      1330  TIP3      OH2           -19.4799849752      -29.0740193232       -3.6435271492  SOLV      1319            0.0000000000
      4076      1330  TIP3      H1            -20.3228549752      -28.8059793232       -3.2775471492  SOLV      1319            0.0000000000
      4077      1330  TIP3      H2            -19.0375549752      -28.2518293232       -3.8544171492  SOLV      1319            0.0000000000
      4078      1331  TIP3      OH2           -20.5891149752      -18.0726093232      -10.2063171492  SOLV      1320            0.0000000000
      4079      1331  TIP3      H1            -19.9368249752      -18.4203993232      -10.8144071492  SOLV      1320            0.0000000000
      4080      1331  TIP3      H2            -20.0787349752      -17.5842893232       -9.5603471492  SOLV      1320            0.0000000000
      4081      1332  TIP3      OH2           -30.2500749752      -20.1693493232       -3.4048271492  SOLV      1321            0.0000000000
      4082      1332  TIP3      H1            -30.6749649752      -19.3594993232       -3.6873671492  SOLV      1321            0.0000000000
      4083      1332  TIP3      H2            -29.3457949752      -20.0839393232       -3.7068471492  SOLV      1321            0.0000000000
      4084      1333  TIP3      OH2           -25.9389349752      -18.7703493232       -0.4454571492  SOLV      1322            0.0000000000
      4085      1333  TIP3      H1            -25.7541849752      -19.1037393232        0.4325728508  SOLV      1322            0.0000000000
      4086      1333  TIP3      H2            -25.0924849752      -18.4604893232       -0.7675371492  SOLV      1322            0.0000000000
      4087      1334  TIP3      OH2           -23.5938949752      -17.4844593232       -1.2013171492  SOLV      1323            0.0000000000
      4088      1334  TIP3      H1            -22.9170049752      -18.1172293232       -1.4413971492  SOLV      1323            0.0000000000
      4089      1334  TIP3      H2            -23.2720149752      -17.0834093232       -0.3939871492  SOLV      1323            0.0000000000
      4090      1335  TIP3      OH2           -32.8484049752      -16.9129593232       -3.3572971492  SOLV      1324            0.0000000000
      4091      1335  TIP3      H1            -33.5687649752      -16.4728593232       -3.8085271492  SOLV      1324            0.0000000000
      4092      1335  TIP3      H2            -33.2140049752      -17.1634893232       -2.5088971492  SOLV      1324            0.0000000000
      4093      1336  TIP3      OH2           -30.3811449752      -17.3125693232       -4.3275771492  SOLV      1325            0.0000000000
      4094      1336  TIP3      H1            -31.2459249752      -17.2407193232       -3.9235671492  SOLV      1325            0.0000000000
      4095      1336  TIP3      H2            -30.4362449752      -16.7658393232       -5.1113271492  SOLV      1325            0.0000000000
      4096      1337  TIP3      OH2           -25.6705849752      -17.4246793232       -5.1519771492  SOLV      1326            0.0000000000
      4097      1337  TIP3      H1            -26.1271849752      -16.8957093232       -5.8061371492  SOLV      1326            0.0000000000
      4098      1337  TIP3      H2            -25.5077849752      -16.8215393232       -4.4267471492  SOLV      1326            0.0000000000
      4099      1338  TIP3      OH2           -23.3429549752      -18.5467193232       -4.2069471492  SOLV      1327            0.0000000000
      4100      1338  TIP3      H1            -24.2475849752      -18.3816993232       -4.4727371492  SOLV      1327            0.0000000000
      4101      1338  TIP3      H2            -22.9140949752      -17.6934993232       -4.2726071492  SOLV      1327            0.0000000000
      4102      1339  TIP3      OH2           -20.7387649752      -16.9768093232       -3.9121671492  SOLV      1328            0.0000000000
      4103      1339  TIP3      H1            -20.9205649752      -16.0609193232       -4.1226771492  SOLV      1328            0.0000000000
      4104      1339  TIP3      H2            -20.5619849752      -17.3870993232       -4.7587071492  SOLV      1328            0.0000000000
      4105      1340  TIP3      OH2           -31.2922849752      -19.5798393232       -7.7921271492  SOLV      1329            0.0000000000
      4106      1340  TIP3      H1            -31.5112149752      -20.4960993232       -7.6225271492  SOLV      1329            0.0000000000
      4107      1340  TIP3      H2            -30.4680649752      -19.4397993232       -7.3259871492  SOLV      1329            0.0000000000
      4108      1341  TIP3      OH2           -28.7550349752      -19.1099093232       -6.9433271492  SOLV      1330            0.0000000000
      4109      1341  TIP3      H1            -28.5424649752      -19.9980093232       -7.2302371492  SOLV      1330            0.0000000000
      4110      1341  TIP3      H2            -28.6905249752      -19.1441393232       -5.9889271492  SOLV      1330            0.0000000000
      4111      1342  TIP3      OH2           -25.3182749752      -17.8562993232      -14.8782671492  SOLV      1331            0.0000000000
      4112      1342  TIP3      H1            -24.4522549752      -17.4895593232      -15.0564471492  SOLV      1331            0.0000000000
      4113      1342  TIP3      H2            -25.5649949752      -18.2954993232      -15.6921871492  SOLV      1331            0.0000000000
      4114      1343  TIP3      OH2           -18.6093149752      -18.2932693232      -12.1991571492  SOLV      1332            0.0000000000
      4115      1343  TIP3      H1            -18.8036049752      -19.0410593232      -12.7641971492  SOLV      1332            0.0000000000
      4116      1343  TIP3      H2            -18.6483049752      -17.5352593232      -12.7823671492  SOLV      1332            0.0000000000
      4117      1344  TIP3      OH2           -19.3916949752      -19.5420293232       -0.0489771492  SOLV      1333            0.0000000000
      4118      1344  TIP3      H1            -20.1735049752      -19.7282293232       -0.5689171492  SOLV      1333            0.0000000000
      4119      1344  TIP3      H2            -19.4637049752      -18.6125993232        0.1682728508  SOLV      1333            0.0000000000
      4120      1345  TIP3      OH2            -4.9856549752      -25.6555893232      -10.0182571492  SOLV      1334            0.0000000000
      4121      1345  TIP3      H1             -4.8965449752      -24.7117693232      -10.1505471492  SOLV      1334            0.0000000000
      4122      1345  TIP3      H2             -5.6238949752      -25.9309493232      -10.6763171492  SOLV      1334            0.0000000000
      4123      1346  TIP3      OH2            -6.0525249752      -26.4005193232       -6.5994371492  SOLV      1335            0.0000000000
      4124      1346  TIP3      H1             -6.0907749752      -27.0468893232       -5.8944771492  SOLV      1335            0.0000000000
      4125      1346  TIP3      H2             -6.3748749752      -26.8670793232       -7.3705671492  SOLV      1335            0.0000000000
      4126      1347  TIP3      OH2           -13.6840249752      -26.7863093232       -5.0064471492  SOLV      1336            0.0000000000
      4127      1347  TIP3      H1            -13.6428149752      -27.4119793232       -4.2832071492  SOLV      1336            0.0000000000
      4128      1347  TIP3      H2            -12.9812549752      -26.1624493232       -4.8244071492  SOLV      1336            0.0000000000
      4129      1348  TIP3      OH2            -2.3465049752      -23.4614793232       -8.2979271492  SOLV      1337            0.0000000000
      4130      1348  TIP3      H1             -2.7872349752      -24.1818793232       -7.8473671492  SOLV      1337            0.0000000000
      4131      1348  TIP3      H2             -2.3595349752      -22.7407593232       -7.6681571492  SOLV      1337            0.0000000000
      4132      1349  TIP3      OH2           -12.7607149752      -22.3364193232       -6.4715371492  SOLV      1338            0.0000000000
      4133      1349  TIP3      H1            -13.1301949752      -23.1383693232       -6.8411071492  SOLV      1338            0.0000000000
      4134      1349  TIP3      H2            -11.8196049752      -22.5049293232       -6.4251971492  SOLV      1338            0.0000000000
      4135      1350  TIP3      OH2           -16.1506649752      -28.6761593232      -11.0786571492  SOLV      1339            0.0000000000
      4136      1350  TIP3      H1            -16.5983249752      -27.8302893232      -11.0970071492  SOLV      1339            0.0000000000
      4137      1350  TIP3      H2            -16.7115449752      -29.2557393232      -11.5941471492  SOLV      1339            0.0000000000
      4138      1351  TIP3      OH2           -15.4400549752      -26.5141993232       -8.9528571492  SOLV      1340            0.0000000000
      4139      1351  TIP3      H1            -15.2267049752      -27.2840393232       -8.4255571492  SOLV      1340            0.0000000000
      4140      1351  TIP3      H2            -14.7022949752      -26.4245293232       -9.5560971492  SOLV      1340            0.0000000000
      4141      1352  TIP3      OH2            -5.2349549752      -18.3573093232       -8.0858871492  SOLV      1341            0.0000000000
      4142      1352  TIP3      H1             -4.6153149752      -19.0338393232       -8.3589671492  SOLV      1341            0.0000000000
      4143      1352  TIP3      H2             -5.4432149752      -18.5752293232       -7.1773971492  SOLV      1341            0.0000000000
      4144      1353  TIP3      OH2            -7.6630849752      -23.9683793232       -6.1933371492  SOLV      1342            0.0000000000
      4145      1353  TIP3      H1             -7.3592949752      -24.6542393232       -6.7879271492  SOLV      1342            0.0000000000
      4146      1353  TIP3      H2             -6.9416849752      -23.8495093232       -5.5755371492  SOLV      1342            0.0000000000
      4147      1354  TIP3      OH2             0.9998950248      -32.3668493232       -5.3327171492  SOLV      1343            0.0000000000
      4148      1354  TIP3      H1              1.0491150248      -31.7567293232       -4.5968071492  SOLV      1343            0.0000000000
      4149      1354  TIP3      H2              1.4254050248      -31.9057593232       -6.0556071492  SOLV      1343            0.0000000000
      4150      1355  TIP3      OH2            -4.5223849752      -29.5741393232       -5.8658571492  SOLV      1344            0.0000000000
      4151      1355  TIP3      H1             -4.3797949752      -30.5204393232       -5.8456971492  SOLV      1344            0.0000000000
      4152      1355  TIP3      H2             -4.6284849752      -29.3671593232       -6.7943671492  SOLV      1344            0.0000000000
      4153      1356  TIP3      OH2           -11.3675549752      -31.4724993232       -8.5933771492  SOLV      1345            0.0000000000
      4154      1356  TIP3      H1            -11.3244449752      -30.6126493232       -9.0117471492  SOLV      1345            0.0000000000
      4155      1356  TIP3      H2            -11.8251449752      -32.0250293232       -9.2270571492  SOLV      1345            0.0000000000
      4156      1357  TIP3      OH2            -3.6452849752      -31.3419393232      -10.1925471492  SOLV      1346            0.0000000000
      4157      1357  TIP3      H1             -2.9988549752      -31.6706193232       -9.5677871492  SOLV      1346            0.0000000000
      4158      1357  TIP3      H2             -3.1353449752      -30.8240393232      -10.8154071492  SOLV      1346            0.0000000000
      4159      1358  TIP3      OH2           -14.7474049752      -29.0759193232       -7.8312371492  SOLV      1347            0.0000000000
      4160      1358  TIP3      H1            -14.0937449752      -29.6257493232       -7.3992271492  SOLV      1347            0.0000000000
      4161      1358  TIP3      H2            -14.7234749752      -29.3500193232       -8.7480371492  SOLV      1347            0.0000000000
      4162      1359  TIP3      OH2            -9.5909549752      -27.5257893232       -8.6160871492  SOLV      1348            0.0000000000
      4163      1359  TIP3      H1             -8.9748549752      -28.0522493232       -8.1066871492  SOLV      1348            0.0000000000
      4164      1359  TIP3      H2            -10.1770749752      -28.1659193232       -9.0197271492  SOLV      1348            0.0000000000
      4165      1360  TIP3      OH2             1.3913550248      -30.8889293232       -3.0967371492  SOLV      1349            0.0000000000
      4166      1360  TIP3      H1              0.7028150248      -30.2308593232       -3.1920771492  SOLV      1349            0.0000000000
      4167      1360  TIP3      H2              1.4068150248      -31.0861393232       -2.1601971492  SOLV      1349            0.0000000000
      4168      1361  TIP3      OH2           -12.5573649752      -32.5546593232       -4.5192971492  SOLV      1350            0.0000000000
      4169      1361  TIP3      H1            -12.7761949752      -32.0245993232       -5.2856971492  SOLV      1350            0.0000000000
      4170      1361  TIP3      H2            -13.2252749752      -32.3281093232       -3.8721571492  SOLV      1350            0.0000000000
      4171      1362  TIP3      OH2            -5.1883849752      -23.0545493232      -10.9753871492  SOLV      1351            0.0000000000
      4172      1362  TIP3      H1             -5.4838749752      -23.3773193232      -11.8266971492  SOLV      1351            0.0000000000
      4173      1362  TIP3      H2             -5.5126049752      -22.1548793232      -10.9341271492  SOLV      1351            0.0000000000
      4174      1363  TIP3      OH2            -9.9882249752      -24.8790893232       -4.2319271492  SOLV      1352            0.0000000000
      4175      1363  TIP3      H1            -10.7283149752      -24.2809393232       -4.1284071492  SOLV      1352            0.0000000000
      4176      1363  TIP3      H2             -9.2742749752      -24.3251293232       -4.5475671492  SOLV      1352            0.0000000000
      4177      1364  TIP3      OH2            -1.8814449752      -32.0510093232       -8.2119571492  SOLV      1353            0.0000000000
      4178      1364  TIP3      H1             -2.0966449752      -32.8166693232       -7.6793571492  SOLV      1353            0.0000000000
      4179      1364  TIP3      H2             -1.2257049752      -31.5785493232       -7.6991071492  SOLV      1353            0.0000000000
      4180      1365  TIP3      OH2           -12.9636349752      -30.6624793232       -6.5670771492  SOLV      1354            0.0000000000
      4181      1365  TIP3      H1            -12.3500049752      -30.0297193232       -6.1938371492  SOLV      1354            0.0000000000
      4182      1365  TIP3      H2            -12.4515649752      -31.1349793232       -7.2233871492  SOLV      1354            0.0000000000
      4183      1366  TIP3      OH2           -11.5807949752      -22.9147893232       -3.4447771492  SOLV      1355            0.0000000000
      4184      1366  TIP3      H1            -11.5860349752      -22.0354393232       -3.8228471492  SOLV      1355            0.0000000000
      4185      1366  TIP3      H2            -12.4343849752      -22.9983793232       -3.0197871492  SOLV      1355            0.0000000000
      4186      1367  TIP3      OH2           -15.4597049752      -23.2439993232      -12.6628471492  SOLV      1356            0.0000000000
      4187      1367  TIP3      H1            -15.7316149752      -23.0148993232      -13.5515571492  SOLV      1356            0.0000000000
      4188      1367  TIP3      H2            -15.4141349752      -22.4061193232      -12.2023171492  SOLV      1356            0.0000000000
      4189      1368  TIP3      OH2            -1.8347349752      -21.6224093232       -5.9499971492  SOLV      1357            0.0000000000
      4190      1368  TIP3      H1             -2.7763649752      -21.5640193232       -5.7883071492  SOLV      1357            0.0000000000
      4191      1368  TIP3      H2             -1.5581249752      -20.7163593232       -6.0870271492  SOLV      1357            0.0000000000
      4192      1369  TIP3      OH2            -3.5826149752      -19.8410593232       -9.3248371492  SOLV      1358            0.0000000000
      4193      1369  TIP3      H1             -3.1573849752      -20.5482693232       -9.8098771492  SOLV      1358            0.0000000000
      4194      1369  TIP3      H2             -3.2656149752      -19.0397893232       -9.7416171492  SOLV      1358            0.0000000000
      4195      1370  TIP3      OH2            -2.4229649752      -21.9402093232      -10.8161771492  SOLV      1359            0.0000000000
      4196      1370  TIP3      H1             -2.6804849752      -22.6301993232      -11.4275871492  SOLV      1359            0.0000000000
      4197      1370  TIP3      H2             -2.3518849752      -22.3830893232       -9.9705871492  SOLV      1359            0.0000000000
      4198      1371  TIP3      OH2            -0.7369449752      -23.3735393232       -2.3388271492  SOLV      1360            0.0000000000
      4199      1371  TIP3      H1             -0.5973149752      -23.9652893232       -3.0781271492  SOLV      1360            0.0000000000
      4200      1371  TIP3      H2             -0.5696649752      -22.5009493232       -2.6949471492  SOLV      1360            0.0000000000
      4201      1372  TIP3      OH2            -6.2644049752      -26.4115893232      -12.5662271492  SOLV      1361            0.0000000000
      4202      1372  TIP3      H1             -6.9758549752      -25.8766193232      -12.9181771492  SOLV      1361            0.0000000000
      4203      1372  TIP3      H2             -5.5734449752      -26.3563793232      -13.2263371492  SOLV      1361            0.0000000000
      4204      1373  TIP3      OH2            -6.2104849752      -27.9541593232      -15.5277271492  SOLV      1362            0.0000000000
      4205      1373  TIP3      H1             -5.5094949752      -27.9314693232      -14.8763271492  SOLV      1362            0.0000000000
      4206      1373  TIP3      H2             -5.9081949752      -28.5821893232      -16.1837971492  SOLV      1362            0.0000000000
      4207      1374  TIP3      OH2             1.1049850248      -27.0337393232       -4.2727871492  SOLV      1363            0.0000000000
      4208      1374  TIP3      H1              0.4523950248      -26.3391793232       -4.1836971492  SOLV      1363            0.0000000000
      4209      1374  TIP3      H2              1.5700150248      -26.8236493232       -5.0826271492  SOLV      1363            0.0000000000
      4210      1375  TIP3      OH2            -2.8586349752      -26.2022593232      -11.6146371492  SOLV      1364            0.0000000000
      4211      1375  TIP3      H1             -3.5905349752      -25.9738893232      -11.0415771492  SOLV      1364            0.0000000000
      4212      1375  TIP3      H2             -2.4114149752      -26.9159893232      -11.1598871492  SOLV      1364            0.0000000000
      4213      1376  TIP3      OH2            -2.9612849752      -28.0279993232       -2.5469371492  SOLV      1365            0.0000000000
      4214      1376  TIP3      H1             -2.8813749752      -27.2645593232       -1.9750871492  SOLV      1365            0.0000000000
      4215      1376  TIP3      H2             -3.5625149752      -27.7487593232       -3.2374271492  SOLV      1365            0.0000000000
      4216      1377  TIP3      OH2           -11.2132649752      -25.5716393232       -9.7321371492  SOLV      1366            0.0000000000
      4217      1377  TIP3      H1            -11.5437449752      -25.9422993232      -10.5504371492  SOLV      1366            0.0000000000
      4218      1377  TIP3      H2            -10.6248549752      -26.2422393232       -9.3853071492  SOLV      1366            0.0000000000
      4219      1378  TIP3      OH2            -9.8465149752      -22.1435793232       -7.0509171492  SOLV      1367            0.0000000000
      4220      1378  TIP3      H1             -9.9413849752      -22.7222693232       -7.8074571492  SOLV      1367            0.0000000000
      4221      1378  TIP3      H2             -9.1171549752      -22.5150093232       -6.5546371492  SOLV      1367            0.0000000000
      4222      1379  TIP3      OH2           -10.8467149752      -26.8030793232       -6.0986371492  SOLV      1368            0.0000000000
      4223      1379  TIP3      H1            -10.2814649752      -26.6816593232       -6.8615171492  SOLV      1368            0.0000000000
      4224      1379  TIP3      H2            -10.5278249752      -26.1655793232       -5.4597871492  SOLV      1368            0.0000000000
      4225      1380  TIP3      OH2            -4.5374949752      -21.2998893232       -5.3645871492  SOLV      1369            0.0000000000
      4226      1380  TIP3      H1             -4.7778349752      -20.6375793232       -4.7166671492  SOLV      1369            0.0000000000
      4227      1380  TIP3      H2             -4.7356749752      -22.1343693232       -4.9396271492  SOLV      1369            0.0000000000
      4228      1381  TIP3      OH2            -9.9666449752      -22.4038093232       -1.3814471492  SOLV      1370            0.0000000000
      4229      1381  TIP3      H1            -10.2778949752      -21.6214893232       -0.9261271492  SOLV      1370            0.0000000000
      4230      1381  TIP3      H2            -10.6166249752      -22.5568993232       -2.0672471492  SOLV      1370            0.0000000000
      4231      1382  TIP3      OH2            -3.9876849752      -27.0399693232      -13.9295171492  SOLV      1371            0.0000000000
      4232      1382  TIP3      H1             -3.4081349752      -26.8899393232      -13.1826271492  SOLV      1371            0.0000000000
      4233      1382  TIP3      H2             -3.5736849752      -26.5692293232      -14.6528771492  SOLV      1371            0.0000000000
      4234      1383  TIP3      OH2           -13.0466549752      -26.2056993232       -2.1528771492  SOLV      1372            0.0000000000
      4235      1383  TIP3      H1            -12.9763349752      -25.5550193232       -1.4543771492  SOLV      1372            0.0000000000
      4236      1383  TIP3      H2            -13.9374349752      -26.1029493232       -2.4877871492  SOLV      1372            0.0000000000
      4237      1384  TIP3      OH2            -6.2611949752      -20.3031193232      -10.4942071492  SOLV      1373            0.0000000000
      4238      1384  TIP3      H1             -5.7874349752      -20.0074893232       -9.7167871492  SOLV      1373            0.0000000000
      4239      1384  TIP3      H2             -6.8242649752      -19.5649593232      -10.7272471492  SOLV      1373            0.0000000000
      4240      1385  TIP3      OH2           -11.7270549752      -20.3323093232       -0.6180671492  SOLV      1374            0.0000000000
      4241      1385  TIP3      H1            -11.7195249752      -20.4683393232       -1.5655171492  SOLV      1374            0.0000000000
      4242      1385  TIP3      H2            -12.6430149752      -20.4494993232       -0.3660671492  SOLV      1374            0.0000000000
      4243      1386  TIP3      OH2           -12.2229949752      -26.5022093232      -12.1428571492  SOLV      1375            0.0000000000
      4244      1386  TIP3      H1            -12.5148649752      -25.7340393232      -12.6337271492  SOLV      1375            0.0000000000
      4245      1386  TIP3      H2            -12.8974749752      -27.1615893232      -12.3057171492  SOLV      1375            0.0000000000
      4246      1387  TIP3      OH2             0.9002950248      -20.9236893232      -15.7401571492  SOLV      1376            0.0000000000
      4247      1387  TIP3      H1              0.9736450248      -19.9846693232      -15.5696271492  SOLV      1376            0.0000000000
      4248      1387  TIP3      H2              1.8058050248      -21.2288293232      -15.7964271492  SOLV      1376            0.0000000000
      4249      1388  TIP3      OH2           -16.1299849752      -24.1392893232       -3.3278771492  SOLV      1377            0.0000000000
      4250      1388  TIP3      H1            -16.6311449752      -24.1673493232       -4.1429071492  SOLV      1377            0.0000000000
      4251      1388  TIP3      H2            -16.1246149752      -25.0449693232       -3.0181471492  SOLV      1377            0.0000000000
      4252      1389  TIP3      OH2           -16.3797149752      -21.3589093232       -6.4438571492  SOLV      1378            0.0000000000
      4253      1389  TIP3      H1            -15.4336549752      -21.5032093232       -6.4629071492  SOLV      1378            0.0000000000
      4254      1389  TIP3      H2            -16.4920849752      -20.5746293232       -5.9067371492  SOLV      1378            0.0000000000
      4255      1390  TIP3      OH2             1.8181350248      -20.6929393232       -0.7614871492  SOLV      1379            0.0000000000
      4256      1390  TIP3      H1              1.7688150248      -21.6481293232       -0.7987271492  SOLV      1379            0.0000000000
      4257      1390  TIP3      H2              0.9913650248      -20.4254093232       -0.3601071492  SOLV      1379            0.0000000000
      4258      1391  TIP3      OH2            -7.2034649752      -21.1190193232       -1.8853471492  SOLV      1380            0.0000000000
      4259      1391  TIP3      H1             -7.1160049752      -20.2925593232       -1.4104371492  SOLV      1380            0.0000000000
      4260      1391  TIP3      H2             -8.0669549752      -21.4486393232       -1.6364171492  SOLV      1380            0.0000000000
      4261      1392  TIP3      OH2            -6.7888849752      -17.3466493232      -12.0792871492  SOLV      1381            0.0000000000
      4262      1392  TIP3      H1             -6.8642849752      -17.4679293232      -13.0257671492  SOLV      1381            0.0000000000
      4263      1392  TIP3      H2             -6.7560149752      -16.3973793232      -11.9608271492  SOLV      1381            0.0000000000
      4264      1393  TIP3      OH2           -13.1355049752      -18.5579493232      -10.2983871492  SOLV      1382            0.0000000000
      4265      1393  TIP3      H1            -12.9834649752      -18.9059093232       -9.4197371492  SOLV      1382            0.0000000000
      4266      1393  TIP3      H2            -13.9864649752      -18.9142193232      -10.5536671492  SOLV      1382            0.0000000000
      4267      1394  TIP3      OH2            -3.6872849752      -18.1926293232      -15.0770471492  SOLV      1383            0.0000000000
      4268      1394  TIP3      H1             -3.3124449752      -18.9370193232      -15.5477871492  SOLV      1383            0.0000000000
      4269      1394  TIP3      H2             -3.6829149752      -18.4625693232      -14.1587171492  SOLV      1383            0.0000000000
      4270      1395  TIP3      OH2            -4.0184749752      -18.2669193232      -12.3278271492  SOLV      1384            0.0000000000
      4271      1395  TIP3      H1             -4.9534949752      -18.1667293232      -12.1491271492  SOLV      1384            0.0000000000
      4272      1395  TIP3      H2             -3.7382849752      -18.9763193232      -11.7495071492  SOLV      1384            0.0000000000
      4273      1396  TIP3      OH2            -1.0298849752      -29.1996893232       -0.2812671492  SOLV      1385            0.0000000000
      4274      1396  TIP3      H1             -1.4372049752      -28.7191293232       -1.0019371492  SOLV      1385            0.0000000000
      4275      1396  TIP3      H2             -0.9893149752      -30.1050893232       -0.5891871492  SOLV      1385            0.0000000000
      4276      1397  TIP3      OH2           -13.8809349752      -22.8157493232       -2.2845971492  SOLV      1386            0.0000000000
      4277      1397  TIP3      H1            -13.6648049752      -23.1771893232       -1.4250171492  SOLV      1386            0.0000000000
      4278      1397  TIP3      H2            -14.7364649752      -23.1903693232       -2.4942471492  SOLV      1386            0.0000000000
      4279      1398  TIP3      OH2            -3.2728649752      -30.8681393232       -2.0610271492  SOLV      1387            0.0000000000
      4280      1398  TIP3      H1             -3.7869149752      -30.9939193232       -1.2634271492  SOLV      1387            0.0000000000
      4281      1398  TIP3      H2             -3.4283949752      -29.9558293232       -2.3054071492  SOLV      1387            0.0000000000
      4282      1399  TIP3      OH2            -2.5103749752      -26.0071393232      -16.2997271492  SOLV      1388            0.0000000000
      4283      1399  TIP3      H1             -2.4682949752      -26.2297493232      -17.2297271492  SOLV      1388            0.0000000000
      4284      1399  TIP3      H2             -1.6611649752      -25.6084293232      -16.1097371492  SOLV      1388            0.0000000000
      4285      1400  TIP3      OH2           -11.1711249752      -29.3802493232       -5.1941571492  SOLV      1389            0.0000000000
      4286      1400  TIP3      H1            -11.8129149752      -29.4205193232       -4.4851471492  SOLV      1389            0.0000000000
      4287      1400  TIP3      H2            -11.1339249752      -28.4537793232       -5.4318571492  SOLV      1389            0.0000000000
      4288      1401  TIP3      OH2           -11.1742149752      -29.1592393232      -10.2821571492  SOLV      1390            0.0000000000
      4289      1401  TIP3      H1            -12.0669249752      -29.4996293232      -10.3407771492  SOLV      1390            0.0000000000
      4290      1401  TIP3      H2            -10.7235549752      -29.5361493232      -11.0378371492  SOLV      1390            0.0000000000
      4291      1402  TIP3      OH2            -5.6386649752      -28.7432093232      -11.4650771492  SOLV      1391            0.0000000000
      4292      1402  TIP3      H1             -6.0476349752      -27.9283493232      -11.7565971492  SOLV      1391            0.0000000000
      4293      1402  TIP3      H2             -4.9180449752      -28.8831993232      -12.0793671492  SOLV      1391            0.0000000000
      4294      1403  TIP3      OH2            -6.5365049752      -28.5675693232        0.0229928508  SOLV      1392            0.0000000000
      4295      1403  TIP3      H1             -7.0991249752      -29.2724093232        0.3437728508  SOLV      1392            0.0000000000
      4296      1403  TIP3      H2             -5.7101649752      -28.6883793232        0.4907528508  SOLV      1392            0.0000000000
      4297      1404  TIP3      OH2            -4.6338949752      -29.2971693232       -8.6511071492  SOLV      1393            0.0000000000
      4298      1404  TIP3      H1             -4.8294449752      -28.6914893232       -9.3660471492  SOLV      1393            0.0000000000
      4299      1404  TIP3      H2             -4.4526349752      -30.1306493232       -9.0854771492  SOLV      1393            0.0000000000
      4300      1405  TIP3      OH2           -13.4210749752      -29.0598993232       -3.3269571492  SOLV      1394            0.0000000000
      4301      1405  TIP3      H1            -13.4591349752      -28.6597393232       -2.4582471492  SOLV      1394            0.0000000000
      4302      1405  TIP3      H2            -13.9119649752      -29.8766593232       -3.2366671492  SOLV      1394            0.0000000000
      4303      1406  TIP3      OH2           -10.0553349752      -31.6856693232      -16.5283571492  SOLV      1395            0.0000000000
      4304      1406  TIP3      H1            -10.4862649752      -32.1306593232      -15.7986171492  SOLV      1395            0.0000000000
      4305      1406  TIP3      H2            -10.7734649752      -31.3140393232      -17.0406071492  SOLV      1395            0.0000000000
      4306      1407  TIP3      OH2           -16.8129949752      -31.9437193232       -9.4764871492  SOLV      1396            0.0000000000
      4307      1407  TIP3      H1            -16.1822249752      -31.9725093232       -8.7570971492  SOLV      1396            0.0000000000
      4308      1407  TIP3      H2            -16.3635649752      -32.3688493232      -10.2068971492  SOLV      1396            0.0000000000
      4309      1408  TIP3      OH2           -15.5387849752      -31.1975193232      -14.0524471492  SOLV      1397            0.0000000000
      4310      1408  TIP3      H1            -15.0646149752      -30.6065293232      -14.6373571492  SOLV      1397            0.0000000000
      4311      1408  TIP3      H2            -16.2561449752      -30.6672293232      -13.7054371492  SOLV      1397            0.0000000000
      4312      1409  TIP3      OH2            -5.3699749752      -27.6590393232       -3.9798671492  SOLV      1398            0.0000000000
      4313      1409  TIP3      H1             -5.0464949752      -28.2900693232       -4.6228171492  SOLV      1398            0.0000000000
      4314      1409  TIP3      H2             -5.8100449752      -28.1938193232       -3.3191271492  SOLV      1398            0.0000000000
      4315      1410  TIP3      OH2            -8.5926849752      -31.7314893232       -9.1957471492  SOLV      1399            0.0000000000
      4316      1410  TIP3      H1             -9.5035749752      -31.6748093232       -8.9071471492  SOLV      1399            0.0000000000
      4317      1410  TIP3      H2             -8.0873949752      -31.7919393232       -8.3850271492  SOLV      1399            0.0000000000
      4318      1411  TIP3      OH2           -13.7643449752      -30.1028593232      -10.3689871492  SOLV      1400            0.0000000000
      4319      1411  TIP3      H1            -14.6535449752      -30.0033093232      -10.7090271492  SOLV      1400            0.0000000000
      4320      1411  TIP3      H2            -13.4678549752      -30.9445593232      -10.7151971492  SOLV      1400            0.0000000000
      4321      1412  TIP3      OH2           -10.1111649752      -30.1025993232      -12.7125271492  SOLV      1401            0.0000000000
      4322      1412  TIP3      H1             -9.1796149752      -29.9735993232      -12.5342171492  SOLV      1401            0.0000000000
      4323      1412  TIP3      H2            -10.3261349752      -29.4331693232      -13.3620571492  SOLV      1401            0.0000000000
      4324      1413  TIP3      OH2           -11.4371449752      -28.9083793232      -15.1459171492  SOLV      1402            0.0000000000
      4325      1413  TIP3      H1            -11.9796349752      -29.2879993232      -15.8371571492  SOLV      1402            0.0000000000
      4326      1413  TIP3      H2            -10.6036549752      -28.7139093232      -15.5745071492  SOLV      1402            0.0000000000
      4327      1414  TIP3      OH2            -0.8999849752      -16.8253193232        0.3451928508  SOLV      1403            0.0000000000
      4328      1414  TIP3      H1             -0.7001149752      -16.4011293232       -0.4892771492  SOLV      1403            0.0000000000
      4329      1414  TIP3      H2             -0.2446149752      -16.4814993232        0.9522328508  SOLV      1403            0.0000000000
      4330      1415  TIP3      OH2           -13.3020049752      -24.3511893232       -0.0467571492  SOLV      1404            0.0000000000
      4331      1415  TIP3      H1            -12.5697649752      -24.0965993232        0.5146928508  SOLV      1404            0.0000000000
      4332      1415  TIP3      H2            -14.0821349752      -24.1466493232        0.4687828508  SOLV      1404            0.0000000000
      4333      1416  TIP3      OH2            -7.2727149752      -28.9441893232       -7.3087871492  SOLV      1405            0.0000000000
      4334      1416  TIP3      H1             -6.7083749752      -29.4905293232       -7.8558271492  SOLV      1405            0.0000000000
      4335      1416  TIP3      H2             -7.4203749752      -29.4659993232       -6.5200271492  SOLV      1405            0.0000000000
      4336      1417  TIP3      OH2            -8.6461249752      -30.5555793232       -4.8947471492  SOLV      1406            0.0000000000
      4337      1417  TIP3      H1             -9.4815949752      -30.1016293232       -4.7845071492  SOLV      1406            0.0000000000
      4338      1417  TIP3      H2             -8.1220649752      -30.2797293232       -4.1427571492  SOLV      1406            0.0000000000
      4339      1418  TIP3      OH2            -8.1018649752      -24.3428093232      -13.2101071492  SOLV      1407            0.0000000000
      4340      1418  TIP3      H1             -8.8467649752      -24.8502793232      -13.5323171492  SOLV      1407            0.0000000000
      4341      1418  TIP3      H2             -8.2361449752      -24.2940093232      -12.2636271492  SOLV      1407            0.0000000000
      4342      1419  TIP3      OH2            -0.9519749752      -25.2099893232       -4.4233471492  SOLV      1408            0.0000000000
      4343      1419  TIP3      H1             -0.3100949752      -24.7533593232       -4.9671271492  SOLV      1408            0.0000000000
      4344      1419  TIP3      H2             -1.7822849752      -25.0967493232       -4.8859371492  SOLV      1408            0.0000000000
      4345      1420  TIP3      OH2            -4.2041849752      -31.5288193232      -15.0108471492  SOLV      1409            0.0000000000
      4346      1420  TIP3      H1             -5.1427649752      -31.4172593232      -15.1619671492  SOLV      1409            0.0000000000
      4347      1420  TIP3      H2             -3.9069749752      -30.6721293232      -14.7042771492  SOLV      1409            0.0000000000
      4348      1421  TIP3      OH2            -6.5826549752      -24.1584793232       -1.9731971492  SOLV      1410            0.0000000000
      4349      1421  TIP3      H1             -6.9280449752      -24.5402393232       -1.1662371492  SOLV      1410            0.0000000000
      4350      1421  TIP3      H2             -6.7826449752      -23.2251193232       -1.9019071492  SOLV      1410            0.0000000000
      4351      1422  TIP3      OH2            -3.4858349752      -29.6615493232      -13.3501071492  SOLV      1411            0.0000000000
      4352      1422  TIP3      H1             -2.5939349752      -29.7990493232      -13.0309871492  SOLV      1411            0.0000000000
      4353      1422  TIP3      H2             -3.4294749752      -28.8709393232      -13.8867571492  SOLV      1411            0.0000000000
      4354      1423  TIP3      OH2           -12.9770349752      -25.0478093232       -7.4403171492  SOLV      1412            0.0000000000
      4355      1423  TIP3      H1            -12.2323149752      -25.0502393232       -8.0416671492  SOLV      1412            0.0000000000
      4356      1423  TIP3      H2            -12.8993749752      -25.8714293232       -6.9588071492  SOLV      1412            0.0000000000
      4357      1424  TIP3      OH2            -5.9764549752      -22.8843793232      -14.1846471492  SOLV      1413            0.0000000000
      4358      1424  TIP3      H1             -6.2716149752      -22.0575893232      -13.8031671492  SOLV      1413            0.0000000000
      4359      1424  TIP3      H2             -6.6794549752      -23.5036893232      -13.9885071492  SOLV      1413            0.0000000000
      4360      1425  TIP3      OH2           -15.9690649752      -26.5871193232       -2.1254671492  SOLV      1414            0.0000000000
      4361      1425  TIP3      H1            -15.7462049752      -27.0051593232       -1.2937171492  SOLV      1414            0.0000000000
      4362      1425  TIP3      H2            -16.5710549752      -27.1996193232       -2.5481871492  SOLV      1414            0.0000000000
      4363      1426  TIP3      OH2            -8.9525749752      -27.0701293232        0.0875028508  SOLV      1415            0.0000000000
      4364      1426  TIP3      H1             -9.2484949752      -27.2358293232       -0.8075871492  SOLV      1415            0.0000000000
      4365      1426  TIP3      H2             -8.0210549752      -27.2900993232        0.0768928508  SOLV      1415            0.0000000000
      4366      1427  TIP3      OH2            -4.3322949752      -21.6969293232       -2.0226971492  SOLV      1416            0.0000000000
      4367      1427  TIP3      H1             -5.2328649752      -21.5136693232       -2.2903071492  SOLV      1416            0.0000000000
      4368      1427  TIP3      H2             -4.2981849752      -21.4379993232       -1.1018171492  SOLV      1416            0.0000000000
      4369      1428  TIP3      OH2             1.3990350248      -29.4521393232      -13.6554371492  SOLV      1417            0.0000000000
      4370      1428  TIP3      H1              0.8446650248      -29.8483393232      -14.3276871492  SOLV      1417            0.0000000000
      4371      1428  TIP3      H2              1.4993950248      -28.5416193232      -13.9331071492  SOLV      1417            0.0000000000
      4372      1429  TIP3      OH2             1.3622350248      -23.6519693232       -0.8182871492  SOLV      1418            0.0000000000
      4373      1429  TIP3      H1              0.5110850248      -23.4135893232       -1.1856471492  SOLV      1418            0.0000000000
      4374      1429  TIP3      H2              1.9525750248      -23.6686493232       -1.5715771492  SOLV      1418            0.0000000000
      4375      1430  TIP3      OH2            -0.3057949752      -20.6660993232      -13.1902271492  SOLV      1419            0.0000000000
      4376      1430  TIP3      H1             -0.6786849752      -21.4917193232      -12.8811671492  SOLV      1419            0.0000000000
      4377      1430  TIP3      H2             -0.0284449752      -20.8491593232      -14.0878871492  SOLV      1419            0.0000000000
      4378      1431  TIP3      OH2            -3.1454049752      -25.8581493232       -6.1690371492  SOLV      1420            0.0000000000
      4379      1431  TIP3      H1             -4.0737149752      -26.0899593232       -6.1961071492  SOLV      1420            0.0000000000
      4380      1431  TIP3      H2             -2.6942949752      -26.6351693232       -6.4991571492  SOLV      1420            0.0000000000
      4381      1432  TIP3      OH2           -10.6020949752      -21.5299893232      -10.0361671492  SOLV      1421            0.0000000000
      4382      1432  TIP3      H1            -10.0748749752      -20.7565493232      -10.2362871492  SOLV      1421            0.0000000000
      4383      1432  TIP3      H2            -11.4822449752      -21.3050693232      -10.3377671492  SOLV      1421            0.0000000000
      4384      1433  TIP3      OH2           -14.8473249752      -26.6675793232      -15.4489271492  SOLV      1422            0.0000000000
      4385      1433  TIP3      H1            -14.2313349752      -26.0408593232      -15.0694471492  SOLV      1422            0.0000000000
      4386      1433  TIP3      H2            -15.7090649752      -26.3515993232      -15.1772771492  SOLV      1422            0.0000000000
      4387      1434  TIP3      OH2            -9.1748649752      -23.8669993232      -10.4597371492  SOLV      1423            0.0000000000
      4388      1434  TIP3      H1             -9.4158649752      -22.9415593232      -10.4182071492  SOLV      1423            0.0000000000
      4389      1434  TIP3      H2             -9.9155049752      -24.3258693232      -10.0633471492  SOLV      1423            0.0000000000
      4390      1435  TIP3      OH2            -8.6602049752      -19.7176393232       -4.1446271492  SOLV      1424            0.0000000000
      4391      1435  TIP3      H1             -8.2977349752      -18.8630793232       -4.3781871492  SOLV      1424            0.0000000000
      4392      1435  TIP3      H2             -8.1286849752      -20.0094793232       -3.4039971492  SOLV      1424            0.0000000000
      4393      1436  TIP3      OH2           -10.4917849752      -18.8452393232      -10.9145171492  SOLV      1425            0.0000000000
      4394      1436  TIP3      H1            -11.4417349752      -18.7394993232      -10.8631871492  SOLV      1425            0.0000000000
      4395      1436  TIP3      H2            -10.1399749752      -18.0244993232      -10.5697671492  SOLV      1425            0.0000000000
      4396      1437  TIP3      OH2            -5.1161249752      -23.6185693232       -4.4440671492  SOLV      1426            0.0000000000
      4397      1437  TIP3      H1             -5.5419949752      -23.8463993232       -3.6176671492  SOLV      1426            0.0000000000
      4398      1437  TIP3      H2             -4.5355449752      -24.3573893232       -4.6265371492  SOLV      1426            0.0000000000
      4399      1438  TIP3      OH2            -2.9132349752      -22.6895193232      -15.3701671492  SOLV      1427            0.0000000000
      4400      1438  TIP3      H1             -2.5599249752      -23.0695393232      -14.5658171492  SOLV      1427            0.0000000000
      4401      1438  TIP3      H2             -3.8618849752      -22.7830393232      -15.2832371492  SOLV      1427            0.0000000000
      4402      1439  TIP3      OH2            -2.4577049752      -19.0666193232       -1.9745871492  SOLV      1428            0.0000000000
      4403      1439  TIP3      H1             -3.0593849752      -19.6223293232       -2.4699571492  SOLV      1428            0.0000000000
      4404      1439  TIP3      H2             -2.1763349752      -18.3996393232       -2.6008471492  SOLV      1428            0.0000000000
      4405      1440  TIP3      OH2             1.5902050248      -18.2102693232      -15.1691471492  SOLV      1429            0.0000000000
      4406      1440  TIP3      H1              2.3339950248      -17.6242193232      -15.3089871492  SOLV      1429            0.0000000000
      4407      1440  TIP3      H2              0.8960150248      -17.6416893232      -14.8359071492  SOLV      1429            0.0000000000
      4408      1441  TIP3      OH2           -14.3351149752      -31.8338493232       -2.5673271492  SOLV      1430            0.0000000000
      4409      1441  TIP3      H1            -15.2278849752      -31.4953093232       -2.6349271492  SOLV      1430            0.0000000000
      4410      1441  TIP3      H2            -14.4338349752      -32.6892393232       -2.1492471492  SOLV      1430            0.0000000000
      4411      1442  TIP3      OH2            -2.0473049752      -24.0173193232      -13.1433771492  SOLV      1431            0.0000000000
      4412      1442  TIP3      H1             -2.3245449752      -24.7453893232      -12.5872671492  SOLV      1431            0.0000000000
      4413      1442  TIP3      H2             -1.1200049752      -23.8981193232      -12.9381171492  SOLV      1431            0.0000000000
      4414      1443  TIP3      OH2           -14.6839149752      -20.0294093232       -4.1323871492  SOLV      1432            0.0000000000
      4415      1443  TIP3      H1            -14.4668849752      -20.9611693232       -4.1634171492  SOLV      1432            0.0000000000
      4416      1443  TIP3      H2            -14.4375649752      -19.7549093232       -3.2491071492  SOLV      1432            0.0000000000
      4417      1444  TIP3      OH2            -8.8224549752      -21.5779093232      -16.9231671492  SOLV      1433            0.0000000000
      4418      1444  TIP3      H1             -8.5834749752      -22.3260993232      -17.4702771492  SOLV      1433            0.0000000000
      4419      1444  TIP3      H2             -9.0913249752      -21.9657393232      -16.0903871492  SOLV      1433            0.0000000000
      4420      1445  TIP3      OH2            -9.8853949752      -22.0075293232      -14.4669071492  SOLV      1434            0.0000000000
      4421      1445  TIP3      H1             -9.7385949752      -22.5275493232      -13.6768171492  SOLV      1434            0.0000000000
      4422      1445  TIP3      H2             -9.8882249752      -21.1007693232      -14.1603171492  SOLV      1434            0.0000000000
      4423      1446  TIP3      OH2           -13.4322849752      -24.7551993232      -13.9563671492  SOLV      1435            0.0000000000
      4424      1446  TIP3      H1            -14.1183549752      -24.4029493232      -13.3893971492  SOLV      1435            0.0000000000
      4425      1446  TIP3      H2            -12.9094949752      -23.9922393232      -14.2029371492  SOLV      1435            0.0000000000
      4426      1447  TIP3      OH2            -5.6007749752      -32.0928193232       -3.6774671492  SOLV      1436            0.0000000000
      4427      1447  TIP3      H1             -4.9019849752      -32.0189493232       -3.0274971492  SOLV      1436            0.0000000000
      4428      1447  TIP3      H2             -5.9816349752      -32.9573193232       -3.5231771492  SOLV      1436            0.0000000000
      4429      1448  TIP3      OH2            -4.8162849752      -32.4406493232      -12.5802371492  SOLV      1437            0.0000000000
      4430      1448  TIP3      H1             -4.5964549752      -31.9691093232      -13.3836971492  SOLV      1437            0.0000000000
      4431      1448  TIP3      H2             -4.2578849752      -32.0463893232      -11.9101771492  SOLV      1437            0.0000000000
      4432      1449  TIP3      OH2            -7.1476749752      -20.3101693232      -13.7174871492  SOLV      1438            0.0000000000
      4433      1449  TIP3      H1             -7.9640649752      -19.8131993232      -13.6650571492  SOLV      1438            0.0000000000
      4434      1449  TIP3      H2             -6.6180449752      -19.8348193232      -14.3576071492  SOLV      1438            0.0000000000
      4435      1450  TIP3      OH2            -7.6162949752      -30.7127693232      -11.7453971492  SOLV      1439            0.0000000000
      4436      1450  TIP3      H1             -6.8040349752      -30.2084493232      -11.6992271492  SOLV      1439            0.0000000000
      4437      1450  TIP3      H2             -7.8609949752      -30.8577993232      -10.8314371492  SOLV      1439            0.0000000000
      4438      1451  TIP3      OH2            -7.0806549752      -29.7264993232       -2.5607371492  SOLV      1440            0.0000000000
      4439      1451  TIP3      H1             -6.9616249752      -29.1529593232       -1.8036971492  SOLV      1440            0.0000000000
      4440      1451  TIP3      H2             -6.4251949752      -30.4145593232       -2.4459571492  SOLV      1440            0.0000000000
      4441      1452  TIP3      OH2            -9.8093649752      -19.2664493232      -13.7357971492  SOLV      1441            0.0000000000
      4442      1452  TIP3      H1             -9.6484949752      -18.4666993232      -14.2365371492  SOLV      1441            0.0000000000
      4443      1452  TIP3      H2            -10.0065849752      -18.9598493232      -12.8507371492  SOLV      1441            0.0000000000
      4444      1453  TIP3      OH2           -11.0749249752      -32.5685293232      -14.1200371492  SOLV      1442            0.0000000000
      4445      1453  TIP3      H1            -11.1584449752      -31.6802193232      -13.7733971492  SOLV      1442            0.0000000000
      4446      1453  TIP3      H2            -10.1848949752      -32.8338593232      -13.8883571492  SOLV      1442            0.0000000000
      4447      1454  TIP3      OH2            -0.8760749752      -31.8194693232       -1.7257671492  SOLV      1443            0.0000000000
      4448      1454  TIP3      H1             -1.7924949752      -31.5572993232       -1.8133971492  SOLV      1443            0.0000000000
      4449      1454  TIP3      H2             -0.5405749752      -31.8225693232       -2.6222371492  SOLV      1443            0.0000000000
      4450      1455  TIP3      OH2            -2.2739749752      -28.0693693232       -7.6300371492  SOLV      1444            0.0000000000
      4451      1455  TIP3      H1             -3.0715349752      -28.4843493232       -7.9585371492  SOLV      1444            0.0000000000
      4452      1455  TIP3      H2             -1.8288649752      -28.7599993232       -7.1389871492  SOLV      1444            0.0000000000
      4453      1456  TIP3      OH2           -12.8163949752      -22.1413093232      -15.0595871492  SOLV      1445            0.0000000000
      4454      1456  TIP3      H1            -12.2242449752      -21.4418293232      -14.7833471492  SOLV      1445            0.0000000000
      4455      1456  TIP3      H2            -12.3570949752      -22.5743593232      -15.7791271492  SOLV      1445            0.0000000000
      4456      1457  TIP3      OH2           -14.5004749752      -29.4770093232      -15.9436471492  SOLV      1446            0.0000000000
      4457      1457  TIP3      H1            -14.5452149752      -28.5376993232      -15.7649471492  SOLV      1446            0.0000000000
      4458      1457  TIP3      H2            -15.3881549752      -29.7125193232      -16.2134371492  SOLV      1446            0.0000000000
      4459      1458  TIP3      OH2            -1.1875149752      -18.8131193232       -6.0076871492  SOLV      1447            0.0000000000
      4460      1458  TIP3      H1             -1.3430849752      -18.1346793232       -6.6647571492  SOLV      1447            0.0000000000
      4461      1458  TIP3      H2             -0.2548749752      -18.7411893232       -5.8046271492  SOLV      1447            0.0000000000
      4462      1459  TIP3      OH2           -14.7619449752      -20.7546393232      -11.1099671492  SOLV      1448            0.0000000000
      4463      1459  TIP3      H1            -15.5940849752      -20.2823693232      -11.0828271492  SOLV      1448            0.0000000000
      4464      1459  TIP3      H2            -14.2161149752      -20.2448793232      -11.7086571492  SOLV      1448            0.0000000000
      4465      1460  TIP3      OH2           -15.4735749752      -18.1422693232        0.2198328508  SOLV      1449            0.0000000000
      4466      1460  TIP3      H1            -14.9333549752      -18.3588693232        0.9797528508  SOLV      1449            0.0000000000
      4467      1460  TIP3      H2            -15.9547749752      -18.9476693232        0.0300828508  SOLV      1449            0.0000000000
      4468      1461  TIP3      OH2           -10.8762349752      -19.2228293232        1.8402528508  SOLV      1450            0.0000000000
      4469      1461  TIP3      H1            -10.1085149752      -19.6817493232        2.1811728508  SOLV      1450            0.0000000000
      4470      1461  TIP3      H2            -10.8976149752      -19.4488493232        0.9103728508  SOLV      1450            0.0000000000
      4471      1462  TIP3      OH2            -6.7842749752      -19.7147693232      -16.7845671492  SOLV      1451            0.0000000000
      4472      1462  TIP3      H1             -7.4281749752      -20.3459093232      -16.4631971492  SOLV      1451            0.0000000000
      4473      1462  TIP3      H2             -6.0224449752      -20.2459693232      -17.0162171492  SOLV      1451            0.0000000000
      4474      1463  TIP3      OH2            -4.2993649752      -20.8427193232        0.5694028508  SOLV      1452            0.0000000000
      4475      1463  TIP3      H1             -4.6504149752      -21.6994193232        0.8124428508  SOLV      1452            0.0000000000
      4476      1463  TIP3      H2             -3.5730449752      -20.7000493232        1.1763028508  SOLV      1452            0.0000000000
      4477      1464  TIP3      OH2            -2.1799849752      -19.8977793232      -16.5507671492  SOLV      1453            0.0000000000
      4478      1464  TIP3      H1             -1.8969449752      -20.6922593232      -16.0980771492  SOLV      1453            0.0000000000
      4479      1464  TIP3      H2             -1.4401949752      -19.6646793232      -17.1116571492  SOLV      1453            0.0000000000
      4480      1465  TIP3      OH2           -15.5666249752      -24.3318593232        1.1742628508  SOLV      1454            0.0000000000
      4481      1465  TIP3      H1            -15.4225749752      -25.2337893232        0.8879328508  SOLV      1454            0.0000000000
      4482      1465  TIP3      H2            -16.3388849752      -24.0456493232        0.6864928508  SOLV      1454            0.0000000000
      4483      1466  TIP3      OH2           -11.2252549752      -23.9882893232      -16.6932771492  SOLV      1455            0.0000000000
      4484      1466  TIP3      H1            -11.1608449752      -24.7823293232      -16.1626371492  SOLV      1455            0.0000000000
      4485      1466  TIP3      H2            -10.5723349752      -24.1070093232      -17.3830771492  SOLV      1455            0.0000000000
      4486      1467  TIP3      OH2            -8.9110149752      -24.3620493232        0.6069028508  SOLV      1456            0.0000000000
      4487      1467  TIP3      H1             -9.2396349752      -24.0912393232       -0.2503571492  SOLV      1456            0.0000000000
      4488      1467  TIP3      H2             -8.7591949752      -25.3030693232        0.5194028508  SOLV      1456            0.0000000000
      4489      1468  TIP3      OH2            -5.8729149752      -22.9411193232      -16.9574771492  SOLV      1457            0.0000000000
      4490      1468  TIP3      H1             -6.1415049752      -22.7609093232      -16.0565871492  SOLV      1457            0.0000000000
      4491      1468  TIP3      H2             -6.0793549752      -23.8664993232      -17.0888971492  SOLV      1457            0.0000000000
      4492      1469  TIP3      OH2            -3.1764949752      -24.4463193232       -2.0098671492  SOLV      1458            0.0000000000
      4493      1469  TIP3      H1             -2.4310149752      -23.8579493232       -2.1294671492  SOLV      1458            0.0000000000
      4494      1469  TIP3      H2             -3.9338149752      -23.8643493232       -1.9465571492  SOLV      1458            0.0000000000
      4495      1470  TIP3      OH2           -14.7339749752      -27.1315293232        0.5941928508  SOLV      1459            0.0000000000
      4496      1470  TIP3      H1            -14.3258549752      -27.9888693232        0.4732528508  SOLV      1459            0.0000000000
      4497      1470  TIP3      H2            -14.9942149752      -27.1173993232        1.5152228508  SOLV      1459            0.0000000000
      4498      1471  TIP3      OH2           -10.0758749752      -26.0156693232      -14.3874771492  SOLV      1460            0.0000000000
      4499      1471  TIP3      H1            -10.5356749752      -26.4998393232      -13.7016271492  SOLV      1460            0.0000000000
      4500      1471  TIP3      H2             -9.8210049752      -26.6841293232      -15.0234271492  SOLV      1460            0.0000000000
      4501      1472  TIP3      OH2           -10.7869449752      -28.1229593232       -2.0315171492  SOLV      1461            0.0000000000
      4502      1472  TIP3      H1            -11.4053349752      -27.4482993232       -1.7510471492  SOLV      1461            0.0000000000
      4503      1472  TIP3      H2            -10.4428249752      -27.8015693232       -2.8648971492  SOLV      1461            0.0000000000
      4504      1473  TIP3      OH2            -9.0048349752      -27.7724893232      -16.1251571492  SOLV      1462            0.0000000000
      4505      1473  TIP3      H1             -9.1853349752      -27.9273693232      -17.0523271492  SOLV      1462            0.0000000000
      4506      1473  TIP3      H2             -8.0547849752      -27.6646193232      -16.0803671492  SOLV      1462            0.0000000000
      4507      1474  TIP3      OH2            -5.7671249752      -25.6514293232        1.2459628508  SOLV      1463            0.0000000000
      4508      1474  TIP3      H1             -4.8140049752      -25.5675193232        1.2185628508  SOLV      1463            0.0000000000
      4509      1474  TIP3      H2             -5.9276649752      -26.3632493232        1.8654528508  SOLV      1463            0.0000000000
      4510      1475  TIP3      OH2             0.3849950248      -25.4180693232      -16.6793471492  SOLV      1464            0.0000000000
      4511      1475  TIP3      H1              0.1114750248      -25.8425193232      -17.4925171492  SOLV      1464            0.0000000000
      4512      1475  TIP3      H2              0.4244050248      -24.4866193232      -16.8963071492  SOLV      1464            0.0000000000
      4513      1476  TIP3      OH2           -10.4475749752      -30.7678793232       -0.9492071492  SOLV      1465            0.0000000000
      4514      1476  TIP3      H1            -10.2974849752      -31.4967493232       -1.5512371492  SOLV      1465            0.0000000000
      4515      1476  TIP3      H2            -10.4453349752      -29.9907093232       -1.5079871492  SOLV      1465            0.0000000000
      4516      1477  TIP3      OH2           -10.0350049752      -32.3982993232       -3.4564671492  SOLV      1466            0.0000000000
      4517      1477  TIP3      H1             -9.4992549752      -31.9466293232       -4.1085371492  SOLV      1466            0.0000000000
      4518      1477  TIP3      H2            -10.8870449752      -32.5063193232       -3.8790571492  SOLV      1466            0.0000000000
      4519      1478  TIP3      OH2            -8.4531649752      -26.9586793232       -3.2169471492  SOLV      1467            0.0000000000
      4520      1478  TIP3      H1             -7.7026849752      -27.1149293232       -3.7901671492  SOLV      1467            0.0000000000
      4521      1478  TIP3      H2             -8.7923349752      -26.1070193232       -3.4923971492  SOLV      1467            0.0000000000
      4522      1479  TIP3      OH2            -4.0375449752      -29.1434993232        1.8115828508  SOLV      1468            0.0000000000
      4523      1479  TIP3      H1             -3.8454149752      -30.0745593232        1.7000328508  SOLV      1468            0.0000000000
      4524      1479  TIP3      H2             -3.1799149752      -28.7185493232        1.8011228508  SOLV      1468            0.0000000000
      4525      1480  TIP3      OH2            -2.7208249752      -26.3549793232       -0.1111471492  SOLV      1469            0.0000000000
      4526      1480  TIP3      H1             -3.0023249752      -25.6455193232       -0.6887671492  SOLV      1469            0.0000000000
      4527      1480  TIP3      H2             -1.7783949752      -26.4276793232       -0.2620271492  SOLV      1469            0.0000000000
      4528      1481  TIP3      OH2           -11.9689449752      -29.5695293232        0.9623528508  SOLV      1470            0.0000000000
      4529      1481  TIP3      H1            -12.7360449752      -30.1020493232        0.7521128508  SOLV      1470            0.0000000000
      4530      1481  TIP3      H2            -11.2900449752      -29.8794893232        0.3629828508  SOLV      1470            0.0000000000
      4531      1482  TIP3      OH2            -7.9654049752      -30.6201893232        0.5387328508  SOLV      1471            0.0000000000
      4532      1482  TIP3      H1             -8.2008649752      -30.8395193232        1.4402228508  SOLV      1471            0.0000000000
      4533      1482  TIP3      H2             -8.7487149752      -30.8270693232        0.0289828508  SOLV      1471            0.0000000000
      4534      1483  TIP3      OH2            -5.2497449752      -31.4928393232       -0.3859171492  SOLV      1472            0.0000000000
      4535      1483  TIP3      H1             -6.1972049752      -31.4608693232       -0.2535871492  SOLV      1472            0.0000000000
      4536      1483  TIP3      H2             -4.9370749752      -32.1181293232        0.2679028508  SOLV      1472            0.0000000000
      4537      1484  TIP3      OH2           -13.7886649752      -31.6491493232        0.6668228508  SOLV      1473            0.0000000000
      4538      1484  TIP3      H1            -13.5769249752      -32.3555393232        0.0565728508  SOLV      1473            0.0000000000
      4539      1484  TIP3      H2            -13.8999149752      -32.0865493232        1.5109428508  SOLV      1473            0.0000000000
      4540      1485  TIP3      OH2            -9.1076649752      -17.0821193232      -15.1237971492  SOLV      1474            0.0000000000
      4541      1485  TIP3      H1             -8.1745949752      -16.9242493232      -14.9799571492  SOLV      1474            0.0000000000
      4542      1485  TIP3      H2             -9.3717849752      -16.4068193232      -15.7486471492  SOLV      1474            0.0000000000
      4543      1486  TIP3      OH2           -15.5391749752      -22.4457393232      -15.6409871492  SOLV      1475            0.0000000000
      4544      1486  TIP3      H1            -14.6252549752      -22.3668493232      -15.3675971492  SOLV      1475            0.0000000000
      4545      1486  TIP3      H2            -15.5318649752      -23.1327793232      -16.3074271492  SOLV      1475            0.0000000000
      4546      1487  TIP3      OH2           -16.8901149752      -17.0528893232      -10.5635971492  SOLV      1476            0.0000000000
      4547      1487  TIP3      H1            -17.5374049752      -17.5147193232      -11.0964771492  SOLV      1476            0.0000000000
      4548      1487  TIP3      H2            -16.5356549752      -17.7245593232       -9.9809771492  SOLV      1476            0.0000000000
      4549      1488  TIP3      OH2           -16.0201949752      -18.9721893232       -8.7589771492  SOLV      1477            0.0000000000
      4550      1488  TIP3      H1            -16.3545149752      -19.8524593232       -8.5869571492  SOLV      1477            0.0000000000
      4551      1488  TIP3      H2            -15.7979549752      -18.6266893232       -7.8944171492  SOLV      1477            0.0000000000
      4552      1489  TIP3      OH2             1.5282850248      -18.1625493232       -5.7784971492  SOLV      1478            0.0000000000
      4553      1489  TIP3      H1              1.5069550248      -17.9777093232       -4.8395571492  SOLV      1478            0.0000000000
      4554      1489  TIP3      H2              2.2189050248      -17.5941493232       -6.1193571492  SOLV      1478            0.0000000000
      4555      1490  TIP3      OH2             1.0915750248      -18.5954393232       -2.8565871492  SOLV      1479            0.0000000000
      4556      1490  TIP3      H1              0.6044450248      -19.3310293232       -3.2278471492  SOLV      1479            0.0000000000
      4557      1490  TIP3      H2              1.6408450248      -18.9890493232       -2.1786471492  SOLV      1479            0.0000000000
      4558      1491  TIP3      OH2            -0.4576949752      -22.8056293232        1.7814428508  SOLV      1480            0.0000000000
      4559      1491  TIP3      H1             -1.3235849752      -22.9106593232        2.1756728508  SOLV      1480            0.0000000000
      4560      1491  TIP3      H2             -0.0811049752      -22.0472993232        2.2279128508  SOLV      1480            0.0000000000
      4561      1492  TIP3      OH2             0.8432750248      -24.5492593232      -12.7043071492  SOLV      1481            0.0000000000
      4562      1492  TIP3      H1              1.6934150248      -24.1281693232      -12.5771471492  SOLV      1481            0.0000000000
      4563      1492  TIP3      H2              0.8487850248      -25.2892493232      -12.0971671492  SOLV      1481            0.0000000000
      4564      1493  TIP3      OH2             1.2378350248      -26.4955193232      -10.8807371492  SOLV      1482            0.0000000000
      4565      1493  TIP3      H1              0.5112950248      -26.9752593232      -10.4829771492  SOLV      1482            0.0000000000
      4566      1493  TIP3      H2              1.8191650248      -26.2900493232      -10.1485771492  SOLV      1482            0.0000000000
      4567      1494  TIP3      OH2             0.9969550248      -23.7107693232       -5.9329771492  SOLV      1483            0.0000000000
      4568      1494  TIP3      H1              1.8303750248      -24.0887693232       -6.2136171492  SOLV      1483            0.0000000000
      4569      1494  TIP3      H2              1.1089850248      -22.7676493232       -6.0520671492  SOLV      1483            0.0000000000
      4570      1495  TIP3      OH2            -0.5168149752      -20.8330193232       -3.6261371492  SOLV      1484            0.0000000000
      4571      1495  TIP3      H1             -1.1642849752      -20.5078693232       -3.0006171492  SOLV      1484            0.0000000000
      4572      1495  TIP3      H2             -1.0344149752      -21.2732493232       -4.3003071492  SOLV      1484            0.0000000000
      4573      1496  TIP3      OH2             1.5061450248      -26.5946693232      -14.4896071492  SOLV      1485            0.0000000000
      4574      1496  TIP3      H1              0.9842550248      -26.2382593232      -15.2085171492  SOLV      1485            0.0000000000
      4575      1496  TIP3      H2              1.4730650248      -25.9198893232      -13.8115171492  SOLV      1485            0.0000000000
      4576      1497  TIP3      OH2            -0.1449549752      -29.3551093232      -15.9388971492  SOLV      1486            0.0000000000
      4577      1497  TIP3      H1             -0.0485149752      -28.6884093232      -16.6189271492  SOLV      1486            0.0000000000
      4578      1497  TIP3      H2             -0.2849949752      -30.1704793232      -16.4203471492  SOLV      1486            0.0000000000
      4579      1498  TIP3      OH2            -0.9754849752      -27.9748693232      -10.3178671492  SOLV      1487            0.0000000000
      4580      1498  TIP3      H1             -1.1256049752      -28.9200093232      -10.3380871492  SOLV      1487            0.0000000000
      4581      1498  TIP3      H2             -1.3290349752      -27.6937293232       -9.4739571492  SOLV      1487            0.0000000000
      4582      1499  TIP3      OH2           -15.9402449752      -25.8966493232       -6.3074871492  SOLV      1488            0.0000000000
      4583      1499  TIP3      H1            -15.7559549752      -25.9784793232       -7.2431971492  SOLV      1488            0.0000000000
      4584      1499  TIP3      H2            -15.0909549752      -26.0209493232       -5.8838471492  SOLV      1488            0.0000000000
      4585      1500  TIP3      OH2            -0.1191949752      -26.0045393232       -0.6790371492  SOLV      1489            0.0000000000
      4586      1500  TIP3      H1              0.4635350248      -26.7393093232       -0.4873171492  SOLV      1489            0.0000000000
      4587      1500  TIP3      H2              0.4447350248      -25.2325093232       -0.6324571492  SOLV      1489            0.0000000000
      4588      1501  TIP3      OH2             1.3775150248      -28.1019593232        0.0055028508  SOLV      1490            0.0000000000
      4589      1501  TIP3      H1              0.5141850248      -28.4807493232       -0.1600271492  SOLV      1490            0.0000000000
      4590      1501  TIP3      H2              1.9818850248      -28.8404793232       -0.0689171492  SOLV      1490            0.0000000000
      4591      1502  TIP3      OH2            -0.8975749752      -31.9471293232      -16.8213471492  SOLV      1491            0.0000000000
      4592      1502  TIP3      H1             -0.2869949752      -32.3184493232      -16.1845271492  SOLV      1491            0.0000000000
      4593      1502  TIP3      H2             -1.7344249752      -32.3684393232      -16.6253471492  SOLV      1491            0.0000000000
      4594      1503  TIP3      OH2            -1.2650049752      -30.3922893232      -11.8553571492  SOLV      1492            0.0000000000
      4595      1503  TIP3      H1             -0.9852949752      -31.2992493232      -11.7311871492  SOLV      1492            0.0000000000
      4596      1503  TIP3      H2             -0.5058349752      -29.9581393232      -12.2444371492  SOLV      1492            0.0000000000
      4597      1504  TIP3      OH2            -0.6531749752      -29.8105493232       -6.4194671492  SOLV      1493            0.0000000000
      4598      1504  TIP3      H1              0.2796250248      -29.5985593232       -6.4538671492  SOLV      1493            0.0000000000
      4599      1504  TIP3      H2             -0.8884249752      -29.7093393232       -5.4971671492  SOLV      1493            0.0000000000
      4600      1505  TIP3      OH2            -0.6239849752      -29.0740193232       -3.6435271492  SOLV      1494            0.0000000000
      4601      1505  TIP3      H1             -1.4668549752      -28.8059793232       -3.2775471492  SOLV      1494            0.0000000000
      4602      1505  TIP3      H2             -0.1815549752      -28.2518293232       -3.8544171492  SOLV      1494            0.0000000000
      4603      1506  TIP3      OH2           -16.3427649752      -30.6261493232       -0.1666071492  SOLV      1495            0.0000000000
      4604      1506  TIP3      H1            -15.4232749752      -30.7483193232        0.0697028508  SOLV      1495            0.0000000000
      4605      1506  TIP3      H2            -16.7923149752      -31.3761793232        0.2227428508  SOLV      1495            0.0000000000
      4606      1507  TIP3      OH2           -15.1215149752      -32.3139893232       -7.2753171492  SOLV      1496            0.0000000000
      4607      1507  TIP3      H1            -14.6763549752      -33.1057393232       -6.9733471492  SOLV      1496            0.0000000000
      4608      1507  TIP3      H2            -14.6552149752      -31.5974693232       -6.8447571492  SOLV      1496            0.0000000000
      4609      1508  TIP3      OH2           -16.8174849752      -29.3146893232       -6.2062971492  SOLV      1497            0.0000000000
      4610      1508  TIP3      H1            -16.3255049752      -29.5356393232       -6.9970971492  SOLV      1497            0.0000000000
      4611      1508  TIP3      H2            -16.4553949752      -28.4743493232       -5.9253471492  SOLV      1497            0.0000000000
      4612      1509  TIP3      OH2            -1.7331149752      -18.0726093232      -10.2063171492  SOLV      1498            0.0000000000
      4613      1509  TIP3      H1             -1.0808249752      -18.4203993232      -10.8144071492  SOLV      1498            0.0000000000
      4614      1509  TIP3      H2             -1.2227349752      -17.5842893232       -9.5603471492  SOLV      1498            0.0000000000
      4615      1510  TIP3      OH2           -14.3483649752      -21.1434693232        0.3367728508  SOLV      1499            0.0000000000
      4616      1510  TIP3      H1            -15.1691149752      -20.9688193232       -0.1237571492  SOLV      1499            0.0000000000
      4617      1510  TIP3      H2            -14.6005849752      -21.2169993232        1.2572128508  SOLV      1499            0.0000000000
      4618      1511  TIP3      OH2           -11.3940749752      -20.1693493232       -3.4048271492  SOLV      1500            0.0000000000
      4619      1511  TIP3      H1            -11.8189649752      -19.3594993232       -3.6873671492  SOLV      1500            0.0000000000
      4620      1511  TIP3      H2            -10.4897949752      -20.0839393232       -3.7068471492  SOLV      1500            0.0000000000
      4621      1512  TIP3      OH2            -7.0829349752      -18.7703493232       -0.4454571492  SOLV      1501            0.0000000000
      4622      1512  TIP3      H1             -6.8981849752      -19.1037393232        0.4325728508  SOLV      1501            0.0000000000
      4623      1512  TIP3      H2             -6.2364849752      -18.4604893232       -0.7675371492  SOLV      1501            0.0000000000
      4624      1513  TIP3      OH2            -4.7378949752      -17.4844593232       -1.2013171492  SOLV      1502            0.0000000000
      4625      1513  TIP3      H1             -4.0610049752      -18.1172293232       -1.4413971492  SOLV      1502            0.0000000000
      4626      1513  TIP3      H2             -4.4160149752      -17.0834093232       -0.3939871492  SOLV      1502            0.0000000000
      4627      1514  TIP3      OH2           -13.9924049752      -16.9129593232       -3.3572971492  SOLV      1503            0.0000000000
      4628      1514  TIP3      H1            -14.7127649752      -16.4728593232       -3.8085271492  SOLV      1503            0.0000000000
      4629      1514  TIP3      H2            -14.3580049752      -17.1634893232       -2.5088971492  SOLV      1503            0.0000000000
      4630      1515  TIP3      OH2           -11.5251449752      -17.3125693232       -4.3275771492  SOLV      1504            0.0000000000
      4631      1515  TIP3      H1            -12.3899249752      -17.2407193232       -3.9235671492  SOLV      1504            0.0000000000
      4632      1515  TIP3      H2            -11.5802449752      -16.7658393232       -5.1113271492  SOLV      1504            0.0000000000
      4633      1516  TIP3      OH2            -6.8145849752      -17.4246793232       -5.1519771492  SOLV      1505            0.0000000000
      4634      1516  TIP3      H1             -7.2711849752      -16.8957093232       -5.8061371492  SOLV      1505            0.0000000000
      4635      1516  TIP3      H2             -6.6517849752      -16.8215393232       -4.4267471492  SOLV      1505            0.0000000000
      4636      1517  TIP3      OH2            -4.4869549752      -18.5467193232       -4.2069471492  SOLV      1506            0.0000000000
      4637      1517  TIP3      H1             -5.3915849752      -18.3816993232       -4.4727371492  SOLV      1506            0.0000000000
      4638      1517  TIP3      H2             -4.0580949752      -17.6934993232       -4.2726071492  SOLV      1506            0.0000000000
      4639      1518  TIP3      OH2            -1.8827649752      -16.9768093232       -3.9121671492  SOLV      1507            0.0000000000
      4640      1518  TIP3      H1             -2.0645649752      -16.0609193232       -4.1226771492  SOLV      1507            0.0000000000
      4641      1518  TIP3      H2             -1.7059849752      -17.3870993232       -4.7587071492  SOLV      1507            0.0000000000
      4642      1519  TIP3      OH2           -14.5775949752      -18.2897093232       -6.4471171492  SOLV      1508            0.0000000000
      4643      1519  TIP3      H1            -14.5959949752      -18.7151993232       -5.5898871492  SOLV      1508            0.0000000000
      4644      1519  TIP3      H2            -13.7728049752      -18.6082093232       -6.8558971492  SOLV      1508            0.0000000000
      4645      1520  TIP3      OH2           -12.4362849752      -19.5798393232       -7.7921271492  SOLV      1509            0.0000000000
      4646      1520  TIP3      H1            -12.6552149752      -20.4960993232       -7.6225271492  SOLV      1509            0.0000000000
      4647      1520  TIP3      H2            -11.6120649752      -19.4397993232       -7.3259871492  SOLV      1509            0.0000000000
      4648      1521  TIP3      OH2            -9.8990349752      -19.1099093232       -6.9433271492  SOLV      1510            0.0000000000
      4649      1521  TIP3      H1             -9.6864649752      -19.9980093232       -7.2302371492  SOLV      1510            0.0000000000
      4650      1521  TIP3      H2             -9.8345249752      -19.1441393232       -5.9889271492  SOLV      1510            0.0000000000
      4651      1522  TIP3      OH2           -15.3266249752      -19.0657893232      -13.2758871492  SOLV      1511            0.0000000000
      4652      1522  TIP3      H1            -16.0116349752      -19.1038993232      -13.9433771492  SOLV      1511            0.0000000000
      4653      1522  TIP3      H2            -15.3229049752      -18.1530293232      -12.9876771492  SOLV      1511            0.0000000000
      4654      1523  TIP3      OH2            -6.4622749752      -17.8562993232      -14.8782671492  SOLV      1512            0.0000000000
      4655      1523  TIP3      H1             -5.5962549752      -17.4895593232      -15.0564471492  SOLV      1512            0.0000000000
      4656      1523  TIP3      H2             -6.7089949752      -18.2954993232      -15.6921871492  SOLV      1512            0.0000000000
      4657      1524  TIP3      OH2             0.2466850248      -18.2932693232      -12.1991571492  SOLV      1513            0.0000000000
      4658      1524  TIP3      H1              0.0523950248      -19.0410593232      -12.7641971492  SOLV      1513            0.0000000000
      4659      1524  TIP3      H2              0.2076950248      -17.5352593232      -12.7823671492  SOLV      1513            0.0000000000
      4660      1525  TIP3      OH2           -13.5085049752      -18.1457093232      -16.2506771492  SOLV      1514            0.0000000000
      4661      1525  TIP3      H1            -13.7760449752      -17.8594193232      -15.3773671492  SOLV      1514            0.0000000000
      4662      1525  TIP3      H2            -12.7372449752      -18.6917893232      -16.0984271492  SOLV      1514            0.0000000000
      4663      1526  TIP3      OH2            -0.5356949752      -19.5420293232       -0.0489771492  SOLV      1515            0.0000000000
      4664      1526  TIP3      H1             -1.3175049752      -19.7282293232       -0.5689171492  SOLV      1515            0.0000000000
      4665      1526  TIP3      H2             -0.6077049752      -18.6125993232        0.1682728508  SOLV      1515            0.0000000000
      4666      1527  TIP3      OH2            13.8703450248      -25.6555893232      -10.0182571492  SOLV      1516            0.0000000000
      4667      1527  TIP3      H1             13.9594550248      -24.7117693232      -10.1505471492  SOLV      1516            0.0000000000
      4668      1527  TIP3      H2             13.2321050248      -25.9309493232      -10.6763171492  SOLV      1516            0.0000000000
      4669      1528  TIP3      OH2            12.8034750248      -26.4005193232       -6.5994371492  SOLV      1517            0.0000000000
      4670      1528  TIP3      H1             12.7652250248      -27.0468893232       -5.8944771492  SOLV      1517            0.0000000000
      4671      1528  TIP3      H2             12.4811250248      -26.8670793232       -7.3705671492  SOLV      1517            0.0000000000
      4672      1529  TIP3      OH2             5.1719750248      -26.7863093232       -5.0064471492  SOLV      1518            0.0000000000
      4673      1529  TIP3      H1              5.2131850248      -27.4119793232       -4.2832071492  SOLV      1518            0.0000000000
      4674      1529  TIP3      H2              5.8747450248      -26.1624493232       -4.8244071492  SOLV      1518            0.0000000000
      4675      1530  TIP3      OH2            16.5094950248      -23.4614793232       -8.2979271492  SOLV      1519            0.0000000000
      4676      1530  TIP3      H1             16.0687650248      -24.1818793232       -7.8473671492  SOLV      1519            0.0000000000
      4677      1530  TIP3      H2             16.4964650248      -22.7407593232       -7.6681571492  SOLV      1519            0.0000000000
      4678      1531  TIP3      OH2             6.0952850248      -22.3364193232       -6.4715371492  SOLV      1520            0.0000000000
      4679      1531  TIP3      H1              5.7258050248      -23.1383693232       -6.8411071492  SOLV      1520            0.0000000000
      4680      1531  TIP3      H2              7.0363950248      -22.5049293232       -6.4251971492  SOLV      1520            0.0000000000
      4681      1532  TIP3      OH2             2.7053350248      -28.6761593232      -11.0786571492  SOLV      1521            0.0000000000
      4682      1532  TIP3      H1              2.2576750248      -27.8302893232      -11.0970071492  SOLV      1521            0.0000000000
      4683      1532  TIP3      H2              2.1444550248      -29.2557393232      -11.5941471492  SOLV      1521            0.0000000000
      4684      1533  TIP3      OH2             3.4159450248      -26.5141993232       -8.9528571492  SOLV      1522            0.0000000000
      4685      1533  TIP3      H1              3.6292950248      -27.2840393232       -8.4255571492  SOLV      1522            0.0000000000
      4686      1533  TIP3      H2              4.1537050248      -26.4245293232       -9.5560971492  SOLV      1522            0.0000000000
      4687      1534  TIP3      OH2            13.6210450248      -18.3573093232       -8.0858871492  SOLV      1523            0.0000000000
      4688      1534  TIP3      H1             14.2406850248      -19.0338393232       -8.3589671492  SOLV      1523            0.0000000000
      4689      1534  TIP3      H2             13.4127850248      -18.5752293232       -7.1773971492  SOLV      1523            0.0000000000
      4690      1535  TIP3      OH2            11.1929150248      -23.9683793232       -6.1933371492  SOLV      1524            0.0000000000
      4691      1535  TIP3      H1             11.4967050248      -24.6542393232       -6.7879271492  SOLV      1524            0.0000000000
      4692      1535  TIP3      H2             11.9143150248      -23.8495093232       -5.5755371492  SOLV      1524            0.0000000000
      4693      1536  TIP3      OH2            19.8558950248      -32.3668493232       -5.3327171492  SOLV      1525            0.0000000000
      4694      1536  TIP3      H1             19.9051150248      -31.7567293232       -4.5968071492  SOLV      1525            0.0000000000
      4695      1536  TIP3      H2             20.2814050248      -31.9057593232       -6.0556071492  SOLV      1525            0.0000000000
      4696      1537  TIP3      OH2            14.3336150248      -29.5741393232       -5.8658571492  SOLV      1526            0.0000000000
      4697      1537  TIP3      H1             14.4762050248      -30.5204393232       -5.8456971492  SOLV      1526            0.0000000000
      4698      1537  TIP3      H2             14.2275150248      -29.3671593232       -6.7943671492  SOLV      1526            0.0000000000
      4699      1538  TIP3      OH2             7.4884450248      -31.4724993232       -8.5933771492  SOLV      1527            0.0000000000
      4700      1538  TIP3      H1              7.5315550248      -30.6126493232       -9.0117471492  SOLV      1527            0.0000000000
      4701      1538  TIP3      H2              7.0308550248      -32.0250293232       -9.2270571492  SOLV      1527            0.0000000000
      4702      1539  TIP3      OH2            15.2107150248      -31.3419393232      -10.1925471492  SOLV      1528            0.0000000000
      4703      1539  TIP3      H1             15.8571450248      -31.6706193232       -9.5677871492  SOLV      1528            0.0000000000
      4704      1539  TIP3      H2             15.7206550248      -30.8240393232      -10.8154071492  SOLV      1528            0.0000000000
      4705      1540  TIP3      OH2             4.1085950248      -29.0759193232       -7.8312371492  SOLV      1529            0.0000000000
      4706      1540  TIP3      H1              4.7622550248      -29.6257493232       -7.3992271492  SOLV      1529            0.0000000000
      4707      1540  TIP3      H2              4.1325250248      -29.3500193232       -8.7480371492  SOLV      1529            0.0000000000
      4708      1541  TIP3      OH2             9.2650450248      -27.5257893232       -8.6160871492  SOLV      1530            0.0000000000
      4709      1541  TIP3      H1              9.8811450248      -28.0522493232       -8.1066871492  SOLV      1530            0.0000000000
      4710      1541  TIP3      H2              8.6789250248      -28.1659193232       -9.0197271492  SOLV      1530            0.0000000000
      4711      1542  TIP3      OH2            20.2473550248      -30.8889293232       -3.0967371492  SOLV      1531            0.0000000000
      4712      1542  TIP3      H1             19.5588150248      -30.2308593232       -3.1920771492  SOLV      1531            0.0000000000
      4713      1542  TIP3      H2             20.2628150248      -31.0861393232       -2.1601971492  SOLV      1531            0.0000000000
      4714      1543  TIP3      OH2             6.2986350248      -32.5546593232       -4.5192971492  SOLV      1532            0.0000000000
      4715      1543  TIP3      H1              6.0798050248      -32.0245993232       -5.2856971492  SOLV      1532            0.0000000000
      4716      1543  TIP3      H2              5.6307250248      -32.3281093232       -3.8721571492  SOLV      1532            0.0000000000
      4717      1544  TIP3      OH2            13.6676150248      -23.0545493232      -10.9753871492  SOLV      1533            0.0000000000
      4718      1544  TIP3      H1             13.3721250248      -23.3773193232      -11.8266971492  SOLV      1533            0.0000000000
      4719      1544  TIP3      H2             13.3433950248      -22.1548793232      -10.9341271492  SOLV      1533            0.0000000000
      4720      1545  TIP3      OH2             8.8677750248      -24.8790893232       -4.2319271492  SOLV      1534            0.0000000000
      4721      1545  TIP3      H1              8.1276850248      -24.2809393232       -4.1284071492  SOLV      1534            0.0000000000
      4722      1545  TIP3      H2              9.5817250248      -24.3251293232       -4.5475671492  SOLV      1534            0.0000000000
      4723      1546  TIP3      OH2            16.9745550248      -32.0510093232       -8.2119571492  SOLV      1535            0.0000000000
      4724      1546  TIP3      H1             16.7593550248      -32.8166693232       -7.6793571492  SOLV      1535            0.0000000000
      4725      1546  TIP3      H2             17.6302950248      -31.5785493232       -7.6991071492  SOLV      1535            0.0000000000
      4726      1547  TIP3      OH2             5.8923650248      -30.6624793232       -6.5670771492  SOLV      1536            0.0000000000
      4727      1547  TIP3      H1              6.5059950248      -30.0297193232       -6.1938371492  SOLV      1536            0.0000000000
      4728      1547  TIP3      H2              6.4044350248      -31.1349793232       -7.2233871492  SOLV      1536            0.0000000000
      4729      1548  TIP3      OH2             7.2752050248      -22.9147893232       -3.4447771492  SOLV      1537            0.0000000000
      4730      1548  TIP3      H1              7.2699650248      -22.0354393232       -3.8228471492  SOLV      1537            0.0000000000
      4731      1548  TIP3      H2              6.4216150248      -22.9983793232       -3.0197871492  SOLV      1537            0.0000000000
      4732      1549  TIP3      OH2             3.3962950248      -23.2439993232      -12.6628471492  SOLV      1538            0.0000000000
      4733      1549  TIP3      H1              3.1243850248      -23.0148993232      -13.5515571492  SOLV      1538            0.0000000000
      4734      1549  TIP3      H2              3.4418650248      -22.4061193232      -12.2023171492  SOLV      1538            0.0000000000
      4735      1550  TIP3      OH2            17.0212650248      -21.6224093232       -5.9499971492  SOLV      1539            0.0000000000
      4736      1550  TIP3      H1             16.0796350248      -21.5640193232       -5.7883071492  SOLV      1539            0.0000000000
      4737      1550  TIP3      H2             17.2978750248      -20.7163593232       -6.0870271492  SOLV      1539            0.0000000000
      4738      1551  TIP3      OH2            15.2733850248      -19.8410593232       -9.3248371492  SOLV      1540            0.0000000000
      4739      1551  TIP3      H1             15.6986150248      -20.5482693232       -9.8098771492  SOLV      1540            0.0000000000
      4740      1551  TIP3      H2             15.5903850248      -19.0397893232       -9.7416171492  SOLV      1540            0.0000000000
      4741      1552  TIP3      OH2            16.4330350248      -21.9402093232      -10.8161771492  SOLV      1541            0.0000000000
      4742      1552  TIP3      H1             16.1755150248      -22.6301993232      -11.4275871492  SOLV      1541            0.0000000000
      4743      1552  TIP3      H2             16.5041150248      -22.3830893232       -9.9705871492  SOLV      1541            0.0000000000
      4744      1553  TIP3      OH2            18.1190550248      -23.3735393232       -2.3388271492  SOLV      1542            0.0000000000
      4745      1553  TIP3      H1             18.2586850248      -23.9652893232       -3.0781271492  SOLV      1542            0.0000000000
      4746      1553  TIP3      H2             18.2863350248      -22.5009493232       -2.6949471492  SOLV      1542            0.0000000000
      4747      1554  TIP3      OH2            12.5915950248      -26.4115893232      -12.5662271492  SOLV      1543            0.0000000000
      4748      1554  TIP3      H1             11.8801450248      -25.8766193232      -12.9181771492  SOLV      1543            0.0000000000
      4749      1554  TIP3      H2             13.2825550248      -26.3563793232      -13.2263371492  SOLV      1543            0.0000000000
      4750      1555  TIP3      OH2            12.6455150248      -27.9541593232      -15.5277271492  SOLV      1544            0.0000000000
      4751      1555  TIP3      H1             13.3465050248      -27.9314693232      -14.8763271492  SOLV      1544            0.0000000000
      4752      1555  TIP3      H2             12.9478050248      -28.5821893232      -16.1837971492  SOLV      1544            0.0000000000
      4753      1556  TIP3      OH2            19.9609850248      -27.0337393232       -4.2727871492  SOLV      1545            0.0000000000
      4754      1556  TIP3      H1             19.3083950248      -26.3391793232       -4.1836971492  SOLV      1545            0.0000000000
      4755      1556  TIP3      H2             20.4260150248      -26.8236493232       -5.0826271492  SOLV      1545            0.0000000000
      4756      1557  TIP3      OH2            15.9973650248      -26.2022593232      -11.6146371492  SOLV      1546            0.0000000000
      4757      1557  TIP3      H1             15.2654650248      -25.9738893232      -11.0415771492  SOLV      1546            0.0000000000
      4758      1557  TIP3      H2             16.4445850248      -26.9159893232      -11.1598871492  SOLV      1546            0.0000000000
      4759      1558  TIP3      OH2            15.8947150248      -28.0279993232       -2.5469371492  SOLV      1547            0.0000000000
      4760      1558  TIP3      H1             15.9746250248      -27.2645593232       -1.9750871492  SOLV      1547            0.0000000000
      4761      1558  TIP3      H2             15.2934850248      -27.7487593232       -3.2374271492  SOLV      1547            0.0000000000
      4762      1559  TIP3      OH2             7.6427350248      -25.5716393232       -9.7321371492  SOLV      1548            0.0000000000
      4763      1559  TIP3      H1              7.3122550248      -25.9422993232      -10.5504371492  SOLV      1548            0.0000000000
      4764      1559  TIP3      H2              8.2311450248      -26.2422393232       -9.3853071492  SOLV      1548            0.0000000000
      4765      1560  TIP3      OH2             9.0094850248      -22.1435793232       -7.0509171492  SOLV      1549            0.0000000000
      4766      1560  TIP3      H1              8.9146150248      -22.7222693232       -7.8074571492  SOLV      1549            0.0000000000
      4767      1560  TIP3      H2              9.7388450248      -22.5150093232       -6.5546371492  SOLV      1549            0.0000000000
      4768      1561  TIP3      OH2             8.0092850248      -26.8030793232       -6.0986371492  SOLV      1550            0.0000000000
      4769      1561  TIP3      H1              8.5745350248      -26.6816593232       -6.8615171492  SOLV      1550            0.0000000000
      4770      1561  TIP3      H2              8.3281750248      -26.1655793232       -5.4597871492  SOLV      1550            0.0000000000
      4771      1562  TIP3      OH2            14.3185050248      -21.2998893232       -5.3645871492  SOLV      1551            0.0000000000
      4772      1562  TIP3      H1             14.0781650248      -20.6375793232       -4.7166671492  SOLV      1551            0.0000000000
      4773      1562  TIP3      H2             14.1203250248      -22.1343693232       -4.9396271492  SOLV      1551            0.0000000000
      4774      1563  TIP3      OH2             8.8893550248      -22.4038093232       -1.3814471492  SOLV      1552            0.0000000000
      4775      1563  TIP3      H1              8.5781050248      -21.6214893232       -0.9261271492  SOLV      1552            0.0000000000
      4776      1563  TIP3      H2              8.2393750248      -22.5568993232       -2.0672471492  SOLV      1552            0.0000000000
      4777      1564  TIP3      OH2            14.8683150248      -27.0399693232      -13.9295171492  SOLV      1553            0.0000000000
      4778      1564  TIP3      H1             15.4478650248      -26.8899393232      -13.1826271492  SOLV      1553            0.0000000000
      4779      1564  TIP3      H2             15.2823150248      -26.5692293232      -14.6528771492  SOLV      1553            0.0000000000
      4780      1565  TIP3      OH2             5.8093450248      -26.2056993232       -2.1528771492  SOLV      1554            0.0000000000
      4781      1565  TIP3      H1              5.8796650248      -25.5550193232       -1.4543771492  SOLV      1554            0.0000000000
      4782      1565  TIP3      H2              4.9185650248      -26.1029493232       -2.4877871492  SOLV      1554            0.0000000000
      4783      1566  TIP3      OH2            12.5948050248      -20.3031193232      -10.4942071492  SOLV      1555            0.0000000000
      4784      1566  TIP3      H1             13.0685650248      -20.0074893232       -9.7167871492  SOLV      1555            0.0000000000
      4785      1566  TIP3      H2             12.0317350248      -19.5649593232      -10.7272471492  SOLV      1555            0.0000000000
      4786      1567  TIP3      OH2             7.1289450248      -20.3323093232       -0.6180671492  SOLV      1556            0.0000000000
      4787      1567  TIP3      H1              7.1364750248      -20.4683393232       -1.5655171492  SOLV      1556            0.0000000000
      4788      1567  TIP3      H2              6.2129850248      -20.4494993232       -0.3660671492  SOLV      1556            0.0000000000
      4789      1568  TIP3      OH2             6.6330050248      -26.5022093232      -12.1428571492  SOLV      1557            0.0000000000
      4790      1568  TIP3      H1              6.3411350248      -25.7340393232      -12.6337271492  SOLV      1557            0.0000000000
      4791      1568  TIP3      H2              5.9585250248      -27.1615893232      -12.3057171492  SOLV      1557            0.0000000000
      4792      1569  TIP3      OH2            19.7562950248      -20.9236893232      -15.7401571492  SOLV      1558            0.0000000000
      4793      1569  TIP3      H1             19.8296450248      -19.9846693232      -15.5696271492  SOLV      1558            0.0000000000
      4794      1569  TIP3      H2             20.6618050248      -21.2288293232      -15.7964271492  SOLV      1558            0.0000000000
      4795      1570  TIP3      OH2             2.7260150248      -24.1392893232       -3.3278771492  SOLV      1559            0.0000000000
      4796      1570  TIP3      H1              2.2248550248      -24.1673493232       -4.1429071492  SOLV      1559            0.0000000000
      4797      1570  TIP3      H2              2.7313850248      -25.0449693232       -3.0181471492  SOLV      1559            0.0000000000
      4798      1571  TIP3      OH2             2.4762850248      -21.3589093232       -6.4438571492  SOLV      1560            0.0000000000
      4799      1571  TIP3      H1              3.4223450248      -21.5032093232       -6.4629071492  SOLV      1560            0.0000000000
      4800      1571  TIP3      H2              2.3639150248      -20.5746293232       -5.9067371492  SOLV      1560            0.0000000000
      4801      1572  TIP3      OH2            20.6741350248      -20.6929393232       -0.7614871492  SOLV      1561            0.0000000000
      4802      1572  TIP3      H1             20.6248150248      -21.6481293232       -0.7987271492  SOLV      1561            0.0000000000
      4803      1572  TIP3      H2             19.8473650248      -20.4254093232       -0.3601071492  SOLV      1561            0.0000000000
      4804      1573  TIP3      OH2            11.6525350248      -21.1190193232       -1.8853471492  SOLV      1562            0.0000000000
      4805      1573  TIP3      H1             11.7399950248      -20.2925593232       -1.4104371492  SOLV      1562            0.0000000000
      4806      1573  TIP3      H2             10.7890450248      -21.4486393232       -1.6364171492  SOLV      1562            0.0000000000
      4807      1574  TIP3      OH2            12.0671150248      -17.3466493232      -12.0792871492  SOLV      1563            0.0000000000
      4808      1574  TIP3      H1             11.9917150248      -17.4679293232      -13.0257671492  SOLV      1563            0.0000000000
      4809      1574  TIP3      H2             12.0999850248      -16.3973793232      -11.9608271492  SOLV      1563            0.0000000000
      4810      1575  TIP3      OH2             5.7204950248      -18.5579493232      -10.2983871492  SOLV      1564            0.0000000000
      4811      1575  TIP3      H1              5.8725350248      -18.9059093232       -9.4197371492  SOLV      1564            0.0000000000
      4812      1575  TIP3      H2              4.8695350248      -18.9142193232      -10.5536671492  SOLV      1564            0.0000000000
      4813      1576  TIP3      OH2            15.1687150248      -18.1926293232      -15.0770471492  SOLV      1565            0.0000000000
      4814      1576  TIP3      H1             15.5435550248      -18.9370193232      -15.5477871492  SOLV      1565            0.0000000000
      4815      1576  TIP3      H2             15.1730850248      -18.4625693232      -14.1587171492  SOLV      1565            0.0000000000
      4816      1577  TIP3      OH2            14.8375250248      -18.2669193232      -12.3278271492  SOLV      1566            0.0000000000
      4817      1577  TIP3      H1             13.9025050248      -18.1667293232      -12.1491271492  SOLV      1566            0.0000000000
      4818      1577  TIP3      H2             15.1177150248      -18.9763193232      -11.7495071492  SOLV      1566            0.0000000000
      4819      1578  TIP3      OH2            17.8261150248      -29.1996893232       -0.2812671492  SOLV      1567            0.0000000000
      4820      1578  TIP3      H1             17.4187950248      -28.7191293232       -1.0019371492  SOLV      1567            0.0000000000
      4821      1578  TIP3      H2             17.8666850248      -30.1050893232       -0.5891871492  SOLV      1567            0.0000000000
      4822      1579  TIP3      OH2             4.9750650248      -22.8157493232       -2.2845971492  SOLV      1568            0.0000000000
      4823      1579  TIP3      H1              5.1911950248      -23.1771893232       -1.4250171492  SOLV      1568            0.0000000000
      4824      1579  TIP3      H2              4.1195350248      -23.1903693232       -2.4942471492  SOLV      1568            0.0000000000
      4825      1580  TIP3      OH2            15.5831350248      -30.8681393232       -2.0610271492  SOLV      1569            0.0000000000
      4826      1580  TIP3      H1             15.0690850248      -30.9939193232       -1.2634271492  SOLV      1569            0.0000000000
      4827      1580  TIP3      H2             15.4276050248      -29.9558293232       -2.3054071492  SOLV      1569            0.0000000000
      4828      1581  TIP3      OH2            16.3456250248      -26.0071393232      -16.2997271492  SOLV      1570            0.0000000000
      4829      1581  TIP3      H1             16.3877050248      -26.2297493232      -17.2297271492  SOLV      1570            0.0000000000
      4830      1581  TIP3      H2             17.1948350248      -25.6084293232      -16.1097371492  SOLV      1570            0.0000000000
      4831      1582  TIP3      OH2             7.6848750248      -29.3802493232       -5.1941571492  SOLV      1571            0.0000000000
      4832      1582  TIP3      H1              7.0430850248      -29.4205193232       -4.4851471492  SOLV      1571            0.0000000000
      4833      1582  TIP3      H2              7.7220750248      -28.4537793232       -5.4318571492  SOLV      1571            0.0000000000
      4834      1583  TIP3      OH2             7.6817850248      -29.1592393232      -10.2821571492  SOLV      1572            0.0000000000
      4835      1583  TIP3      H1              6.7890750248      -29.4996293232      -10.3407771492  SOLV      1572            0.0000000000
      4836      1583  TIP3      H2              8.1324450248      -29.5361493232      -11.0378371492  SOLV      1572            0.0000000000
      4837      1584  TIP3      OH2            13.2173350248      -28.7432093232      -11.4650771492  SOLV      1573            0.0000000000
      4838      1584  TIP3      H1             12.8083650248      -27.9283493232      -11.7565971492  SOLV      1573            0.0000000000
      4839      1584  TIP3      H2             13.9379550248      -28.8831993232      -12.0793671492  SOLV      1573            0.0000000000
      4840      1585  TIP3      OH2            12.3194950248      -28.5675693232        0.0229928508  SOLV      1574            0.0000000000
      4841      1585  TIP3      H1             11.7568750248      -29.2724093232        0.3437728508  SOLV      1574            0.0000000000
      4842      1585  TIP3      H2             13.1458350248      -28.6883793232        0.4907528508  SOLV      1574            0.0000000000
      4843      1586  TIP3      OH2            14.2221050248      -29.2971693232       -8.6511071492  SOLV      1575            0.0000000000
      4844      1586  TIP3      H1             14.0265550248      -28.6914893232       -9.3660471492  SOLV      1575            0.0000000000
      4845      1586  TIP3      H2             14.4033650248      -30.1306493232       -9.0854771492  SOLV      1575            0.0000000000
      4846      1587  TIP3      OH2             5.4349250248      -29.0598993232       -3.3269571492  SOLV      1576            0.0000000000
      4847      1587  TIP3      H1              5.3968650248      -28.6597393232       -2.4582471492  SOLV      1576            0.0000000000
      4848      1587  TIP3      H2              4.9440350248      -29.8766593232       -3.2366671492  SOLV      1576            0.0000000000
      4849      1588  TIP3      OH2             8.8006650248      -31.6856693232      -16.5283571492  SOLV      1577            0.0000000000
      4850      1588  TIP3      H1              8.3697350248      -32.1306593232      -15.7986171492  SOLV      1577            0.0000000000
      4851      1588  TIP3      H2              8.0825350248      -31.3140393232      -17.0406071492  SOLV      1577            0.0000000000
      4852      1589  TIP3      OH2             2.0430050248      -31.9437193232       -9.4764871492  SOLV      1578            0.0000000000
      4853      1589  TIP3      H1              2.6737750248      -31.9725093232       -8.7570971492  SOLV      1578            0.0000000000
      4854      1589  TIP3      H2              2.4924350248      -32.3688493232      -10.2068971492  SOLV      1578            0.0000000000
      4855      1590  TIP3      OH2             3.3172150248      -31.1975193232      -14.0524471492  SOLV      1579            0.0000000000
      4856      1590  TIP3      H1              3.7913850248      -30.6065293232      -14.6373571492  SOLV      1579            0.0000000000
      4857      1590  TIP3      H2              2.5998550248      -30.6672293232      -13.7054371492  SOLV      1579            0.0000000000
      4858      1591  TIP3      OH2            13.4860250248      -27.6590393232       -3.9798671492  SOLV      1580            0.0000000000
      4859      1591  TIP3      H1             13.8095050248      -28.2900693232       -4.6228171492  SOLV      1580            0.0000000000
      4860      1591  TIP3      H2             13.0459550248      -28.1938193232       -3.3191271492  SOLV      1580            0.0000000000
      4861      1592  TIP3      OH2            10.2633150248      -31.7314893232       -9.1957471492  SOLV      1581            0.0000000000
      4862      1592  TIP3      H1              9.3524250248      -31.6748093232       -8.9071471492  SOLV      1581            0.0000000000
      4863      1592  TIP3      H2             10.7686050248      -31.7919393232       -8.3850271492  SOLV      1581            0.0000000000
      4864      1593  TIP3      OH2             5.0916550248      -30.1028593232      -10.3689871492  SOLV      1582            0.0000000000
      4865      1593  TIP3      H1              4.2024550248      -30.0033093232      -10.7090271492  SOLV      1582            0.0000000000
      4866      1593  TIP3      H2              5.3881450248      -30.9445593232      -10.7151971492  SOLV      1582            0.0000000000
      4867      1594  TIP3      OH2             8.7448350248      -30.1025993232      -12.7125271492  SOLV      1583            0.0000000000
      4868      1594  TIP3      H1              9.6763850248      -29.9735993232      -12.5342171492  SOLV      1583            0.0000000000
      4869      1594  TIP3      H2              8.5298650248      -29.4331693232      -13.3620571492  SOLV      1583            0.0000000000
      4870      1595  TIP3      OH2             7.4188550248      -28.9083793232      -15.1459171492  SOLV      1584            0.0000000000
      4871      1595  TIP3      H1              6.8763650248      -29.2879993232      -15.8371571492  SOLV      1584            0.0000000000
      4872      1595  TIP3      H2              8.2523450248      -28.7139093232      -15.5745071492  SOLV      1584            0.0000000000
      4873      1596  TIP3      OH2            17.9560150248      -16.8253193232        0.3451928508  SOLV      1585            0.0000000000
      4874      1596  TIP3      H1             18.1558850248      -16.4011293232       -0.4892771492  SOLV      1585            0.0000000000
      4875      1596  TIP3      H2             18.6113850248      -16.4814993232        0.9522328508  SOLV      1585            0.0000000000
      4876      1597  TIP3      OH2             5.5539950248      -24.3511893232       -0.0467571492  SOLV      1586            0.0000000000
      4877      1597  TIP3      H1              6.2862350248      -24.0965993232        0.5146928508  SOLV      1586            0.0000000000
      4878      1597  TIP3      H2              4.7738650248      -24.1466493232        0.4687828508  SOLV      1586            0.0000000000
      4879      1598  TIP3      OH2            11.5832850248      -28.9441893232       -7.3087871492  SOLV      1587            0.0000000000
      4880      1598  TIP3      H1             12.1476250248      -29.4905293232       -7.8558271492  SOLV      1587            0.0000000000
      4881      1598  TIP3      H2             11.4356250248      -29.4659993232       -6.5200271492  SOLV      1587            0.0000000000
      4882      1599  TIP3      OH2            10.2098750248      -30.5555793232       -4.8947471492  SOLV      1588            0.0000000000
      4883      1599  TIP3      H1              9.3744050248      -30.1016293232       -4.7845071492  SOLV      1588            0.0000000000
      4884      1599  TIP3      H2             10.7339350248      -30.2797293232       -4.1427571492  SOLV      1588            0.0000000000
      4885      1600  TIP3      OH2            17.9040250248      -25.2099893232       -4.4233471492  SOLV      1589            0.0000000000
      4886      1600  TIP3      H1             18.5459050248      -24.7533593232       -4.9671271492  SOLV      1589            0.0000000000
      4887      1600  TIP3      H2             17.0737150248      -25.0967493232       -4.8859371492  SOLV      1589            0.0000000000
      4888      1601  TIP3      OH2            14.6518150248      -31.5288193232      -15.0108471492  SOLV      1590            0.0000000000
      4889      1601  TIP3      H1             13.7132350248      -31.4172593232      -15.1619671492  SOLV      1590            0.0000000000
      4890      1601  TIP3      H2             14.9490250248      -30.6721293232      -14.7042771492  SOLV      1590            0.0000000000
      4891      1602  TIP3      OH2            12.2733450248      -24.1584793232       -1.9731971492  SOLV      1591            0.0000000000
      4892      1602  TIP3      H1             11.9279550248      -24.5402393232       -1.1662371492  SOLV      1591            0.0000000000
      4893      1602  TIP3      H2             12.0733550248      -23.2251193232       -1.9019071492  SOLV      1591            0.0000000000
      4894      1603  TIP3      OH2            15.3701650248      -29.6615493232      -13.3501071492  SOLV      1592            0.0000000000
      4895      1603  TIP3      H1             16.2620650248      -29.7990493232      -13.0309871492  SOLV      1592            0.0000000000
      4896      1603  TIP3      H2             15.4265250248      -28.8709393232      -13.8867571492  SOLV      1592            0.0000000000
      4897      1604  TIP3      OH2             5.8789650248      -25.0478093232       -7.4403171492  SOLV      1593            0.0000000000
      4898      1604  TIP3      H1              6.6236850248      -25.0502393232       -8.0416671492  SOLV      1593            0.0000000000
      4899      1604  TIP3      H2              5.9566250248      -25.8714293232       -6.9588071492  SOLV      1593            0.0000000000
      4900      1605  TIP3      OH2            12.8795450248      -22.8843793232      -14.1846471492  SOLV      1594            0.0000000000
      4901      1605  TIP3      H1             12.5843850248      -22.0575893232      -13.8031671492  SOLV      1594            0.0000000000
      4902      1605  TIP3      H2             12.1765450248      -23.5036893232      -13.9885071492  SOLV      1594            0.0000000000
      4903      1606  TIP3      OH2             2.8869350248      -26.5871193232       -2.1254671492  SOLV      1595            0.0000000000
      4904      1606  TIP3      H1              3.1097950248      -27.0051593232       -1.2937171492  SOLV      1595            0.0000000000
      4905      1606  TIP3      H2              2.2849450248      -27.1996193232       -2.5481871492  SOLV      1595            0.0000000000
      4906      1607  TIP3      OH2             9.9034250248      -27.0701293232        0.0875028508  SOLV      1596            0.0000000000
      4907      1607  TIP3      H1              9.6075050248      -27.2358293232       -0.8075871492  SOLV      1596            0.0000000000
      4908      1607  TIP3      H2             10.8349450248      -27.2900993232        0.0768928508  SOLV      1596            0.0000000000
      4909      1608  TIP3      OH2            14.5237050248      -21.6969293232       -2.0226971492  SOLV      1597            0.0000000000
      4910      1608  TIP3      H1             13.6231350248      -21.5136693232       -2.2903071492  SOLV      1597            0.0000000000
      4911      1608  TIP3      H2             14.5578150248      -21.4379993232       -1.1018171492  SOLV      1597            0.0000000000
      4912      1609  TIP3      OH2            20.2550350248      -29.4521393232      -13.6554371492  SOLV      1598            0.0000000000
      4913      1609  TIP3      H1             19.7006650248      -29.8483393232      -14.3276871492  SOLV      1598            0.0000000000
      4914      1609  TIP3      H2             20.3553950248      -28.5416193232      -13.9331071492  SOLV      1598            0.0000000000
      4915      1610  TIP3      OH2            20.2182350248      -23.6519693232       -0.8182871492  SOLV      1599            0.0000000000
      4916      1610  TIP3      H1             19.3670850248      -23.4135893232       -1.1856471492  SOLV      1599            0.0000000000
      4917      1610  TIP3      H2             20.8085750248      -23.6686493232       -1.5715771492  SOLV      1599            0.0000000000
      4918      1611  TIP3      OH2            18.5502050248      -20.6660993232      -13.1902271492  SOLV      1600            0.0000000000
      4919      1611  TIP3      H1             18.1773150248      -21.4917193232      -12.8811671492  SOLV      1600            0.0000000000
      4920      1611  TIP3      H2             18.8275550248      -20.8491593232      -14.0878871492  SOLV      1600            0.0000000000
      4921      1612  TIP3      OH2            15.7105950248      -25.8581493232       -6.1690371492  SOLV      1601            0.0000000000
      4922      1612  TIP3      H1             14.7822850248      -26.0899593232       -6.1961071492  SOLV      1601            0.0000000000
      4923      1612  TIP3      H2             16.1617050248      -26.6351693232       -6.4991571492  SOLV      1601            0.0000000000
      4924      1613  TIP3      OH2             8.2539050248      -21.5299893232      -10.0361671492  SOLV      1602            0.0000000000
      4925      1613  TIP3      H1              8.7811250248      -20.7565493232      -10.2362871492  SOLV      1602            0.0000000000
      4926      1613  TIP3      H2              7.3737550248      -21.3050693232      -10.3377671492  SOLV      1602            0.0000000000
      4927      1614  TIP3      OH2             4.0086750248      -26.6675793232      -15.4489271492  SOLV      1603            0.0000000000
      4928      1614  TIP3      H1              4.6246650248      -26.0408593232      -15.0694471492  SOLV      1603            0.0000000000
      4929      1614  TIP3      H2              3.1469350248      -26.3515993232      -15.1772771492  SOLV      1603            0.0000000000
      4930      1615  TIP3      OH2             9.6811350248      -23.8669993232      -10.4597371492  SOLV      1604            0.0000000000
      4931      1615  TIP3      H1              9.4401350248      -22.9415593232      -10.4182071492  SOLV      1604            0.0000000000
      4932      1615  TIP3      H2              8.9404950248      -24.3258693232      -10.0633471492  SOLV      1604            0.0000000000
      4933      1616  TIP3      OH2            10.1957950248      -19.7176393232       -4.1446271492  SOLV      1605            0.0000000000
      4934      1616  TIP3      H1             10.5582650248      -18.8630793232       -4.3781871492  SOLV      1605            0.0000000000
      4935      1616  TIP3      H2             10.7273150248      -20.0094793232       -3.4039971492  SOLV      1605            0.0000000000
      4936      1617  TIP3      OH2             8.3642150248      -18.8452393232      -10.9145171492  SOLV      1606            0.0000000000
      4937      1617  TIP3      H1              7.4142650248      -18.7394993232      -10.8631871492  SOLV      1606            0.0000000000
      4938      1617  TIP3      H2              8.7160250248      -18.0244993232      -10.5697671492  SOLV      1606            0.0000000000
      4939      1618  TIP3      OH2            13.7398750248      -23.6185693232       -4.4440671492  SOLV      1607            0.0000000000
      4940      1618  TIP3      H1             13.3140050248      -23.8463993232       -3.6176671492  SOLV      1607            0.0000000000
      4941      1618  TIP3      H2             14.3204550248      -24.3573893232       -4.6265371492  SOLV      1607            0.0000000000
      4942      1619  TIP3      OH2            15.9427650248      -22.6895193232      -15.3701671492  SOLV      1608            0.0000000000
      4943      1619  TIP3      H1             16.2960750248      -23.0695393232      -14.5658171492  SOLV      1608            0.0000000000
      4944      1619  TIP3      H2             14.9941150248      -22.7830393232      -15.2832371492  SOLV      1608            0.0000000000
      4945      1620  TIP3      OH2            16.3982950248      -19.0666193232       -1.9745871492  SOLV      1609            0.0000000000
      4946      1620  TIP3      H1             15.7966150248      -19.6223293232       -2.4699571492  SOLV      1609            0.0000000000
      4947      1620  TIP3      H2             16.6796650248      -18.3996393232       -2.6008471492  SOLV      1609            0.0000000000
      4948      1621  TIP3      OH2            20.4462050248      -18.2102693232      -15.1691471492  SOLV      1610            0.0000000000
      4949      1621  TIP3      H1             21.1899950248      -17.6242193232      -15.3089871492  SOLV      1610            0.0000000000
      4950      1621  TIP3      H2             19.7520150248      -17.6416893232      -14.8359071492  SOLV      1610            0.0000000000
      4951      1622  TIP3      OH2             4.5208850248      -31.8338493232       -2.5673271492  SOLV      1611            0.0000000000
      4952      1622  TIP3      H1              3.6281150248      -31.4953093232       -2.6349271492  SOLV      1611            0.0000000000
      4953      1622  TIP3      H2              4.4221650248      -32.6892393232       -2.1492471492  SOLV      1611            0.0000000000
      4954      1623  TIP3      OH2            16.8086950248      -24.0173193232      -13.1433771492  SOLV      1612            0.0000000000
      4955      1623  TIP3      H1             16.5314550248      -24.7453893232      -12.5872671492  SOLV      1612            0.0000000000
      4956      1623  TIP3      H2             17.7359950248      -23.8981193232      -12.9381171492  SOLV      1612            0.0000000000
      4957      1624  TIP3      OH2             4.1720850248      -20.0294093232       -4.1323871492  SOLV      1613            0.0000000000
      4958      1624  TIP3      H1              4.3891150248      -20.9611693232       -4.1634171492  SOLV      1613            0.0000000000
      4959      1624  TIP3      H2              4.4184350248      -19.7549093232       -3.2491071492  SOLV      1613            0.0000000000
      4960      1625  TIP3      OH2            10.0335450248      -21.5779093232      -16.9231671492  SOLV      1614            0.0000000000
      4961      1625  TIP3      H1             10.2725250248      -22.3260993232      -17.4702771492  SOLV      1614            0.0000000000
      4962      1625  TIP3      H2              9.7646750248      -21.9657393232      -16.0903871492  SOLV      1614            0.0000000000
      4963      1626  TIP3      OH2             5.4237150248      -24.7551993232      -13.9563671492  SOLV      1615            0.0000000000
      4964      1626  TIP3      H1              4.7376450248      -24.4029493232      -13.3893971492  SOLV      1615            0.0000000000
      4965      1626  TIP3      H2              5.9465050248      -23.9922393232      -14.2029371492  SOLV      1615            0.0000000000
      4966      1627  TIP3      OH2            13.2552250248      -32.0928193232       -3.6774671492  SOLV      1616            0.0000000000
      4967      1627  TIP3      H1             13.9540150248      -32.0189493232       -3.0274971492  SOLV      1616            0.0000000000
      4968      1627  TIP3      H2             12.8743650248      -32.9573193232       -3.5231771492  SOLV      1616            0.0000000000
      4969      1628  TIP3      OH2            14.0397150248      -32.4406493232      -12.5802371492  SOLV      1617            0.0000000000
      4970      1628  TIP3      H1             14.2595450248      -31.9691093232      -13.3836971492  SOLV      1617            0.0000000000
      4971      1628  TIP3      H2             14.5981150248      -32.0463893232      -11.9101771492  SOLV      1617            0.0000000000
      4972      1629  TIP3      OH2            11.7083250248      -20.3101693232      -13.7174871492  SOLV      1618            0.0000000000
      4973      1629  TIP3      H1             10.8919350248      -19.8131993232      -13.6650571492  SOLV      1618            0.0000000000
      4974      1629  TIP3      H2             12.2379550248      -19.8348193232      -14.3576071492  SOLV      1618            0.0000000000
      4975      1630  TIP3      OH2            11.2397050248      -30.7127693232      -11.7453971492  SOLV      1619            0.0000000000
      4976      1630  TIP3      H1             12.0519650248      -30.2084493232      -11.6992271492  SOLV      1619            0.0000000000
      4977      1630  TIP3      H2             10.9950050248      -30.8577993232      -10.8314371492  SOLV      1619            0.0000000000
      4978      1631  TIP3      OH2            11.7753450248      -29.7264993232       -2.5607371492  SOLV      1620            0.0000000000
      4979      1631  TIP3      H1             11.8943750248      -29.1529593232       -1.8036971492  SOLV      1620            0.0000000000
      4980      1631  TIP3      H2             12.4308050248      -30.4145593232       -2.4459571492  SOLV      1620            0.0000000000
      4981      1632  TIP3      OH2             9.0466350248      -19.2664493232      -13.7357971492  SOLV      1621            0.0000000000
      4982      1632  TIP3      H1              9.2075050248      -18.4666993232      -14.2365371492  SOLV      1621            0.0000000000
      4983      1632  TIP3      H2              8.8494150248      -18.9598493232      -12.8507371492  SOLV      1621            0.0000000000
      4984      1633  TIP3      OH2             7.7810750248      -32.5685293232      -14.1200371492  SOLV      1622            0.0000000000
      4985      1633  TIP3      H1              7.6975550248      -31.6802193232      -13.7733971492  SOLV      1622            0.0000000000
      4986      1633  TIP3      H2              8.6711050248      -32.8338593232      -13.8883571492  SOLV      1622            0.0000000000
      4987      1634  TIP3      OH2            17.9799250248      -31.8194693232       -1.7257671492  SOLV      1623            0.0000000000
      4988      1634  TIP3      H1             17.0635050248      -31.5572993232       -1.8133971492  SOLV      1623            0.0000000000
      4989      1634  TIP3      H2             18.3154250248      -31.8225693232       -2.6222371492  SOLV      1623            0.0000000000
      4990      1635  TIP3      OH2            16.5820250248      -28.0693693232       -7.6300371492  SOLV      1624            0.0000000000
      4991      1635  TIP3      H1             15.7844650248      -28.4843493232       -7.9585371492  SOLV      1624            0.0000000000
      4992      1635  TIP3      H2             17.0271350248      -28.7599993232       -7.1389871492  SOLV      1624            0.0000000000
      4993      1636  TIP3      OH2             6.0396050248      -22.1413093232      -15.0595871492  SOLV      1625            0.0000000000
      4994      1636  TIP3      H1              6.6317550248      -21.4418293232      -14.7833471492  SOLV      1625            0.0000000000
      4995      1636  TIP3      H2              6.4989050248      -22.5743593232      -15.7791271492  SOLV      1625            0.0000000000
      4996      1637  TIP3      OH2             4.3555250248      -29.4770093232      -15.9436471492  SOLV      1626            0.0000000000
      4997      1637  TIP3      H1              4.3107850248      -28.5376993232      -15.7649471492  SOLV      1626            0.0000000000
      4998      1637  TIP3      H2              3.4678450248      -29.7125193232      -16.2134371492  SOLV      1626            0.0000000000
      4999      1638  TIP3      OH2            17.6684850248      -18.8131193232       -6.0076871492  SOLV      1627            0.0000000000
      5000      1638  TIP3      H1             17.5129150248      -18.1346793232       -6.6647571492  SOLV      1627            0.0000000000
      5001      1638  TIP3      H2             18.6011250248      -18.7411893232       -5.8046271492  SOLV      1627            0.0000000000
      5002      1639  TIP3      OH2             4.0940550248      -20.7546393232      -11.1099671492  SOLV      1628            0.0000000000
      5003      1639  TIP3      H1              3.2619150248      -20.2823693232      -11.0828271492  SOLV      1628            0.0000000000
      5004      1639  TIP3      H2              4.6398850248      -20.2448793232      -11.7086571492  SOLV      1628            0.0000000000
      5005      1640  TIP3      OH2             3.3824250248      -18.1422693232        0.2198328508  SOLV      1629            0.0000000000
      5006      1640  TIP3      H1              3.9226450248      -18.3588693232        0.9797528508  SOLV      1629            0.0000000000
      5007      1640  TIP3      H2              2.9012250248      -18.9476693232        0.0300828508  SOLV      1629            0.0000000000
      5008      1641  TIP3      OH2             7.9797650248      -19.2228293232        1.8402528508  SOLV      1630            0.0000000000
      5009      1641  TIP3      H1              8.7474850248      -19.6817493232        2.1811728508  SOLV      1630            0.0000000000
      5010      1641  TIP3      H2              7.9583850248      -19.4488493232        0.9103728508  SOLV      1630            0.0000000000
      5011      1642  TIP3      OH2            12.0717250248      -19.7147693232      -16.7845671492  SOLV      1631            0.0000000000
      5012      1642  TIP3      H1             11.4278250248      -20.3459093232      -16.4631971492  SOLV      1631            0.0000000000
      5013      1642  TIP3      H2             12.8335550248      -20.2459693232      -17.0162171492  SOLV      1631            0.0000000000
      5014      1643  TIP3      OH2            14.5566350248      -20.8427193232        0.5694028508  SOLV      1632            0.0000000000
      5015      1643  TIP3      H1             14.2055850248      -21.6994193232        0.8124428508  SOLV      1632            0.0000000000
      5016      1643  TIP3      H2             15.2829550248      -20.7000493232        1.1763028508  SOLV      1632            0.0000000000
      5017      1644  TIP3      OH2            16.6760150248      -19.8977793232      -16.5507671492  SOLV      1633            0.0000000000
      5018      1644  TIP3      H1             16.9590550248      -20.6922593232      -16.0980771492  SOLV      1633            0.0000000000
      5019      1644  TIP3      H2             17.4158050248      -19.6646793232      -17.1116571492  SOLV      1633            0.0000000000
      5020      1645  TIP3      OH2             3.2893750248      -24.3318593232        1.1742628508  SOLV      1634            0.0000000000
      5021      1645  TIP3      H1              3.4334250248      -25.2337893232        0.8879328508  SOLV      1634            0.0000000000
      5022      1645  TIP3      H2              2.5171150248      -24.0456493232        0.6864928508  SOLV      1634            0.0000000000
      5023      1646  TIP3      OH2             7.6307450248      -23.9882893232      -16.6932771492  SOLV      1635            0.0000000000
      5024      1646  TIP3      H1              7.6951550248      -24.7823293232      -16.1626371492  SOLV      1635            0.0000000000
      5025      1646  TIP3      H2              8.2836650248      -24.1070093232      -17.3830771492  SOLV      1635            0.0000000000
      5026      1647  TIP3      OH2             9.9449850248      -24.3620493232        0.6069028508  SOLV      1636            0.0000000000
      5027      1647  TIP3      H1              9.6163650248      -24.0912393232       -0.2503571492  SOLV      1636            0.0000000000
      5028      1647  TIP3      H2             10.0968050248      -25.3030693232        0.5194028508  SOLV      1636            0.0000000000
      5029      1648  TIP3      OH2            12.9830850248      -22.9411193232      -16.9574771492  SOLV      1637            0.0000000000
      5030      1648  TIP3      H1             12.7144950248      -22.7609093232      -16.0565871492  SOLV      1637            0.0000000000
      5031      1648  TIP3      H2             12.7766450248      -23.8664993232      -17.0888971492  SOLV      1637            0.0000000000
      5032      1649  TIP3      OH2            15.6795050248      -24.4463193232       -2.0098671492  SOLV      1638            0.0000000000
      5033      1649  TIP3      H1             16.4249850248      -23.8579493232       -2.1294671492  SOLV      1638            0.0000000000
      5034      1649  TIP3      H2             14.9221850248      -23.8643493232       -1.9465571492  SOLV      1638            0.0000000000
      5035      1650  TIP3      OH2             4.1220250248      -27.1315293232        0.5941928508  SOLV      1639            0.0000000000
      5036      1650  TIP3      H1              4.5301450248      -27.9888693232        0.4732528508  SOLV      1639            0.0000000000
      5037      1650  TIP3      H2              3.8617850248      -27.1173993232        1.5152228508  SOLV      1639            0.0000000000
      5038      1651  TIP3      OH2             8.0690550248      -28.1229593232       -2.0315171492  SOLV      1640            0.0000000000
      5039      1651  TIP3      H1              7.4506650248      -27.4482993232       -1.7510471492  SOLV      1640            0.0000000000
      5040      1651  TIP3      H2              8.4131750248      -27.8015693232       -2.8648971492  SOLV      1640            0.0000000000
      5041      1652  TIP3      OH2             9.8511650248      -27.7724893232      -16.1251571492  SOLV      1641            0.0000000000
      5042      1652  TIP3      H1              9.6706650248      -27.9273693232      -17.0523271492  SOLV      1641            0.0000000000
      5043      1652  TIP3      H2             10.8012150248      -27.6646193232      -16.0803671492  SOLV      1641            0.0000000000
      5044      1653  TIP3      OH2            13.0888750248      -25.6514293232        1.2459628508  SOLV      1642            0.0000000000
      5045      1653  TIP3      H1             14.0419950248      -25.5675193232        1.2185628508  SOLV      1642            0.0000000000
      5046      1653  TIP3      H2             12.9283350248      -26.3632493232        1.8654528508  SOLV      1642            0.0000000000
      5047      1654  TIP3      OH2            19.2409950248      -25.4180693232      -16.6793471492  SOLV      1643            0.0000000000
      5048      1654  TIP3      H1             18.9674750248      -25.8425193232      -17.4925171492  SOLV      1643            0.0000000000
      5049      1654  TIP3      H2             19.2804050248      -24.4866193232      -16.8963071492  SOLV      1643            0.0000000000
      5050      1655  TIP3      OH2             8.4084250248      -30.7678793232       -0.9492071492  SOLV      1644            0.0000000000
      5051      1655  TIP3      H1              8.5585150248      -31.4967493232       -1.5512371492  SOLV      1644            0.0000000000
      5052      1655  TIP3      H2              8.4106650248      -29.9907093232       -1.5079871492  SOLV      1644            0.0000000000
      5053      1656  TIP3      OH2             8.8209950248      -32.3982993232       -3.4564671492  SOLV      1645            0.0000000000
      5054      1656  TIP3      H1              9.3567450248      -31.9466293232       -4.1085371492  SOLV      1645            0.0000000000
      5055      1656  TIP3      H2              7.9689550248      -32.5063193232       -3.8790571492  SOLV      1645            0.0000000000
      5056      1657  TIP3      OH2            10.4028350248      -26.9586793232       -3.2169471492  SOLV      1646            0.0000000000
      5057      1657  TIP3      H1             11.1533150248      -27.1149293232       -3.7901671492  SOLV      1646            0.0000000000
      5058      1657  TIP3      H2             10.0636650248      -26.1070193232       -3.4923971492  SOLV      1646            0.0000000000
      5059      1658  TIP3      OH2            14.8184550248      -29.1434993232        1.8115828508  SOLV      1647            0.0000000000
      5060      1658  TIP3      H1             15.0105850248      -30.0745593232        1.7000328508  SOLV      1647            0.0000000000
      5061      1658  TIP3      H2             15.6760850248      -28.7185493232        1.8011228508  SOLV      1647            0.0000000000
      5062      1659  TIP3      OH2            16.1351750248      -26.3549793232       -0.1111471492  SOLV      1648            0.0000000000
      5063      1659  TIP3      H1             15.8536750248      -25.6455193232       -0.6887671492  SOLV      1648            0.0000000000
      5064      1659  TIP3      H2             17.0776050248      -26.4276793232       -0.2620271492  SOLV      1648            0.0000000000
      5065      1660  TIP3      OH2             6.8870550248      -29.5695293232        0.9623528508  SOLV      1649            0.0000000000
      5066      1660  TIP3      H1              6.1199550248      -30.1020493232        0.7521128508  SOLV      1649            0.0000000000
      5067      1660  TIP3      H2              7.5659550248      -29.8794893232        0.3629828508  SOLV      1649            0.0000000000
      5068      1661  TIP3      OH2            10.8905950248      -30.6201893232        0.5387328508  SOLV      1650            0.0000000000
      5069      1661  TIP3      H1             10.6551350248      -30.8395193232        1.4402228508  SOLV      1650            0.0000000000
      5070      1661  TIP3      H2             10.1072850248      -30.8270693232        0.0289828508  SOLV      1650            0.0000000000
      5071      1662  TIP3      OH2            13.6062550248      -31.4928393232       -0.3859171492  SOLV      1651            0.0000000000
      5072      1662  TIP3      H1             12.6587950248      -31.4608693232       -0.2535871492  SOLV      1651            0.0000000000
      5073      1662  TIP3      H2             13.9189250248      -32.1181293232        0.2679028508  SOLV      1651            0.0000000000
      5074      1663  TIP3      OH2             5.0673350248      -31.6491493232        0.6668228508  SOLV      1652            0.0000000000
      5075      1663  TIP3      H1              5.2790750248      -32.3555393232        0.0565728508  SOLV      1652            0.0000000000
      5076      1663  TIP3      H2              4.9560850248      -32.0865493232        1.5109428508  SOLV      1652            0.0000000000
      5077      1664  TIP3      OH2             9.7483350248      -17.0821193232      -15.1237971492  SOLV      1653            0.0000000000
      5078      1664  TIP3      H1             10.6814050248      -16.9242493232      -14.9799571492  SOLV      1653            0.0000000000
      5079      1664  TIP3      H2              9.4842150248      -16.4068193232      -15.7486471492  SOLV      1653            0.0000000000
      5080      1665  TIP3      OH2             3.3168250248      -22.4457393232      -15.6409871492  SOLV      1654            0.0000000000
      5081      1665  TIP3      H1              4.2307450248      -22.3668493232      -15.3675971492  SOLV      1654            0.0000000000
      5082      1665  TIP3      H2              3.3241350248      -23.1327793232      -16.3074271492  SOLV      1654            0.0000000000
      5083      1666  TIP3      OH2             1.9658850248      -17.0528893232      -10.5635971492  SOLV      1655            0.0000000000
      5084      1666  TIP3      H1              1.3185950248      -17.5147193232      -11.0964771492  SOLV      1655            0.0000000000
      5085      1666  TIP3      H2              2.3203450248      -17.7245593232       -9.9809771492  SOLV      1655            0.0000000000
      5086      1667  TIP3      OH2             2.8358050248      -18.9721893232       -8.7589771492  SOLV      1656            0.0000000000
      5087      1667  TIP3      H1              2.5014850248      -19.8524593232       -8.5869571492  SOLV      1656            0.0000000000
      5088      1667  TIP3      H2              3.0580450248      -18.6266893232       -7.8944171492  SOLV      1656            0.0000000000
      5089      1668  TIP3      OH2            20.3842850248      -18.1625493232       -5.7784971492  SOLV      1657            0.0000000000
      5090      1668  TIP3      H1             20.3629550248      -17.9777093232       -4.8395571492  SOLV      1657            0.0000000000
      5091      1668  TIP3      H2             21.0749050248      -17.5941493232       -6.1193571492  SOLV      1657            0.0000000000
      5092      1669  TIP3      OH2            19.9475750248      -18.5954393232       -2.8565871492  SOLV      1658            0.0000000000
      5093      1669  TIP3      H1             19.4604450248      -19.3310293232       -3.2278471492  SOLV      1658            0.0000000000
      5094      1669  TIP3      H2             20.4968450248      -18.9890493232       -2.1786471492  SOLV      1658            0.0000000000
      5095      1670  TIP3      OH2            18.3983050248      -22.8056293232        1.7814428508  SOLV      1659            0.0000000000
      5096      1670  TIP3      H1             17.5324150248      -22.9106593232        2.1756728508  SOLV      1659            0.0000000000
      5097      1670  TIP3      H2             18.7748950248      -22.0472993232        2.2279128508  SOLV      1659            0.0000000000
      5098      1671  TIP3      OH2            19.6992750248      -24.5492593232      -12.7043071492  SOLV      1660            0.0000000000
      5099      1671  TIP3      H1             20.5494150248      -24.1281693232      -12.5771471492  SOLV      1660            0.0000000000
      5100      1671  TIP3      H2             19.7047850248      -25.2892493232      -12.0971671492  SOLV      1660            0.0000000000
      5101      1672  TIP3      OH2            20.0938350248      -26.4955193232      -10.8807371492  SOLV      1661            0.0000000000
      5102      1672  TIP3      H1             19.3672950248      -26.9752593232      -10.4829771492  SOLV      1661            0.0000000000
      5103      1672  TIP3      H2             20.6751650248      -26.2900493232      -10.1485771492  SOLV      1661            0.0000000000
      5104      1673  TIP3      OH2            19.8529550248      -23.7107693232       -5.9329771492  SOLV      1662            0.0000000000
      5105      1673  TIP3      H1             20.6863750248      -24.0887693232       -6.2136171492  SOLV      1662            0.0000000000
      5106      1673  TIP3      H2             19.9649850248      -22.7676493232       -6.0520671492  SOLV      1662            0.0000000000
      5107      1674  TIP3      OH2            18.3391850248      -20.8330193232       -3.6261371492  SOLV      1663            0.0000000000
      5108      1674  TIP3      H1             17.6917150248      -20.5078693232       -3.0006171492  SOLV      1663            0.0000000000
      5109      1674  TIP3      H2             17.8215850248      -21.2732493232       -4.3003071492  SOLV      1663            0.0000000000
      5110      1675  TIP3      OH2            20.3621450248      -26.5946693232      -14.4896071492  SOLV      1664            0.0000000000
      5111      1675  TIP3      H1             19.8402550248      -26.2382593232      -15.2085171492  SOLV      1664            0.0000000000
      5112      1675  TIP3      H2             20.3290650248      -25.9198893232      -13.8115171492  SOLV      1664            0.0000000000
      5113      1676  TIP3      OH2            18.7110450248      -29.3551093232      -15.9388971492  SOLV      1665            0.0000000000
      5114      1676  TIP3      H1             18.8074850248      -28.6884093232      -16.6189271492  SOLV      1665            0.0000000000
      5115      1676  TIP3      H2             18.5710050248      -30.1704793232      -16.4203471492  SOLV      1665            0.0000000000
      5116      1677  TIP3      OH2            17.8805150248      -27.9748693232      -10.3178671492  SOLV      1666            0.0000000000
      5117      1677  TIP3      H1             17.7303950248      -28.9200093232      -10.3380871492  SOLV      1666            0.0000000000
      5118      1677  TIP3      H2             17.5269650248      -27.6937293232       -9.4739571492  SOLV      1666            0.0000000000
      5119      1678  TIP3      OH2             2.9157550248      -25.8966493232       -6.3074871492  SOLV      1667            0.0000000000
      5120      1678  TIP3      H1              3.1000450248      -25.9784793232       -7.2431971492  SOLV      1667            0.0000000000
      5121      1678  TIP3      H2              3.7650450248      -26.0209493232       -5.8838471492  SOLV      1667            0.0000000000
      5122      1679  TIP3      OH2            18.7368050248      -26.0045393232       -0.6790371492  SOLV      1668            0.0000000000
      5123      1679  TIP3      H1             19.3195350248      -26.7393093232       -0.4873171492  SOLV      1668            0.0000000000
      5124      1679  TIP3      H2             19.3007350248      -25.2325093232       -0.6324571492  SOLV      1668            0.0000000000
      5125      1680  TIP3      OH2            20.2335150248      -28.1019593232        0.0055028508  SOLV      1669            0.0000000000
      5126      1680  TIP3      H1             19.3701850248      -28.4807493232       -0.1600271492  SOLV      1669            0.0000000000
      5127      1680  TIP3      H2             20.8378850248      -28.8404793232       -0.0689171492  SOLV      1669            0.0000000000
      5128      1681  TIP3      OH2            17.5909950248      -30.3922893232      -11.8553571492  SOLV      1670            0.0000000000
      5129      1681  TIP3      H1             17.8707050248      -31.2992493232      -11.7311871492  SOLV      1670            0.0000000000
      5130      1681  TIP3      H2             18.3501650248      -29.9581393232      -12.2444371492  SOLV      1670            0.0000000000
      5131      1682  TIP3      OH2            18.2028250248      -29.8105493232       -6.4194671492  SOLV      1671            0.0000000000
      5132      1682  TIP3      H1             19.1356250248      -29.5985593232       -6.4538671492  SOLV      1671            0.0000000000
      5133      1682  TIP3      H2             17.9675750248      -29.7093393232       -5.4971671492  SOLV      1671            0.0000000000
      5134      1683  TIP3      OH2            18.2320150248      -29.0740193232       -3.6435271492  SOLV      1672            0.0000000000
      5135      1683  TIP3      H1             17.3891450248      -28.8059793232       -3.2775471492  SOLV      1672            0.0000000000
      5136      1683  TIP3      H2             18.6744450248      -28.2518293232       -3.8544171492  SOLV      1672            0.0000000000
      5137      1684  TIP3      OH2             2.5132350248      -30.6261493232       -0.1666071492  SOLV      1673            0.0000000000
      5138      1684  TIP3      H1              3.4327250248      -30.7483193232        0.0697028508  SOLV      1673            0.0000000000
      5139      1684  TIP3      H2              2.0636850248      -31.3761793232        0.2227428508  SOLV      1673            0.0000000000
      5140      1685  TIP3      OH2             3.7344850248      -32.3139893232       -7.2753171492  SOLV      1674            0.0000000000
      5141      1685  TIP3      H1              4.1796450248      -33.1057393232       -6.9733471492  SOLV      1674            0.0000000000
      5142      1685  TIP3      H2              4.2007850248      -31.5974693232       -6.8447571492  SOLV      1674            0.0000000000
      5143      1686  TIP3      OH2             2.0385150248      -29.3146893232       -6.2062971492  SOLV      1675            0.0000000000
      5144      1686  TIP3      H1              2.5304950248      -29.5356393232       -6.9970971492  SOLV      1675            0.0000000000
      5145      1686  TIP3      H2              2.4006050248      -28.4743493232       -5.9253471492  SOLV      1675            0.0000000000
      5146      1687  TIP3      OH2            17.1228850248      -18.0726093232      -10.2063171492  SOLV      1676            0.0000000000
      5147      1687  TIP3      H1             17.7751750248      -18.4203993232      -10.8144071492  SOLV      1676            0.0000000000
      5148      1687  TIP3      H2             17.6332650248      -17.5842893232       -9.5603471492  SOLV      1676            0.0000000000
      5149      1688  TIP3      OH2             4.5076350248      -21.1434693232        0.3367728508  SOLV      1677            0.0000000000
      5150      1688  TIP3      H1              3.6868850248      -20.9688193232       -0.1237571492  SOLV      1677            0.0000000000
      5151      1688  TIP3      H2              4.2554150248      -21.2169993232        1.2572128508  SOLV      1677            0.0000000000
      5152      1689  TIP3      OH2             7.4619250248      -20.1693493232       -3.4048271492  SOLV      1678            0.0000000000
      5153      1689  TIP3      H1              7.0370350248      -19.3594993232       -3.6873671492  SOLV      1678            0.0000000000
      5154      1689  TIP3      H2              8.3662050248      -20.0839393232       -3.7068471492  SOLV      1678            0.0000000000
      5155      1690  TIP3      OH2            11.7730650248      -18.7703493232       -0.4454571492  SOLV      1679            0.0000000000
      5156      1690  TIP3      H1             11.9578150248      -19.1037393232        0.4325728508  SOLV      1679            0.0000000000
      5157      1690  TIP3      H2             12.6195150248      -18.4604893232       -0.7675371492  SOLV      1679            0.0000000000
      5158      1691  TIP3      OH2            14.1181050248      -17.4844593232       -1.2013171492  SOLV      1680            0.0000000000
      5159      1691  TIP3      H1             14.7949950248      -18.1172293232       -1.4413971492  SOLV      1680            0.0000000000
      5160      1691  TIP3      H2             14.4399850248      -17.0834093232       -0.3939871492  SOLV      1680            0.0000000000
      5161      1692  TIP3      OH2             4.8635950248      -16.9129593232       -3.3572971492  SOLV      1681            0.0000000000
      5162      1692  TIP3      H1              4.1432350248      -16.4728593232       -3.8085271492  SOLV      1681            0.0000000000
      5163      1692  TIP3      H2              4.4979950248      -17.1634893232       -2.5088971492  SOLV      1681            0.0000000000
      5164      1693  TIP3      OH2             7.3308550248      -17.3125693232       -4.3275771492  SOLV      1682            0.0000000000
      5165      1693  TIP3      H1              6.4660750248      -17.2407193232       -3.9235671492  SOLV      1682            0.0000000000
      5166      1693  TIP3      H2              7.2757550248      -16.7658393232       -5.1113271492  SOLV      1682            0.0000000000
      5167      1694  TIP3      OH2            12.0414150248      -17.4246793232       -5.1519771492  SOLV      1683            0.0000000000
      5168      1694  TIP3      H1             11.5848150248      -16.8957093232       -5.8061371492  SOLV      1683            0.0000000000
      5169      1694  TIP3      H2             12.2042150248      -16.8215393232       -4.4267471492  SOLV      1683            0.0000000000
      5170      1695  TIP3      OH2            14.3690450248      -18.5467193232       -4.2069471492  SOLV      1684            0.0000000000
      5171      1695  TIP3      H1             13.4644150248      -18.3816993232       -4.4727371492  SOLV      1684            0.0000000000
      5172      1695  TIP3      H2             14.7979050248      -17.6934993232       -4.2726071492  SOLV      1684            0.0000000000
      5173      1696  TIP3      OH2            16.9732350248      -16.9768093232       -3.9121671492  SOLV      1685            0.0000000000
      5174      1696  TIP3      H1             16.7914350248      -16.0609193232       -4.1226771492  SOLV      1685            0.0000000000
      5175      1696  TIP3      H2             17.1500150248      -17.3870993232       -4.7587071492  SOLV      1685            0.0000000000
      5176      1697  TIP3      OH2             4.2784050248      -18.2897093232       -6.4471171492  SOLV      1686            0.0000000000
      5177      1697  TIP3      H1              4.2600050248      -18.7151993232       -5.5898871492  SOLV      1686            0.0000000000
      5178      1697  TIP3      H2              5.0831950248      -18.6082093232       -6.8558971492  SOLV      1686            0.0000000000
      5179      1698  TIP3      OH2             6.4197150248      -19.5798393232       -7.7921271492  SOLV      1687            0.0000000000
      5180      1698  TIP3      H1              6.2007850248      -20.4960993232       -7.6225271492  SOLV      1687            0.0000000000
      5181      1698  TIP3      H2              7.2439350248      -19.4397993232       -7.3259871492  SOLV      1687            0.0000000000
      5182      1699  TIP3      OH2             8.9569650248      -19.1099093232       -6.9433271492  SOLV      1688            0.0000000000
      5183      1699  TIP3      H1              9.1695350248      -19.9980093232       -7.2302371492  SOLV      1688            0.0000000000
      5184      1699  TIP3      H2              9.0214750248      -19.1441393232       -5.9889271492  SOLV      1688            0.0000000000
      5185      1700  TIP3      OH2             3.5293750248      -19.0657893232      -13.2758871492  SOLV      1689            0.0000000000
      5186      1700  TIP3      H1              2.8443650248      -19.1038993232      -13.9433771492  SOLV      1689            0.0000000000
      5187      1700  TIP3      H2              3.5330950248      -18.1530293232      -12.9876771492  SOLV      1689            0.0000000000
      5188      1701  TIP3      OH2            12.3937250248      -17.8562993232      -14.8782671492  SOLV      1690            0.0000000000
      5189      1701  TIP3      H1             13.2597450248      -17.4895593232      -15.0564471492  SOLV      1690            0.0000000000
      5190      1701  TIP3      H2             12.1470050248      -18.2954993232      -15.6921871492  SOLV      1690            0.0000000000
      5191      1702  TIP3      OH2            19.1026850248      -18.2932693232      -12.1991571492  SOLV      1691            0.0000000000
      5192      1702  TIP3      H1             18.9083950248      -19.0410593232      -12.7641971492  SOLV      1691            0.0000000000
      5193      1702  TIP3      H2             19.0636950248      -17.5352593232      -12.7823671492  SOLV      1691            0.0000000000
      5194      1703  TIP3      OH2             5.3474950248      -18.1457093232      -16.2506771492  SOLV      1692            0.0000000000
      5195      1703  TIP3      H1              5.0799550248      -17.8594193232      -15.3773671492  SOLV      1692            0.0000000000
      5196      1703  TIP3      H2              6.1187550248      -18.6917893232      -16.0984271492  SOLV      1692            0.0000000000
      5197      1704  TIP3      OH2            18.3203050248      -19.5420293232       -0.0489771492  SOLV      1693            0.0000000000
      5198      1704  TIP3      H1             17.5384950248      -19.7282293232       -0.5689171492  SOLV      1693            0.0000000000
      5199      1704  TIP3      H2             18.2482950248      -18.6125993232        0.1682728508  SOLV      1693            0.0000000000
      5200      1705  TIP3      OH2            24.0279750248      -26.7863093232       -5.0064471492  SOLV      1694            0.0000000000
      5201      1705  TIP3      H1             24.0691850248      -27.4119793232       -4.2832071492  SOLV      1694            0.0000000000
      5202      1705  TIP3      H2             24.7307450248      -26.1624493232       -4.8244071492  SOLV      1694            0.0000000000
      5203      1706  TIP3      OH2            24.9512850248      -22.3364193232       -6.4715371492  SOLV      1695            0.0000000000
      5204      1706  TIP3      H1             24.5818050248      -23.1383693232       -6.8411071492  SOLV      1695            0.0000000000
      5205      1706  TIP3      H2             25.8923950248      -22.5049293232       -6.4251971492  SOLV      1695            0.0000000000
      5206      1707  TIP3      OH2            21.5613350248      -28.6761593232      -11.0786571492  SOLV      1696            0.0000000000
      5207      1707  TIP3      H1             21.1136750248      -27.8302893232      -11.0970071492  SOLV      1696            0.0000000000
      5208      1707  TIP3      H2             21.0004550248      -29.2557393232      -11.5941471492  SOLV      1696            0.0000000000
      5209      1708  TIP3      OH2            22.2719450248      -26.5141993232       -8.9528571492  SOLV      1697            0.0000000000
      5210      1708  TIP3      H1             22.4852950248      -27.2840393232       -8.4255571492  SOLV      1697            0.0000000000
      5211      1708  TIP3      H2             23.0097050248      -26.4245293232       -9.5560971492  SOLV      1697            0.0000000000
      5212      1709  TIP3      OH2            22.9645950248      -29.0759193232       -7.8312371492  SOLV      1698            0.0000000000
      5213      1709  TIP3      H1             23.6182550248      -29.6257493232       -7.3992271492  SOLV      1698            0.0000000000
      5214      1709  TIP3      H2             22.9885250248      -29.3500193232       -8.7480371492  SOLV      1698            0.0000000000
      5215      1710  TIP3      OH2            26.1312050248      -22.9147893232       -3.4447771492  SOLV      1699            0.0000000000
      5216      1710  TIP3      H1             26.1259650248      -22.0354393232       -3.8228471492  SOLV      1699            0.0000000000
      5217      1710  TIP3      H2             25.2776150248      -22.9983793232       -3.0197871492  SOLV      1699            0.0000000000
      5218      1711  TIP3      OH2            22.2522950248      -23.2439993232      -12.6628471492  SOLV      1700            0.0000000000
      5219      1711  TIP3      H1             21.9803850248      -23.0148993232      -13.5515571492  SOLV      1700            0.0000000000
      5220      1711  TIP3      H2             22.2978650248      -22.4061193232      -12.2023171492  SOLV      1700            0.0000000000
      5221      1712  TIP3      OH2            24.6653450248      -26.2056993232       -2.1528771492  SOLV      1701            0.0000000000
      5222      1712  TIP3      H1             24.7356650248      -25.5550193232       -1.4543771492  SOLV      1701            0.0000000000
      5223      1712  TIP3      H2             23.7745650248      -26.1029493232       -2.4877871492  SOLV      1701            0.0000000000
      5224      1713  TIP3      OH2            25.9849450248      -20.3323093232       -0.6180671492  SOLV      1702            0.0000000000
      5225      1713  TIP3      H1             25.9924750248      -20.4683393232       -1.5655171492  SOLV      1702            0.0000000000
      5226      1713  TIP3      H2             25.0689850248      -20.4494993232       -0.3660671492  SOLV      1702            0.0000000000
      5227      1714  TIP3      OH2            21.5820150248      -24.1392893232       -3.3278771492  SOLV      1703            0.0000000000
      5228      1714  TIP3      H1             21.0808550248      -24.1673493232       -4.1429071492  SOLV      1703            0.0000000000
      5229      1714  TIP3      H2             21.5873850248      -25.0449693232       -3.0181471492  SOLV      1703            0.0000000000
      5230      1715  TIP3      OH2            21.3322850248      -21.3589093232       -6.4438571492  SOLV      1704            0.0000000000
      5231      1715  TIP3      H1             22.2783450248      -21.5032093232       -6.4629071492  SOLV      1704            0.0000000000
      5232      1715  TIP3      H2             21.2199150248      -20.5746293232       -5.9067371492  SOLV      1704            0.0000000000
      5233      1716  TIP3      OH2            24.5764950248      -18.5579493232      -10.2983871492  SOLV      1705            0.0000000000
      5234      1716  TIP3      H1             24.7285350248      -18.9059093232       -9.4197371492  SOLV      1705            0.0000000000
      5235      1716  TIP3      H2             23.7255350248      -18.9142193232      -10.5536671492  SOLV      1705            0.0000000000
      5236      1717  TIP3      OH2            23.8310650248      -22.8157493232       -2.2845971492  SOLV      1706            0.0000000000
      5237      1717  TIP3      H1             24.0471950248      -23.1771893232       -1.4250171492  SOLV      1706            0.0000000000
      5238      1717  TIP3      H2             22.9755350248      -23.1903693232       -2.4942471492  SOLV      1706            0.0000000000
      5239      1718  TIP3      OH2            24.2909250248      -29.0598993232       -3.3269571492  SOLV      1707            0.0000000000
      5240      1718  TIP3      H1             24.2528650248      -28.6597393232       -2.4582471492  SOLV      1707            0.0000000000
      5241      1718  TIP3      H2             23.8000350248      -29.8766593232       -3.2366671492  SOLV      1707            0.0000000000
      5242      1719  TIP3      OH2            20.8990050248      -31.9437193232       -9.4764871492  SOLV      1708            0.0000000000
      5243      1719  TIP3      H1             21.5297750248      -31.9725093232       -8.7570971492  SOLV      1708            0.0000000000
      5244      1719  TIP3      H2             21.3484350248      -32.3688493232      -10.2068971492  SOLV      1708            0.0000000000
      5245      1720  TIP3      OH2            22.1732150248      -31.1975193232      -14.0524471492  SOLV      1709            0.0000000000
      5246      1720  TIP3      H1             22.6473850248      -30.6065293232      -14.6373571492  SOLV      1709            0.0000000000
      5247      1720  TIP3      H2             21.4558550248      -30.6672293232      -13.7054371492  SOLV      1709            0.0000000000
      5248      1721  TIP3      OH2            23.9476550248      -30.1028593232      -10.3689871492  SOLV      1710            0.0000000000
      5249      1721  TIP3      H1             23.0584550248      -30.0033093232      -10.7090271492  SOLV      1710            0.0000000000
      5250      1721  TIP3      H2             24.2441450248      -30.9445593232      -10.7151971492  SOLV      1710            0.0000000000
      5251      1722  TIP3      OH2            24.4099950248      -24.3511893232       -0.0467571492  SOLV      1711            0.0000000000
      5252      1722  TIP3      H1             25.1422350248      -24.0965993232        0.5146928508  SOLV      1711            0.0000000000
      5253      1722  TIP3      H2             23.6298650248      -24.1466493232        0.4687828508  SOLV      1711            0.0000000000
      5254      1723  TIP3      OH2            24.7349650248      -25.0478093232       -7.4403171492  SOLV      1712            0.0000000000
      5255      1723  TIP3      H1             25.4796850248      -25.0502393232       -8.0416671492  SOLV      1712            0.0000000000
      5256      1723  TIP3      H2             24.8126250248      -25.8714293232       -6.9588071492  SOLV      1712            0.0000000000
      5257      1724  TIP3      OH2            21.7429350248      -26.5871193232       -2.1254671492  SOLV      1713            0.0000000000
      5258      1724  TIP3      H1             21.9657950248      -27.0051593232       -1.2937171492  SOLV      1713            0.0000000000
      5259      1724  TIP3      H2             21.1409450248      -27.1996193232       -2.5481871492  SOLV      1713            0.0000000000
      5260      1725  TIP3      OH2            27.1099050248      -21.5299893232      -10.0361671492  SOLV      1714            0.0000000000
      5261      1725  TIP3      H1             27.6371250248      -20.7565493232      -10.2362871492  SOLV      1714            0.0000000000
      5262      1725  TIP3      H2             26.2297550248      -21.3050693232      -10.3377671492  SOLV      1714            0.0000000000
      5263      1726  TIP3      OH2            22.8646750248      -26.6675793232      -15.4489271492  SOLV      1715            0.0000000000
      5264      1726  TIP3      H1             23.4806650248      -26.0408593232      -15.0694471492  SOLV      1715            0.0000000000
      5265      1726  TIP3      H2             22.0029350248      -26.3515993232      -15.1772771492  SOLV      1715            0.0000000000
      5266      1727  TIP3      OH2            27.2202150248      -18.8452393232      -10.9145171492  SOLV      1716            0.0000000000
      5267      1727  TIP3      H1             26.2702650248      -18.7394993232      -10.8631871492  SOLV      1716            0.0000000000
      5268      1727  TIP3      H2             27.5720250248      -18.0244993232      -10.5697671492  SOLV      1716            0.0000000000
      5269      1728  TIP3      OH2            23.3768850248      -31.8338493232       -2.5673271492  SOLV      1717            0.0000000000
      5270      1728  TIP3      H1             22.4841150248      -31.4953093232       -2.6349271492  SOLV      1717            0.0000000000
      5271      1728  TIP3      H2             23.2781650248      -32.6892393232       -2.1492471492  SOLV      1717            0.0000000000
      5272      1729  TIP3      OH2            23.0280850248      -20.0294093232       -4.1323871492  SOLV      1718            0.0000000000
      5273      1729  TIP3      H1             23.2451150248      -20.9611693232       -4.1634171492  SOLV      1718            0.0000000000
      5274      1729  TIP3      H2             23.2744350248      -19.7549093232       -3.2491071492  SOLV      1718            0.0000000000
      5275      1730  TIP3      OH2            24.2797150248      -24.7551993232      -13.9563671492  SOLV      1719            0.0000000000
      5276      1730  TIP3      H1             23.5936450248      -24.4029493232      -13.3893971492  SOLV      1719            0.0000000000
      5277      1730  TIP3      H2             24.8025050248      -23.9922393232      -14.2029371492  SOLV      1719            0.0000000000
      5278      1731  TIP3      OH2            24.8956050248      -22.1413093232      -15.0595871492  SOLV      1720            0.0000000000
      5279      1731  TIP3      H1             25.4877550248      -21.4418293232      -14.7833471492  SOLV      1720            0.0000000000
      5280      1731  TIP3      H2             25.3549050248      -22.5743593232      -15.7791271492  SOLV      1720            0.0000000000
      5281      1732  TIP3      OH2            23.2115250248      -29.4770093232      -15.9436471492  SOLV      1721            0.0000000000
      5282      1732  TIP3      H1             23.1667850248      -28.5376993232      -15.7649471492  SOLV      1721            0.0000000000
      5283      1732  TIP3      H2             22.3238450248      -29.7125193232      -16.2134371492  SOLV      1721            0.0000000000
      5284      1733  TIP3      OH2            22.9500550248      -20.7546393232      -11.1099671492  SOLV      1722            0.0000000000
      5285      1733  TIP3      H1             22.1179150248      -20.2823693232      -11.0828271492  SOLV      1722            0.0000000000
      5286      1733  TIP3      H2             23.4958850248      -20.2448793232      -11.7086571492  SOLV      1722            0.0000000000
      5287      1734  TIP3      OH2            22.2384250248      -18.1422693232        0.2198328508  SOLV      1723            0.0000000000
      5288      1734  TIP3      H1             22.7786450248      -18.3588693232        0.9797528508  SOLV      1723            0.0000000000
      5289      1734  TIP3      H2             21.7572250248      -18.9476693232        0.0300828508  SOLV      1723            0.0000000000
      5290      1735  TIP3      OH2            26.8357650248      -19.2228293232        1.8402528508  SOLV      1724            0.0000000000
      5291      1735  TIP3      H1             27.6034850248      -19.6817493232        2.1811728508  SOLV      1724            0.0000000000
      5292      1735  TIP3      H2             26.8143850248      -19.4488493232        0.9103728508  SOLV      1724            0.0000000000
      5293      1736  TIP3      OH2            22.1453750248      -24.3318593232        1.1742628508  SOLV      1725            0.0000000000
      5294      1736  TIP3      H1             22.2894250248      -25.2337893232        0.8879328508  SOLV      1725            0.0000000000
      5295      1736  TIP3      H2             21.3731150248      -24.0456493232        0.6864928508  SOLV      1725            0.0000000000
      5296      1737  TIP3      OH2            22.9780250248      -27.1315293232        0.5941928508  SOLV      1726            0.0000000000
      5297      1737  TIP3      H1             23.3861450248      -27.9888693232        0.4732528508  SOLV      1726            0.0000000000
      5298      1737  TIP3      H2             22.7177850248      -27.1173993232        1.5152228508  SOLV      1726            0.0000000000
      5299      1738  TIP3      OH2            22.1728250248      -22.4457393232      -15.6409871492  SOLV      1727            0.0000000000
      5300      1738  TIP3      H1             23.0867450248      -22.3668493232      -15.3675971492  SOLV      1727            0.0000000000
      5301      1738  TIP3      H2             22.1801350248      -23.1327793232      -16.3074271492  SOLV      1727            0.0000000000
      5302      1739  TIP3      OH2            20.8218850248      -17.0528893232      -10.5635971492  SOLV      1728            0.0000000000
      5303      1739  TIP3      H1             20.1745950248      -17.5147193232      -11.0964771492  SOLV      1728            0.0000000000
      5304      1739  TIP3      H2             21.1763450248      -17.7245593232       -9.9809771492  SOLV      1728            0.0000000000
      5305      1740  TIP3      OH2            21.6918050248      -18.9721893232       -8.7589771492  SOLV      1729            0.0000000000
      5306      1740  TIP3      H1             21.3574850248      -19.8524593232       -8.5869571492  SOLV      1729            0.0000000000
      5307      1740  TIP3      H2             21.9140450248      -18.6266893232       -7.8944171492  SOLV      1729            0.0000000000
      5308      1741  TIP3      OH2            21.7717550248      -25.8966493232       -6.3074871492  SOLV      1730            0.0000000000
      5309      1741  TIP3      H1             21.9560450248      -25.9784793232       -7.2431971492  SOLV      1730            0.0000000000
      5310      1741  TIP3      H2             22.6210450248      -26.0209493232       -5.8838471492  SOLV      1730            0.0000000000
      5311      1742  TIP3      OH2            21.3692350248      -30.6261493232       -0.1666071492  SOLV      1731            0.0000000000
      5312      1742  TIP3      H1             22.2887250248      -30.7483193232        0.0697028508  SOLV      1731            0.0000000000
      5313      1742  TIP3      H2             20.9196850248      -31.3761793232        0.2227428508  SOLV      1731            0.0000000000
      5314      1743  TIP3      OH2            22.5904850248      -32.3139893232       -7.2753171492  SOLV      1732            0.0000000000
      5315      1743  TIP3      H1             23.0356450248      -33.1057393232       -6.9733471492  SOLV      1732            0.0000000000
      5316      1743  TIP3      H2             23.0567850248      -31.5974693232       -6.8447571492  SOLV      1732            0.0000000000
      5317      1744  TIP3      OH2            20.8945150248      -29.3146893232       -6.2062971492  SOLV      1733            0.0000000000
      5318      1744  TIP3      H1             21.3864950248      -29.5356393232       -6.9970971492  SOLV      1733            0.0000000000
      5319      1744  TIP3      H2             21.2566050248      -28.4743493232       -5.9253471492  SOLV      1733            0.0000000000
      5320      1745  TIP3      OH2            23.3636350248      -21.1434693232        0.3367728508  SOLV      1734            0.0000000000
      5321      1745  TIP3      H1             22.5428850248      -20.9688193232       -0.1237571492  SOLV      1734            0.0000000000
      5322      1745  TIP3      H2             23.1114150248      -21.2169993232        1.2572128508  SOLV      1734            0.0000000000
      5323      1746  TIP3      OH2            26.3179250248      -20.1693493232       -3.4048271492  SOLV      1735            0.0000000000
      5324      1746  TIP3      H1             25.8930350248      -19.3594993232       -3.6873671492  SOLV      1735            0.0000000000
      5325      1746  TIP3      H2             27.2222050248      -20.0839393232       -3.7068471492  SOLV      1735            0.0000000000
      5326      1747  TIP3      OH2            23.7195950248      -16.9129593232       -3.3572971492  SOLV      1736            0.0000000000
      5327      1747  TIP3      H1             22.9992350248      -16.4728593232       -3.8085271492  SOLV      1736            0.0000000000
      5328      1747  TIP3      H2             23.3539950248      -17.1634893232       -2.5088971492  SOLV      1736            0.0000000000
      5329      1748  TIP3      OH2            26.1868550248      -17.3125693232       -4.3275771492  SOLV      1737            0.0000000000
      5330      1748  TIP3      H1             25.3220750248      -17.2407193232       -3.9235671492  SOLV      1737            0.0000000000
      5331      1748  TIP3      H2             26.1317550248      -16.7658393232       -5.1113271492  SOLV      1737            0.0000000000
      5332      1749  TIP3      OH2            23.1344050248      -18.2897093232       -6.4471171492  SOLV      1738            0.0000000000
      5333      1749  TIP3      H1             23.1160050248      -18.7151993232       -5.5898871492  SOLV      1738            0.0000000000
      5334      1749  TIP3      H2             23.9391950248      -18.6082093232       -6.8558971492  SOLV      1738            0.0000000000
      5335      1750  TIP3      OH2            25.2757150248      -19.5798393232       -7.7921271492  SOLV      1739            0.0000000000
      5336      1750  TIP3      H1             25.0567850248      -20.4960993232       -7.6225271492  SOLV      1739            0.0000000000
      5337      1750  TIP3      H2             26.0999350248      -19.4397993232       -7.3259871492  SOLV      1739            0.0000000000
      5338      1751  TIP3      OH2            22.3853750248      -19.0657893232      -13.2758871492  SOLV      1740            0.0000000000
      5339      1751  TIP3      H1             21.7003650248      -19.1038993232      -13.9433771492  SOLV      1740            0.0000000000
      5340      1751  TIP3      H2             22.3890950248      -18.1530293232      -12.9876771492  SOLV      1740            0.0000000000
      5341      1752  TIP3      OH2            24.2034950248      -18.1457093232      -16.2506771492  SOLV      1741            0.0000000000
      5342      1752  TIP3      H1             23.9359550248      -17.8594193232      -15.3773671492  SOLV      1741            0.0000000000
      5343      1752  TIP3      H2             24.9747550248      -18.6917893232      -16.0984271492  SOLV      1741            0.0000000000
      5344      1753  TIP3      OH2           -23.8416549752       -6.7995893232      -10.0182571492  SOLV      1742            0.0000000000
      5345      1753  TIP3      H1            -23.7525449752       -5.8557693232      -10.1505471492  SOLV      1742            0.0000000000
      5346      1753  TIP3      H2            -24.4798949752       -7.0749493232      -10.6763171492  SOLV      1742            0.0000000000
      5347      1754  TIP3      OH2           -32.5400249752       -7.9303093232       -5.0064471492  SOLV      1743            0.0000000000
      5348      1754  TIP3      H1            -32.4988149752       -8.5559793232       -4.2832071492  SOLV      1743            0.0000000000
      5349      1754  TIP3      H2            -31.8372549752       -7.3064493232       -4.8244071492  SOLV      1743            0.0000000000
      5350      1755  TIP3      OH2           -21.2025049752       -4.6054793232       -8.2979271492  SOLV      1744            0.0000000000
      5351      1755  TIP3      H1            -21.6432349752       -5.3258793232       -7.8473671492  SOLV      1744            0.0000000000
      5352      1755  TIP3      H2            -21.2155349752       -3.8847593232       -7.6681571492  SOLV      1744            0.0000000000
      5353      1756  TIP3      OH2           -31.6167149752       -3.4804193232       -6.4715371492  SOLV      1745            0.0000000000
      5354      1756  TIP3      H1            -31.9861949752       -4.2823693232       -6.8411071492  SOLV      1745            0.0000000000
      5355      1756  TIP3      H2            -30.6756049752       -3.6489293232       -6.4251971492  SOLV      1745            0.0000000000
      5356      1757  TIP3      OH2           -35.0066649752       -9.8201593232      -11.0786571492  SOLV      1746            0.0000000000
      5357      1757  TIP3      H1            -35.4543249752       -8.9742893232      -11.0970071492  SOLV      1746            0.0000000000
      5358      1757  TIP3      H2            -35.5675449752      -10.3997393232      -11.5941471492  SOLV      1746            0.0000000000
      5359      1758  TIP3      OH2           -34.2960549752       -7.6581993232       -8.9528571492  SOLV      1747            0.0000000000
      5360      1758  TIP3      H1            -34.0827049752       -8.4280393232       -8.4255571492  SOLV      1747            0.0000000000
      5361      1758  TIP3      H2            -33.5582949752       -7.5685293232       -9.5560971492  SOLV      1747            0.0000000000
      5362      1759  TIP3      OH2           -24.0909549752        0.4986906768       -8.0858871492  SOLV      1748            0.0000000000
      5363      1759  TIP3      H1            -23.4713149752       -0.1778393232       -8.3589671492  SOLV      1748            0.0000000000
      5364      1759  TIP3      H2            -24.2992149752        0.2807706768       -7.1773971492  SOLV      1748            0.0000000000
      5365      1760  TIP3      OH2           -26.5190849752       -5.1123793232       -6.1933371492  SOLV      1749            0.0000000000
      5366      1760  TIP3      H1            -26.2152949752       -5.7982393232       -6.7879271492  SOLV      1749            0.0000000000
      5367      1760  TIP3      H2            -25.7976849752       -4.9935093232       -5.5755371492  SOLV      1749            0.0000000000
      5368      1761  TIP3      OH2           -17.8561049752      -13.5108493232       -5.3327171492  SOLV      1750            0.0000000000
      5369      1761  TIP3      H1            -17.8068849752      -12.9007293232       -4.5968071492  SOLV      1750            0.0000000000
      5370      1761  TIP3      H2            -17.4305949752      -13.0497593232       -6.0556071492  SOLV      1750            0.0000000000
      5371      1762  TIP3      OH2           -23.3783849752      -10.7181393232       -5.8658571492  SOLV      1751            0.0000000000
      5372      1762  TIP3      H1            -23.2357949752      -11.6644393232       -5.8456971492  SOLV      1751            0.0000000000
      5373      1762  TIP3      H2            -23.4844849752      -10.5111593232       -6.7943671492  SOLV      1751            0.0000000000
      5374      1763  TIP3      OH2           -30.2235549752      -12.6164993232       -8.5933771492  SOLV      1752            0.0000000000
      5375      1763  TIP3      H1            -30.1804449752      -11.7566493232       -9.0117471492  SOLV      1752            0.0000000000
      5376      1763  TIP3      H2            -30.6811449752      -13.1690293232       -9.2270571492  SOLV      1752            0.0000000000
      5377      1764  TIP3      OH2           -22.5012849752      -12.4859393232      -10.1925471492  SOLV      1753            0.0000000000
      5378      1764  TIP3      H1            -21.8548549752      -12.8146193232       -9.5677871492  SOLV      1753            0.0000000000
      5379      1764  TIP3      H2            -21.9913449752      -11.9680393232      -10.8154071492  SOLV      1753            0.0000000000
      5380      1765  TIP3      OH2           -33.6034049752      -10.2199193232       -7.8312371492  SOLV      1754            0.0000000000
      5381      1765  TIP3      H1            -32.9497449752      -10.7697493232       -7.3992271492  SOLV      1754            0.0000000000
      5382      1765  TIP3      H2            -33.5794749752      -10.4940193232       -8.7480371492  SOLV      1754            0.0000000000
      5383      1766  TIP3      OH2           -28.4469549752       -8.6697893232       -8.6160871492  SOLV      1755            0.0000000000
      5384      1766  TIP3      H1            -27.8308549752       -9.1962493232       -8.1066871492  SOLV      1755            0.0000000000
      5385      1766  TIP3      H2            -29.0330749752       -9.3099193232       -9.0197271492  SOLV      1755            0.0000000000
      5386      1767  TIP3      OH2           -17.4646449752      -12.0329293232       -3.0967371492  SOLV      1756            0.0000000000
      5387      1767  TIP3      H1            -18.1531849752      -11.3748593232       -3.1920771492  SOLV      1756            0.0000000000
      5388      1767  TIP3      H2            -17.4491849752      -12.2301393232       -2.1601971492  SOLV      1756            0.0000000000
      5389      1768  TIP3      OH2           -31.4133649752      -13.6986593232       -4.5192971492  SOLV      1757            0.0000000000
      5390      1768  TIP3      H1            -31.6321949752      -13.1685993232       -5.2856971492  SOLV      1757            0.0000000000
      5391      1768  TIP3      H2            -32.0812749752      -13.4721093232       -3.8721571492  SOLV      1757            0.0000000000
      5392      1769  TIP3      OH2           -24.0443849752       -4.1985493232      -10.9753871492  SOLV      1758            0.0000000000
      5393      1769  TIP3      H1            -24.3398749752       -4.5213193232      -11.8266971492  SOLV      1758            0.0000000000
      5394      1769  TIP3      H2            -24.3686049752       -3.2988793232      -10.9341271492  SOLV      1758            0.0000000000
      5395      1770  TIP3      OH2           -28.8442249752       -6.0230893232       -4.2319271492  SOLV      1759            0.0000000000
      5396      1770  TIP3      H1            -29.5843149752       -5.4249393232       -4.1284071492  SOLV      1759            0.0000000000
      5397      1770  TIP3      H2            -28.1302749752       -5.4691293232       -4.5475671492  SOLV      1759            0.0000000000
      5398      1771  TIP3      OH2           -20.7374449752      -13.1950093232       -8.2119571492  SOLV      1760            0.0000000000
      5399      1771  TIP3      H1            -20.9526449752      -13.9606693232       -7.6793571492  SOLV      1760            0.0000000000
      5400      1771  TIP3      H2            -20.0817049752      -12.7225493232       -7.6991071492  SOLV      1760            0.0000000000
      5401      1772  TIP3      OH2           -31.8196349752      -11.8064793232       -6.5670771492  SOLV      1761            0.0000000000
      5402      1772  TIP3      H1            -31.2060049752      -11.1737193232       -6.1938371492  SOLV      1761            0.0000000000
      5403      1772  TIP3      H2            -31.3075649752      -12.2789793232       -7.2233871492  SOLV      1761            0.0000000000
      5404      1773  TIP3      OH2           -30.4367949752       -4.0587893232       -3.4447771492  SOLV      1762            0.0000000000
      5405      1773  TIP3      H1            -30.4420349752       -3.1794393232       -3.8228471492  SOLV      1762            0.0000000000
      5406      1773  TIP3      H2            -31.2903849752       -4.1423793232       -3.0197871492  SOLV      1762            0.0000000000
      5407      1774  TIP3      OH2           -34.3157049752       -4.3879993232      -12.6628471492  SOLV      1763            0.0000000000
      5408      1774  TIP3      H1            -34.5876149752       -4.1588993232      -13.5515571492  SOLV      1763            0.0000000000
      5409      1774  TIP3      H2            -34.2701349752       -3.5501193232      -12.2023171492  SOLV      1763            0.0000000000
      5410      1775  TIP3      OH2           -20.6907349752       -2.7664093232       -5.9499971492  SOLV      1764            0.0000000000
      5411      1775  TIP3      H1            -21.6323649752       -2.7080193232       -5.7883071492  SOLV      1764            0.0000000000
      5412      1775  TIP3      H2            -20.4141249752       -1.8603593232       -6.0870271492  SOLV      1764            0.0000000000
      5413      1776  TIP3      OH2           -20.3900349752      -14.4798793232       -4.5326071492  SOLV      1765            0.0000000000
      5414      1776  TIP3      H1            -21.1261149752      -13.8691693232       -4.5704771492  SOLV      1765            0.0000000000
      5415      1776  TIP3      H2            -19.7066349752      -14.0649793232       -5.0589671492  SOLV      1765            0.0000000000
      5416      1777  TIP3      OH2           -27.3868949752      -16.3931493232       -7.0668071492  SOLV      1766            0.0000000000
      5417      1777  TIP3      H1            -27.5044749752      -17.3415493232       -7.1209771492  SOLV      1766            0.0000000000
      5418      1777  TIP3      H2            -28.2418849752      -16.0605393232       -6.7936971492  SOLV      1766            0.0000000000
      5419      1778  TIP3      OH2           -22.4386149752       -0.9850593232       -9.3248371492  SOLV      1767            0.0000000000
      5420      1778  TIP3      H1            -22.0133849752       -1.6922693232       -9.8098771492  SOLV      1767            0.0000000000
      5421      1778  TIP3      H2            -22.1216149752       -0.1837893232       -9.7416171492  SOLV      1767            0.0000000000
      5422      1779  TIP3      OH2           -21.2789649752       -3.0842093232      -10.8161771492  SOLV      1768            0.0000000000
      5423      1779  TIP3      H1            -21.5364849752       -3.7741993232      -11.4275871492  SOLV      1768            0.0000000000
      5424      1779  TIP3      H2            -21.2078849752       -3.5270893232       -9.9705871492  SOLV      1768            0.0000000000
      5425      1780  TIP3      OH2           -19.5929449752       -4.5175393232       -2.3388271492  SOLV      1769            0.0000000000
      5426      1780  TIP3      H1            -19.4533149752       -5.1092893232       -3.0781271492  SOLV      1769            0.0000000000
      5427      1780  TIP3      H2            -19.4256649752       -3.6449493232       -2.6949471492  SOLV      1769            0.0000000000
      5428      1781  TIP3      OH2           -25.1204049752       -7.5555893232      -12.5662271492  SOLV      1770            0.0000000000
      5429      1781  TIP3      H1            -25.8318549752       -7.0206193232      -12.9181771492  SOLV      1770            0.0000000000
      5430      1781  TIP3      H2            -24.4294449752       -7.5003793232      -13.2263371492  SOLV      1770            0.0000000000
      5431      1782  TIP3      OH2           -25.0664849752       -9.0981593232      -15.5277271492  SOLV      1771            0.0000000000
      5432      1782  TIP3      H1            -24.3654949752       -9.0754693232      -14.8763271492  SOLV      1771            0.0000000000
      5433      1782  TIP3      H2            -24.7641949752       -9.7261893232      -16.1837971492  SOLV      1771            0.0000000000
      5434      1783  TIP3      OH2           -17.7510149752       -8.1777393232       -4.2727871492  SOLV      1772            0.0000000000
      5435      1783  TIP3      H1            -18.4036049752       -7.4831793232       -4.1836971492  SOLV      1772            0.0000000000
      5436      1783  TIP3      H2            -17.2859849752       -7.9676493232       -5.0826271492  SOLV      1772            0.0000000000
      5437      1784  TIP3      OH2           -21.7146349752       -7.3462593232      -11.6146371492  SOLV      1773            0.0000000000
      5438      1784  TIP3      H1            -22.4465349752       -7.1178893232      -11.0415771492  SOLV      1773            0.0000000000
      5439      1784  TIP3      H2            -21.2674149752       -8.0599893232      -11.1598871492  SOLV      1773            0.0000000000
      5440      1785  TIP3      OH2           -21.8172849752       -9.1719993232       -2.5469371492  SOLV      1774            0.0000000000
      5441      1785  TIP3      H1            -21.7373749752       -8.4085593232       -1.9750871492  SOLV      1774            0.0000000000
      5442      1785  TIP3      H2            -22.4185149752       -8.8927593232       -3.2374271492  SOLV      1774            0.0000000000
      5443      1786  TIP3      OH2           -30.0692649752       -6.7156393232       -9.7321371492  SOLV      1775            0.0000000000
      5444      1786  TIP3      H1            -30.3997449752       -7.0862993232      -10.5504371492  SOLV      1775            0.0000000000
      5445      1786  TIP3      H2            -29.4808549752       -7.3862393232       -9.3853071492  SOLV      1775            0.0000000000
      5446      1787  TIP3      OH2           -28.7025149752       -3.2875793232       -7.0509171492  SOLV      1776            0.0000000000
      5447      1787  TIP3      H1            -28.7973849752       -3.8662693232       -7.8074571492  SOLV      1776            0.0000000000
      5448      1787  TIP3      H2            -27.9731549752       -3.6590093232       -6.5546371492  SOLV      1776            0.0000000000
      5449      1788  TIP3      OH2           -29.7027149752       -7.9470793232       -6.0986371492  SOLV      1777            0.0000000000
      5450      1788  TIP3      H1            -29.1374649752       -7.8256593232       -6.8615171492  SOLV      1777            0.0000000000
      5451      1788  TIP3      H2            -29.3838249752       -7.3095793232       -5.4597871492  SOLV      1777            0.0000000000
      5452      1789  TIP3      OH2           -23.3934949752       -2.4438893232       -5.3645871492  SOLV      1778            0.0000000000
      5453      1789  TIP3      H1            -23.6338349752       -1.7815793232       -4.7166671492  SOLV      1778            0.0000000000
      5454      1789  TIP3      H2            -23.5916749752       -3.2783693232       -4.9396271492  SOLV      1778            0.0000000000
      5455      1790  TIP3      OH2           -28.8226449752       -3.5478093232       -1.3814471492  SOLV      1779            0.0000000000
      5456      1790  TIP3      H1            -29.1338949752       -2.7654893232       -0.9261271492  SOLV      1779            0.0000000000
      5457      1790  TIP3      H2            -29.4726249752       -3.7008993232       -2.0672471492  SOLV      1779            0.0000000000
      5458      1791  TIP3      OH2           -22.8436849752       -8.1839693232      -13.9295171492  SOLV      1780            0.0000000000
      5459      1791  TIP3      H1            -22.2641349752       -8.0339393232      -13.1826271492  SOLV      1780            0.0000000000
      5460      1791  TIP3      H2            -22.4296849752       -7.7132293232      -14.6528771492  SOLV      1780            0.0000000000
      5461      1792  TIP3      OH2           -25.1171949752       -1.4471193232      -10.4942071492  SOLV      1781            0.0000000000
      5462      1792  TIP3      H1            -24.6434349752       -1.1514893232       -9.7167871492  SOLV      1781            0.0000000000
      5463      1792  TIP3      H2            -25.6802649752       -0.7089593232      -10.7272471492  SOLV      1781            0.0000000000
      5464      1793  TIP3      OH2           -30.5830549752       -1.4763093232       -0.6180671492  SOLV      1782            0.0000000000
      5465      1793  TIP3      H1            -30.5755249752       -1.6123393232       -1.5655171492  SOLV      1782            0.0000000000
      5466      1793  TIP3      H2            -31.4990149752       -1.5934993232       -0.3660671492  SOLV      1782            0.0000000000
      5467      1794  TIP3      OH2           -19.1448449752      -16.4339293232      -14.1165471492  SOLV      1783            0.0000000000
      5468      1794  TIP3      H1            -20.0447749752      -16.2950293232      -13.8214871492  SOLV      1783            0.0000000000
      5469      1794  TIP3      H2            -18.8930049752      -15.6024693232      -14.5183771492  SOLV      1783            0.0000000000
      5470      1795  TIP3      OH2           -31.0789949752       -7.6462093232      -12.1428571492  SOLV      1784            0.0000000000
      5471      1795  TIP3      H1            -31.3708649752       -6.8780393232      -12.6337271492  SOLV      1784            0.0000000000
      5472      1795  TIP3      H2            -31.7534749752       -8.3055893232      -12.3057171492  SOLV      1784            0.0000000000
      5473      1796  TIP3      OH2           -17.9557049752       -2.0676893232      -15.7401571492  SOLV      1785            0.0000000000
      5474      1796  TIP3      H1            -17.8823549752       -1.1286693232      -15.5696271492  SOLV      1785            0.0000000000
      5475      1796  TIP3      H2            -17.0501949752       -2.3728293232      -15.7964271492  SOLV      1785            0.0000000000
      5476      1797  TIP3      OH2           -34.9859849752       -5.2832893232       -3.3278771492  SOLV      1786            0.0000000000
      5477      1797  TIP3      H1            -35.4871449752       -5.3113493232       -4.1429071492  SOLV      1786            0.0000000000
      5478      1797  TIP3      H2            -34.9806149752       -6.1889693232       -3.0181471492  SOLV      1786            0.0000000000
      5479      1798  TIP3      OH2           -35.2357149752       -2.5029093232       -6.4438571492  SOLV      1787            0.0000000000
      5480      1798  TIP3      H1            -34.2896549752       -2.6472093232       -6.4629071492  SOLV      1787            0.0000000000
      5481      1798  TIP3      H2            -35.3480849752       -1.7186293232       -5.9067371492  SOLV      1787            0.0000000000
      5482      1799  TIP3      OH2           -17.0378649752       -1.8369393232       -0.7614871492  SOLV      1788            0.0000000000
      5483      1799  TIP3      H1            -17.0871849752       -2.7921293232       -0.7987271492  SOLV      1788            0.0000000000
      5484      1799  TIP3      H2            -17.8646349752       -1.5694093232       -0.3601071492  SOLV      1788            0.0000000000
      5485      1800  TIP3      OH2           -26.0594649752       -2.2630193232       -1.8853471492  SOLV      1789            0.0000000000
      5486      1800  TIP3      H1            -25.9720049752       -1.4365593232       -1.4104371492  SOLV      1789            0.0000000000
      5487      1800  TIP3      H2            -26.9229549752       -2.5926393232       -1.6364171492  SOLV      1789            0.0000000000
      5488      1801  TIP3      OH2           -25.6448849752        1.5093506768      -12.0792871492  SOLV      1790            0.0000000000
      5489      1801  TIP3      H1            -25.7202849752        1.3880706768      -13.0257671492  SOLV      1790            0.0000000000
      5490      1801  TIP3      H2            -25.6120149752        2.4586206768      -11.9608271492  SOLV      1790            0.0000000000
      5491      1802  TIP3      OH2           -31.9915049752        0.2980506768      -10.2983871492  SOLV      1791            0.0000000000
      5492      1802  TIP3      H1            -31.8394649752       -0.0499093232       -9.4197371492  SOLV      1791            0.0000000000
      5493      1802  TIP3      H2            -32.8424649752       -0.0582193232      -10.5536671492  SOLV      1791            0.0000000000
      5494      1803  TIP3      OH2           -22.5432849752        0.6633706768      -15.0770471492  SOLV      1792            0.0000000000
      5495      1803  TIP3      H1            -22.1684449752       -0.0810193232      -15.5477871492  SOLV      1792            0.0000000000
      5496      1803  TIP3      H2            -22.5389149752        0.3934306768      -14.1587171492  SOLV      1792            0.0000000000
      5497      1804  TIP3      OH2           -22.8744749752        0.5890806768      -12.3278271492  SOLV      1793            0.0000000000
      5498      1804  TIP3      H1            -23.8094949752        0.6892706768      -12.1491271492  SOLV      1793            0.0000000000
      5499      1804  TIP3      H2            -22.5942849752       -0.1203193232      -11.7495071492  SOLV      1793            0.0000000000
      5500      1805  TIP3      OH2           -19.8858849752      -10.3436893232       -0.2812671492  SOLV      1794            0.0000000000
      5501      1805  TIP3      H1            -20.2932049752       -9.8631293232       -1.0019371492  SOLV      1794            0.0000000000
      5502      1805  TIP3      H2            -19.8453149752      -11.2490893232       -0.5891871492  SOLV      1794            0.0000000000
      5503      1806  TIP3      OH2           -32.7369349752       -3.9597493232       -2.2845971492  SOLV      1795            0.0000000000
      5504      1806  TIP3      H1            -32.5208049752       -4.3211893232       -1.4250171492  SOLV      1795            0.0000000000
      5505      1806  TIP3      H2            -33.5924649752       -4.3343693232       -2.4942471492  SOLV      1795            0.0000000000
      5506      1807  TIP3      OH2           -30.1181349752      -15.4896993232       -6.2891771492  SOLV      1796            0.0000000000
      5507      1807  TIP3      H1            -30.9797649752      -15.5768793232       -6.6968871492  SOLV      1796            0.0000000000
      5508      1807  TIP3      H2            -30.1405649752      -14.6336893232       -5.8614171492  SOLV      1796            0.0000000000
      5509      1808  TIP3      OH2           -25.4553549752      -15.7676593232       -2.9144771492  SOLV      1797            0.0000000000
      5510      1808  TIP3      H1            -25.0350449752      -16.1829493232       -2.1614171492  SOLV      1797            0.0000000000
      5511      1808  TIP3      H2            -26.3883949752      -15.9463293232       -2.7972771492  SOLV      1797            0.0000000000
      5512      1809  TIP3      OH2           -22.1288649752      -12.0121393232       -2.0610271492  SOLV      1798            0.0000000000
      5513      1809  TIP3      H1            -22.6429149752      -12.1379193232       -1.2634271492  SOLV      1798            0.0000000000
      5514      1809  TIP3      H2            -22.2843949752      -11.0998293232       -2.3054071492  SOLV      1798            0.0000000000
      5515      1810  TIP3      OH2           -21.3663749752       -7.1511393232      -16.2997271492  SOLV      1799            0.0000000000
      5516      1810  TIP3      H1            -21.3242949752       -7.3737493232      -17.2297271492  SOLV      1799            0.0000000000
      5517      1810  TIP3      H2            -20.5171649752       -6.7524293232      -16.1097371492  SOLV      1799            0.0000000000
      5518      1811  TIP3      OH2           -25.7936249752      -13.2753193232      -15.6293971492  SOLV      1800            0.0000000000
      5519      1811  TIP3      H1            -26.0471449752      -13.2561593232      -14.7065871492  SOLV      1800            0.0000000000
      5520      1811  TIP3      H2            -26.0504149752      -14.1467793232      -15.9307771492  SOLV      1800            0.0000000000
      5521      1812  TIP3      OH2           -30.0271249752      -10.5242493232       -5.1941571492  SOLV      1801            0.0000000000
      5522      1812  TIP3      H1            -30.6689149752      -10.5645193232       -4.4851471492  SOLV      1801            0.0000000000
      5523      1812  TIP3      H2            -29.9899249752       -9.5977793232       -5.4318571492  SOLV      1801            0.0000000000
      5524      1813  TIP3      OH2           -30.0302149752      -10.3032393232      -10.2821571492  SOLV      1802            0.0000000000
      5525      1813  TIP3      H1            -30.9229249752      -10.6436293232      -10.3407771492  SOLV      1802            0.0000000000
      5526      1813  TIP3      H2            -29.5795549752      -10.6801493232      -11.0378371492  SOLV      1802            0.0000000000
      5527      1814  TIP3      OH2           -24.4946649752       -9.8872093232      -11.4650771492  SOLV      1803            0.0000000000
      5528      1814  TIP3      H1            -24.9036349752       -9.0723493232      -11.7565971492  SOLV      1803            0.0000000000
      5529      1814  TIP3      H2            -23.7740449752      -10.0271993232      -12.0793671492  SOLV      1803            0.0000000000
      5530      1815  TIP3      OH2           -25.3925049752       -9.7115693232        0.0229928508  SOLV      1804            0.0000000000
      5531      1815  TIP3      H1            -25.9551249752      -10.4164093232        0.3437728508  SOLV      1804            0.0000000000
      5532      1815  TIP3      H2            -24.5661649752       -9.8323793232        0.4907528508  SOLV      1804            0.0000000000
      5533      1816  TIP3      OH2           -23.4898949752      -10.4411693232       -8.6511071492  SOLV      1805            0.0000000000
      5534      1816  TIP3      H1            -23.6854449752       -9.8354893232       -9.3660471492  SOLV      1805            0.0000000000
      5535      1816  TIP3      H2            -23.3086349752      -11.2746493232       -9.0854771492  SOLV      1805            0.0000000000
      5536      1817  TIP3      OH2           -32.2770749752      -10.2038993232       -3.3269571492  SOLV      1806            0.0000000000
      5537      1817  TIP3      H1            -32.3151349752       -9.8037393232       -2.4582471492  SOLV      1806            0.0000000000
      5538      1817  TIP3      H2            -32.7679649752      -11.0206593232       -3.2366671492  SOLV      1806            0.0000000000
      5539      1818  TIP3      OH2           -28.9113349752      -12.8296693232      -16.5283571492  SOLV      1807            0.0000000000
      5540      1818  TIP3      H1            -29.3422649752      -13.2746593232      -15.7986171492  SOLV      1807            0.0000000000
      5541      1818  TIP3      H2            -29.6294649752      -12.4580393232      -17.0406071492  SOLV      1807            0.0000000000
      5542      1819  TIP3      OH2           -35.6689949752      -13.0877193232       -9.4764871492  SOLV      1808            0.0000000000
      5543      1819  TIP3      H1            -35.0382249752      -13.1165093232       -8.7570971492  SOLV      1808            0.0000000000
      5544      1819  TIP3      H2            -35.2195649752      -13.5128493232      -10.2068971492  SOLV      1808            0.0000000000
      5545      1820  TIP3      OH2           -34.3947849752      -12.3415193232      -14.0524471492  SOLV      1809            0.0000000000
      5546      1820  TIP3      H1            -33.9206149752      -11.7505293232      -14.6373571492  SOLV      1809            0.0000000000
      5547      1820  TIP3      H2            -35.1121449752      -11.8112293232      -13.7054371492  SOLV      1809            0.0000000000
      5548      1821  TIP3      OH2           -27.4486849752      -12.8754893232       -9.1957471492  SOLV      1810            0.0000000000
      5549      1821  TIP3      H1            -28.3595749752      -12.8188093232       -8.9071471492  SOLV      1810            0.0000000000
      5550      1821  TIP3      H2            -26.9433949752      -12.9359393232       -8.3850271492  SOLV      1810            0.0000000000
      5551      1822  TIP3      OH2           -32.6203449752      -11.2468593232      -10.3689871492  SOLV      1811            0.0000000000
      5552      1822  TIP3      H1            -33.5095449752      -11.1473093232      -10.7090271492  SOLV      1811            0.0000000000
      5553      1822  TIP3      H2            -32.3238549752      -12.0885593232      -10.7151971492  SOLV      1811            0.0000000000
      5554      1823  TIP3      OH2           -28.9671649752      -11.2465993232      -12.7125271492  SOLV      1812            0.0000000000
      5555      1823  TIP3      H1            -28.0356149752      -11.1175993232      -12.5342171492  SOLV      1812            0.0000000000
      5556      1823  TIP3      H2            -29.1821349752      -10.5771693232      -13.3620571492  SOLV      1812            0.0000000000
      5557      1824  TIP3      OH2           -23.0434949752      -13.6408593232       -5.9315671492  SOLV      1813            0.0000000000
      5558      1824  TIP3      H1            -23.7203349752      -13.5095493232       -5.2675971492  SOLV      1813            0.0000000000
      5559      1824  TIP3      H2            -23.5290049752      -13.7959093232       -6.7417971492  SOLV      1813            0.0000000000
      5560      1825  TIP3      OH2           -30.2931449752      -10.0523793232      -15.1459171492  SOLV      1814            0.0000000000
      5561      1825  TIP3      H1            -30.8356349752      -10.4319993232      -15.8371571492  SOLV      1814            0.0000000000
      5562      1825  TIP3      H2            -29.4596549752       -9.8579093232      -15.5745071492  SOLV      1814            0.0000000000
      5563      1826  TIP3      OH2           -32.1580049752       -5.4951893232       -0.0467571492  SOLV      1815            0.0000000000
      5564      1826  TIP3      H1            -31.4257649752       -5.2405993232        0.5146928508  SOLV      1815            0.0000000000
      5565      1826  TIP3      H2            -32.9381349752       -5.2906493232        0.4687828508  SOLV      1815            0.0000000000
      5566      1827  TIP3      OH2           -26.1287149752      -10.0881893232       -7.3087871492  SOLV      1816            0.0000000000
      5567      1827  TIP3      H1            -25.5643749752      -10.6345293232       -7.8558271492  SOLV      1816            0.0000000000
      5568      1827  TIP3      H2            -26.2763749752      -10.6099993232       -6.5200271492  SOLV      1816            0.0000000000
      5569      1828  TIP3      OH2           -31.1267449752      -13.9515793232      -10.8903071492  SOLV      1817            0.0000000000
      5570      1828  TIP3      H1            -31.4437949752      -14.8540493232      -10.9257671492  SOLV      1817            0.0000000000
      5571      1828  TIP3      H2            -30.3453349752      -13.9498393232      -11.4431471492  SOLV      1817            0.0000000000
      5572      1829  TIP3      OH2           -27.5021249752      -11.6995793232       -4.8947471492  SOLV      1818            0.0000000000
      5573      1829  TIP3      H1            -28.3375949752      -11.2456293232       -4.7845071492  SOLV      1818            0.0000000000
      5574      1829  TIP3      H2            -26.9780649752      -11.4237293232       -4.1427571492  SOLV      1818            0.0000000000
      5575      1830  TIP3      OH2           -26.9578649752       -5.4868093232      -13.2101071492  SOLV      1819            0.0000000000
      5576      1830  TIP3      H1            -27.7027649752       -5.9942793232      -13.5323171492  SOLV      1819            0.0000000000
      5577      1830  TIP3      H2            -27.0921449752       -5.4380093232      -12.2636271492  SOLV      1819            0.0000000000
      5578      1831  TIP3      OH2           -19.8079749752       -6.3539893232       -4.4233471492  SOLV      1820            0.0000000000
      5579      1831  TIP3      H1            -19.1660949752       -5.8973593232       -4.9671271492  SOLV      1820            0.0000000000
      5580      1831  TIP3      H2            -20.6382849752       -6.2407493232       -4.8859371492  SOLV      1820            0.0000000000
      5581      1832  TIP3      OH2           -23.0601849752      -12.6728193232      -15.0108471492  SOLV      1821            0.0000000000
      5582      1832  TIP3      H1            -23.9987649752      -12.5612593232      -15.1619671492  SOLV      1821            0.0000000000
      5583      1832  TIP3      H2            -22.7629749752      -11.8161293232      -14.7042771492  SOLV      1821            0.0000000000
      5584      1833  TIP3      OH2           -25.4386549752       -5.3024793232       -1.9731971492  SOLV      1822            0.0000000000
      5585      1833  TIP3      H1            -25.7840449752       -5.6842393232       -1.1662371492  SOLV      1822            0.0000000000
      5586      1833  TIP3      H2            -25.6386449752       -4.3691193232       -1.9019071492  SOLV      1822            0.0000000000
      5587      1834  TIP3      OH2           -22.3418349752      -10.8055493232      -13.3501071492  SOLV      1823            0.0000000000
      5588      1834  TIP3      H1            -21.4499349752      -10.9430493232      -13.0309871492  SOLV      1823            0.0000000000
      5589      1834  TIP3      H2            -22.2854749752      -10.0149393232      -13.8867571492  SOLV      1823            0.0000000000
      5590      1835  TIP3      OH2           -31.8330349752       -6.1918093232       -7.4403171492  SOLV      1824            0.0000000000
      5591      1835  TIP3      H1            -31.0883149752       -6.1942393232       -8.0416671492  SOLV      1824            0.0000000000
      5592      1835  TIP3      H2            -31.7553749752       -7.0154293232       -6.9588071492  SOLV      1824            0.0000000000
      5593      1836  TIP3      OH2           -24.8324549752       -4.0283793232      -14.1846471492  SOLV      1825            0.0000000000
      5594      1836  TIP3      H1            -25.1276149752       -3.2015893232      -13.8031671492  SOLV      1825            0.0000000000
      5595      1836  TIP3      H2            -25.5354549752       -4.6476893232      -13.9885071492  SOLV      1825            0.0000000000
      5596      1837  TIP3      OH2           -34.8250649752       -7.7311193232       -2.1254671492  SOLV      1826            0.0000000000
      5597      1837  TIP3      H1            -34.6022049752       -8.1491593232       -1.2937171492  SOLV      1826            0.0000000000
      5598      1837  TIP3      H2            -35.4270549752       -8.3436193232       -2.5481871492  SOLV      1826            0.0000000000
      5599      1838  TIP3      OH2           -23.1882949752       -2.8409293232       -2.0226971492  SOLV      1827            0.0000000000
      5600      1838  TIP3      H1            -24.0888649752       -2.6576693232       -2.2903071492  SOLV      1827            0.0000000000
      5601      1838  TIP3      H2            -23.1541849752       -2.5819993232       -1.1018171492  SOLV      1827            0.0000000000
      5602      1839  TIP3      OH2           -17.4569649752      -10.5961393232      -13.6554371492  SOLV      1828            0.0000000000
      5603      1839  TIP3      H1            -18.0113349752      -10.9923393232      -14.3276871492  SOLV      1828            0.0000000000
      5604      1839  TIP3      H2            -17.3566049752       -9.6856193232      -13.9331071492  SOLV      1828            0.0000000000
      5605      1840  TIP3      OH2           -17.4937649752       -4.7959693232       -0.8182871492  SOLV      1829            0.0000000000
      5606      1840  TIP3      H1            -18.3449149752       -4.5575893232       -1.1856471492  SOLV      1829            0.0000000000
      5607      1840  TIP3      H2            -16.9034249752       -4.8126493232       -1.5715771492  SOLV      1829            0.0000000000
      5608      1841  TIP3      OH2           -19.1617949752       -1.8100993232      -13.1902271492  SOLV      1830            0.0000000000
      5609      1841  TIP3      H1            -19.5346849752       -2.6357193232      -12.8811671492  SOLV      1830            0.0000000000
      5610      1841  TIP3      H2            -18.8844449752       -1.9931593232      -14.0878871492  SOLV      1830            0.0000000000
      5611      1842  TIP3      OH2           -22.0014049752       -7.0021493232       -6.1690371492  SOLV      1831            0.0000000000
      5612      1842  TIP3      H1            -22.9297149752       -7.2339593232       -6.1961071492  SOLV      1831            0.0000000000
      5613      1842  TIP3      H2            -21.5502949752       -7.7791693232       -6.4991571492  SOLV      1831            0.0000000000
      5614      1843  TIP3      OH2           -29.4580949752       -2.6739893232      -10.0361671492  SOLV      1832            0.0000000000
      5615      1843  TIP3      H1            -28.9308749752       -1.9005493232      -10.2362871492  SOLV      1832            0.0000000000
      5616      1843  TIP3      H2            -30.3382449752       -2.4490693232      -10.3377671492  SOLV      1832            0.0000000000
      5617      1844  TIP3      OH2           -33.7033249752       -7.8115793232      -15.4489271492  SOLV      1833            0.0000000000
      5618      1844  TIP3      H1            -33.0873349752       -7.1848593232      -15.0694471492  SOLV      1833            0.0000000000
      5619      1844  TIP3      H2            -34.5650649752       -7.4955993232      -15.1772771492  SOLV      1833            0.0000000000
      5620      1845  TIP3      OH2           -28.0308649752       -5.0109993232      -10.4597371492  SOLV      1834            0.0000000000
      5621      1845  TIP3      H1            -28.2718649752       -4.0855593232      -10.4182071492  SOLV      1834            0.0000000000
      5622      1845  TIP3      H2            -28.7715049752       -5.4698693232      -10.0633471492  SOLV      1834            0.0000000000
      5623      1846  TIP3      OH2           -27.5162049752       -0.8616393232       -4.1446271492  SOLV      1835            0.0000000000
      5624      1846  TIP3      H1            -27.1537349752       -0.0070793232       -4.3781871492  SOLV      1835            0.0000000000
      5625      1846  TIP3      H2            -26.9846849752       -1.1534793232       -3.4039971492  SOLV      1835            0.0000000000
      5626      1847  TIP3      OH2           -29.3477849752        0.0107606768      -10.9145171492  SOLV      1836            0.0000000000
      5627      1847  TIP3      H1            -30.2977349752        0.1165006768      -10.8631871492  SOLV      1836            0.0000000000
      5628      1847  TIP3      H2            -28.9959749752        0.8315006768      -10.5697671492  SOLV      1836            0.0000000000
      5629      1848  TIP3      OH2           -21.7692349752       -3.8335193232      -15.3701671492  SOLV      1837            0.0000000000
      5630      1848  TIP3      H1            -21.4159249752       -4.2135393232      -14.5658171492  SOLV      1837            0.0000000000
      5631      1848  TIP3      H2            -22.7178849752       -3.9270393232      -15.2832371492  SOLV      1837            0.0000000000
      5632      1849  TIP3      OH2           -21.3137049752       -0.2106193232       -1.9745871492  SOLV      1838            0.0000000000
      5633      1849  TIP3      H1            -21.9153849752       -0.7663293232       -2.4699571492  SOLV      1838            0.0000000000
      5634      1849  TIP3      H2            -21.0323349752        0.4563606768       -2.6008471492  SOLV      1838            0.0000000000
      5635      1850  TIP3      OH2           -17.2657949752        0.6457306768      -15.1691471492  SOLV      1839            0.0000000000
      5636      1850  TIP3      H1            -16.5220049752        1.2317806768      -15.3089871492  SOLV      1839            0.0000000000
      5637      1850  TIP3      H2            -17.9599849752        1.2143106768      -14.8359071492  SOLV      1839            0.0000000000
      5638      1851  TIP3      OH2           -33.1911149752      -12.9778493232       -2.5673271492  SOLV      1840            0.0000000000
      5639      1851  TIP3      H1            -34.0838849752      -12.6393093232       -2.6349271492  SOLV      1840            0.0000000000
      5640      1851  TIP3      H2            -33.2898349752      -13.8332393232       -2.1492471492  SOLV      1840            0.0000000000
      5641      1852  TIP3      OH2           -20.9033049752       -5.1613193232      -13.1433771492  SOLV      1841            0.0000000000
      5642      1852  TIP3      H1            -21.1805449752       -5.8893893232      -12.5872671492  SOLV      1841            0.0000000000
      5643      1852  TIP3      H2            -19.9760049752       -5.0421193232      -12.9381171492  SOLV      1841            0.0000000000
      5644      1853  TIP3      OH2           -33.5399149752       -1.1734093232       -4.1323871492  SOLV      1842            0.0000000000
      5645      1853  TIP3      H1            -33.3228849752       -2.1051693232       -4.1634171492  SOLV      1842            0.0000000000
      5646      1853  TIP3      H2            -33.2935649752       -0.8989093232       -3.2491071492  SOLV      1842            0.0000000000
      5647      1854  TIP3      OH2           -27.6784549752       -2.7219093232      -16.9231671492  SOLV      1843            0.0000000000
      5648      1854  TIP3      H1            -27.4394749752       -3.4700993232      -17.4702771492  SOLV      1843            0.0000000000
      5649      1854  TIP3      H2            -27.9473249752       -3.1097393232      -16.0903871492  SOLV      1843            0.0000000000
      5650      1855  TIP3      OH2           -28.7413949752       -3.1515293232      -14.4669071492  SOLV      1844            0.0000000000
      5651      1855  TIP3      H1            -28.5945949752       -3.6715493232      -13.6768171492  SOLV      1844            0.0000000000
      5652      1855  TIP3      H2            -28.7442249752       -2.2447693232      -14.1603171492  SOLV      1844            0.0000000000
      5653      1856  TIP3      OH2           -32.2882849752       -5.8991993232      -13.9563671492  SOLV      1845            0.0000000000
      5654      1856  TIP3      H1            -32.9743549752       -5.5469493232      -13.3893971492  SOLV      1845            0.0000000000
      5655      1856  TIP3      H2            -31.7654949752       -5.1362393232      -14.2029371492  SOLV      1845            0.0000000000
      5656      1857  TIP3      OH2           -24.4567749752      -13.2368193232       -3.6774671492  SOLV      1846            0.0000000000
      5657      1857  TIP3      H1            -23.7579849752      -13.1629493232       -3.0274971492  SOLV      1846            0.0000000000
      5658      1857  TIP3      H2            -24.8376349752      -14.1013193232       -3.5231771492  SOLV      1846            0.0000000000
      5659      1858  TIP3      OH2           -23.6722849752      -13.5846493232      -12.5802371492  SOLV      1847            0.0000000000
      5660      1858  TIP3      H1            -23.4524549752      -13.1131093232      -13.3836971492  SOLV      1847            0.0000000000
      5661      1858  TIP3      H2            -23.1138849752      -13.1903893232      -11.9101771492  SOLV      1847            0.0000000000
      5662      1859  TIP3      OH2           -26.0036749752       -1.4541693232      -13.7174871492  SOLV      1848            0.0000000000
      5663      1859  TIP3      H1            -26.8200649752       -0.9571993232      -13.6650571492  SOLV      1848            0.0000000000
      5664      1859  TIP3      H2            -25.4740449752       -0.9788193232      -14.3576071492  SOLV      1848            0.0000000000
      5665      1860  TIP3      OH2           -26.4722949752      -11.8567693232      -11.7453971492  SOLV      1849            0.0000000000
      5666      1860  TIP3      H1            -25.6600349752      -11.3524493232      -11.6992271492  SOLV      1849            0.0000000000
      5667      1860  TIP3      H2            -26.7169949752      -12.0017993232      -10.8314371492  SOLV      1849            0.0000000000
      5668      1861  TIP3      OH2           -25.9366549752      -10.8704993232       -2.5607371492  SOLV      1850            0.0000000000
      5669      1861  TIP3      H1            -25.8176249752      -10.2969593232       -1.8036971492  SOLV      1850            0.0000000000
      5670      1861  TIP3      H2            -25.2811949752      -11.5585593232       -2.4459571492  SOLV      1850            0.0000000000
      5671      1862  TIP3      OH2           -25.5886249752      -14.7754693232      -10.8072871492  SOLV      1851            0.0000000000
      5672      1862  TIP3      H1            -25.9352749752      -14.1584093232      -10.1628571492  SOLV      1851            0.0000000000
      5673      1862  TIP3      H2            -24.9299349752      -14.2748993232      -11.2887371492  SOLV      1851            0.0000000000
      5674      1863  TIP3      OH2           -28.6653649752       -0.4104493232      -13.7357971492  SOLV      1852            0.0000000000
      5675      1863  TIP3      H1            -28.5044949752        0.3893006768      -14.2365371492  SOLV      1852            0.0000000000
      5676      1863  TIP3      H2            -28.8625849752       -0.1038493232      -12.8507371492  SOLV      1852            0.0000000000
      5677      1864  TIP3      OH2           -29.9309249752      -13.7125293232      -14.1200371492  SOLV      1853            0.0000000000
      5678      1864  TIP3      H1            -30.0144449752      -12.8242193232      -13.7733971492  SOLV      1853            0.0000000000
      5679      1864  TIP3      H2            -29.0408949752      -13.9778593232      -13.8883571492  SOLV      1853            0.0000000000
      5680      1865  TIP3      OH2           -19.7320749752      -12.9634693232       -1.7257671492  SOLV      1854            0.0000000000
      5681      1865  TIP3      H1            -20.6484949752      -12.7012993232       -1.8133971492  SOLV      1854            0.0000000000
      5682      1865  TIP3      H2            -19.3965749752      -12.9665693232       -2.6222371492  SOLV      1854            0.0000000000
      5683      1866  TIP3      OH2           -21.1299749752       -9.2133693232       -7.6300371492  SOLV      1855            0.0000000000
      5684      1866  TIP3      H1            -21.9275349752       -9.6283493232       -7.9585371492  SOLV      1855            0.0000000000
      5685      1866  TIP3      H2            -20.6848649752       -9.9039993232       -7.1389871492  SOLV      1855            0.0000000000
      5686      1867  TIP3      OH2           -31.6723949752       -3.2853093232      -15.0595871492  SOLV      1856            0.0000000000
      5687      1867  TIP3      H1            -31.0802449752       -2.5858293232      -14.7833471492  SOLV      1856            0.0000000000
      5688      1867  TIP3      H2            -31.2130949752       -3.7183593232      -15.7791271492  SOLV      1856            0.0000000000
      5689      1868  TIP3      OH2           -33.3564749752      -10.6210093232      -15.9436471492  SOLV      1857            0.0000000000
      5690      1868  TIP3      H1            -33.4012149752       -9.6816993232      -15.7649471492  SOLV      1857            0.0000000000
      5691      1868  TIP3      H2            -34.2441549752      -10.8565193232      -16.2134371492  SOLV      1857            0.0000000000
      5692      1869  TIP3      OH2           -20.0435149752        0.0428806768       -6.0076871492  SOLV      1858            0.0000000000
      5693      1869  TIP3      H1            -20.1990849752        0.7213206768       -6.6647571492  SOLV      1858            0.0000000000
      5694      1869  TIP3      H2            -19.1108749752        0.1148106768       -5.8046271492  SOLV      1858            0.0000000000
      5695      1870  TIP3      OH2           -32.5482749752      -15.8393493232       -7.2705471492  SOLV      1859            0.0000000000
      5696      1870  TIP3      H1            -32.7772949752      -15.7800993232       -8.1980471492  SOLV      1859            0.0000000000
      5697      1870  TIP3      H2            -32.9909349752      -16.6307993232       -6.9641371492  SOLV      1859            0.0000000000
      5698      1871  TIP3      OH2           -33.6179449752       -1.8986393232      -11.1099671492  SOLV      1860            0.0000000000
      5699      1871  TIP3      H1            -34.4500849752       -1.4263693232      -11.0828271492  SOLV      1860            0.0000000000
      5700      1871  TIP3      H2            -33.0721149752       -1.3888793232      -11.7086571492  SOLV      1860            0.0000000000
      5701      1872  TIP3      OH2           -34.3295749752        0.7137306768        0.2198328508  SOLV      1861            0.0000000000
      5702      1872  TIP3      H1            -33.7893549752        0.4971306768        0.9797528508  SOLV      1861            0.0000000000
      5703      1872  TIP3      H2            -34.8107749752       -0.0916693232        0.0300828508  SOLV      1861            0.0000000000
      5704      1873  TIP3      OH2           -29.7322349752       -0.3668293232        1.8402528508  SOLV      1862            0.0000000000
      5705      1873  TIP3      H1            -28.9645149752       -0.8257493232        2.1811728508  SOLV      1862            0.0000000000
      5706      1873  TIP3      H2            -29.7536149752       -0.5928493232        0.9103728508  SOLV      1862            0.0000000000
      5707      1874  TIP3      OH2           -25.6402749752       -0.8587693232      -16.7845671492  SOLV      1863            0.0000000000
      5708      1874  TIP3      H1            -26.2841749752       -1.4899093232      -16.4631971492  SOLV      1863            0.0000000000
      5709      1874  TIP3      H2            -24.8784449752       -1.3899693232      -17.0162171492  SOLV      1863            0.0000000000
      5710      1875  TIP3      OH2           -23.1553649752       -1.9867193232        0.5694028508  SOLV      1864            0.0000000000
      5711      1875  TIP3      H1            -23.5064149752       -2.8434193232        0.8124428508  SOLV      1864            0.0000000000
      5712      1875  TIP3      H2            -22.4290449752       -1.8440493232        1.1763028508  SOLV      1864            0.0000000000
      5713      1876  TIP3      OH2           -21.0359849752       -1.0417793232      -16.5507671492  SOLV      1865            0.0000000000
      5714      1876  TIP3      H1            -20.7529449752       -1.8362593232      -16.0980771492  SOLV      1865            0.0000000000
      5715      1876  TIP3      H2            -20.2961949752       -0.8086793232      -17.1116571492  SOLV      1865            0.0000000000
      5716      1877  TIP3      OH2           -34.4226249752       -5.4758593232        1.1742628508  SOLV      1866            0.0000000000
      5717      1877  TIP3      H1            -34.2785749752       -6.3777893232        0.8879328508  SOLV      1866            0.0000000000
      5718      1877  TIP3      H2            -35.1948849752       -5.1896493232        0.6864928508  SOLV      1866            0.0000000000
      5719      1878  TIP3      OH2           -30.0812549752       -5.1322893232      -16.6932771492  SOLV      1867            0.0000000000
      5720      1878  TIP3      H1            -30.0168449752       -5.9263293232      -16.1626371492  SOLV      1867            0.0000000000
      5721      1878  TIP3      H2            -29.4283349752       -5.2510093232      -17.3830771492  SOLV      1867            0.0000000000
      5722      1879  TIP3      OH2           -27.7670149752       -5.5060493232        0.6069028508  SOLV      1868            0.0000000000
      5723      1879  TIP3      H1            -28.0956349752       -5.2352393232       -0.2503571492  SOLV      1868            0.0000000000
      5724      1879  TIP3      H2            -27.6151949752       -6.4470693232        0.5194028508  SOLV      1868            0.0000000000
      5725      1880  TIP3      OH2           -24.7289149752       -4.0851193232      -16.9574771492  SOLV      1869            0.0000000000
      5726      1880  TIP3      H1            -24.9975049752       -3.9049093232      -16.0565871492  SOLV      1869            0.0000000000
      5727      1880  TIP3      H2            -24.9353549752       -5.0104993232      -17.0888971492  SOLV      1869            0.0000000000
      5728      1881  TIP3      OH2           -22.0324949752       -5.5903193232       -2.0098671492  SOLV      1870            0.0000000000
      5729      1881  TIP3      H1            -21.2870149752       -5.0019493232       -2.1294671492  SOLV      1870            0.0000000000
      5730      1881  TIP3      H2            -22.7898149752       -5.0083493232       -1.9465571492  SOLV      1870            0.0000000000
      5731      1882  TIP3      OH2           -33.5899749752       -8.2755293232        0.5941928508  SOLV      1871            0.0000000000
      5732      1882  TIP3      H1            -33.1818549752       -9.1328693232        0.4732528508  SOLV      1871            0.0000000000
      5733      1882  TIP3      H2            -33.8502149752       -8.2613993232        1.5152228508  SOLV      1871            0.0000000000
      5734      1883  TIP3      OH2           -28.9318749752       -7.1596693232      -14.3874771492  SOLV      1872            0.0000000000
      5735      1883  TIP3      H1            -29.3916749752       -7.6438393232      -13.7016271492  SOLV      1872            0.0000000000
      5736      1883  TIP3      H2            -28.6770049752       -7.8281293232      -15.0234271492  SOLV      1872            0.0000000000
      5737      1884  TIP3      OH2           -27.8608349752       -8.9164893232      -16.1251571492  SOLV      1873            0.0000000000
      5738      1884  TIP3      H1            -28.0413349752       -9.0713693232      -17.0523271492  SOLV      1873            0.0000000000
      5739      1884  TIP3      H2            -26.9107849752       -8.8086193232      -16.0803671492  SOLV      1873            0.0000000000
      5740      1885  TIP3      OH2           -24.6231249752       -6.7954293232        1.2459628508  SOLV      1874            0.0000000000
      5741      1885  TIP3      H1            -23.6700049752       -6.7115193232        1.2185628508  SOLV      1874            0.0000000000
      5742      1885  TIP3      H2            -24.7836649752       -7.5072493232        1.8654528508  SOLV      1874            0.0000000000
      5743      1886  TIP3      OH2           -18.4710049752       -6.5620693232      -16.6793471492  SOLV      1875            0.0000000000
      5744      1886  TIP3      H1            -18.7445249752       -6.9865193232      -17.4925171492  SOLV      1875            0.0000000000
      5745      1886  TIP3      H2            -18.4315949752       -5.6306193232      -16.8963071492  SOLV      1875            0.0000000000
      5746      1887  TIP3      OH2           -29.3035749752      -11.9118793232       -0.9492071492  SOLV      1876            0.0000000000
      5747      1887  TIP3      H1            -29.1534849752      -12.6407493232       -1.5512371492  SOLV      1876            0.0000000000
      5748      1887  TIP3      H2            -29.3013349752      -11.1347093232       -1.5079871492  SOLV      1876            0.0000000000
      5749      1888  TIP3      OH2           -28.8910049752      -13.5422993232       -3.4564671492  SOLV      1877            0.0000000000
      5750      1888  TIP3      H1            -28.3552549752      -13.0906293232       -4.1085371492  SOLV      1877            0.0000000000
      5751      1888  TIP3      H2            -29.7430449752      -13.6503193232       -3.8790571492  SOLV      1877            0.0000000000
      5752      1889  TIP3      OH2           -22.8935449752      -10.2874993232        1.8115828508  SOLV      1878            0.0000000000
      5753      1889  TIP3      H1            -22.7014149752      -11.2185593232        1.7000328508  SOLV      1878            0.0000000000
      5754      1889  TIP3      H2            -22.0359149752       -9.8625493232        1.8011228508  SOLV      1878            0.0000000000
      5755      1890  TIP3      OH2           -21.5768249752       -7.4989793232       -0.1111471492  SOLV      1879            0.0000000000
      5756      1890  TIP3      H1            -21.8583249752       -6.7895193232       -0.6887671492  SOLV      1879            0.0000000000
      5757      1890  TIP3      H2            -20.6343949752       -7.5716793232       -0.2620271492  SOLV      1879            0.0000000000
      5758      1891  TIP3      OH2           -30.8249449752      -10.7135293232        0.9623528508  SOLV      1880            0.0000000000
      5759      1891  TIP3      H1            -31.5920449752      -11.2460493232        0.7521128508  SOLV      1880            0.0000000000
      5760      1891  TIP3      H2            -30.1460449752      -11.0234893232        0.3629828508  SOLV      1880            0.0000000000
      5761      1892  TIP3      OH2           -28.0854549752      -16.0857293232       -3.0251071492  SOLV      1881            0.0000000000
      5762      1892  TIP3      H1            -28.1834949752      -15.1394093232       -3.1304871492  SOLV      1881            0.0000000000
      5763      1892  TIP3      H2            -28.8278349752      -16.4583493232       -3.5007571492  SOLV      1881            0.0000000000
      5764      1893  TIP3      OH2           -26.8214049752      -11.7641893232        0.5387328508  SOLV      1882            0.0000000000
      5765      1893  TIP3      H1            -27.0568649752      -11.9835193232        1.4402228508  SOLV      1882            0.0000000000
      5766      1893  TIP3      H2            -27.6047149752      -11.9710693232        0.0289828508  SOLV      1882            0.0000000000
      5767      1894  TIP3      OH2           -24.1057449752      -12.6368393232       -0.3859171492  SOLV      1883            0.0000000000
      5768      1894  TIP3      H1            -25.0532049752      -12.6048693232       -0.2535871492  SOLV      1883            0.0000000000
      5769      1894  TIP3      H2            -23.7930749752      -13.2621293232        0.2679028508  SOLV      1883            0.0000000000
      5770      1895  TIP3      OH2           -22.4715949752      -14.0027293232        1.6192728508  SOLV      1884            0.0000000000
      5771      1895  TIP3      H1            -22.5684149752      -14.9549993232        1.6134628508  SOLV      1884            0.0000000000
      5772      1895  TIP3      H2            -22.7932849752      -13.7340493232        2.4798228508  SOLV      1884            0.0000000000
      5773      1896  TIP3      OH2           -32.6446649752      -12.7931493232        0.6668228508  SOLV      1885            0.0000000000
      5774      1896  TIP3      H1            -32.4329249752      -13.4995393232        0.0565728508  SOLV      1885            0.0000000000
      5775      1896  TIP3      H2            -32.7559149752      -13.2305493232        1.5109428508  SOLV      1885            0.0000000000
      5776      1897  TIP3      OH2           -27.8636449752      -16.7919893232       -0.3538271492  SOLV      1886            0.0000000000
      5777      1897  TIP3      H1            -27.1518049752      -17.4317693232       -0.3679171492  SOLV      1886            0.0000000000
      5778      1897  TIP3      H2            -27.9646049752      -16.5251593232       -1.2675171492  SOLV      1886            0.0000000000
      5779      1898  TIP3      OH2           -27.5098949752      -15.1091493232        1.6998028508  SOLV      1887            0.0000000000
      5780      1898  TIP3      H1            -27.6416749752      -15.5847693232        0.8796528508  SOLV      1887            0.0000000000
      5781      1898  TIP3      H2            -28.1091549752      -14.3647893232        1.6445128508  SOLV      1887            0.0000000000
      5782      1899  TIP3      OH2           -27.9636649752        1.7738806768      -15.1237971492  SOLV      1888            0.0000000000
      5783      1899  TIP3      H1            -27.0305949752        1.9317506768      -14.9799571492  SOLV      1888            0.0000000000
      5784      1899  TIP3      H2            -28.2277849752        2.4491806768      -15.7486471492  SOLV      1888            0.0000000000
      5785      1900  TIP3      OH2           -34.3951749752       -3.5897393232      -15.6409871492  SOLV      1889            0.0000000000
      5786      1900  TIP3      H1            -33.4812549752       -3.5108493232      -15.3675971492  SOLV      1889            0.0000000000
      5787      1900  TIP3      H2            -34.3878649752       -4.2767793232      -16.3074271492  SOLV      1889            0.0000000000
      5788      1901  TIP3      OH2           -17.3277149752        0.6934506768       -5.7784971492  SOLV      1890            0.0000000000
      5789      1901  TIP3      H1            -17.3490449752        0.8782906768       -4.8395571492  SOLV      1890            0.0000000000
      5790      1901  TIP3      H2            -16.6370949752        1.2618506768       -6.1193571492  SOLV      1890            0.0000000000
      5791      1902  TIP3      OH2           -17.7644249752        0.2605606768       -2.8565871492  SOLV      1891            0.0000000000
      5792      1902  TIP3      H1            -18.2515549752       -0.4750293232       -3.2278471492  SOLV      1891            0.0000000000
      5793      1902  TIP3      H2            -17.2151549752       -0.1330493232       -2.1786471492  SOLV      1891            0.0000000000
      5794      1903  TIP3      OH2           -19.3136949752       -3.9496293232        1.7814428508  SOLV      1892            0.0000000000
      5795      1903  TIP3      H1            -20.1795849752       -4.0546593232        2.1756728508  SOLV      1892            0.0000000000
      5796      1903  TIP3      H2            -18.9371049752       -3.1912993232        2.2279128508  SOLV      1892            0.0000000000
      5797      1904  TIP3      OH2           -18.0127249752       -5.6932593232      -12.7043071492  SOLV      1893            0.0000000000
      5798      1904  TIP3      H1            -17.1625849752       -5.2721693232      -12.5771471492  SOLV      1893            0.0000000000
      5799      1904  TIP3      H2            -18.0072149752       -6.4332493232      -12.0971671492  SOLV      1893            0.0000000000
      5800      1905  TIP3      OH2           -17.6181649752       -7.6395193232      -10.8807371492  SOLV      1894            0.0000000000
      5801      1905  TIP3      H1            -18.3447049752       -8.1192593232      -10.4829771492  SOLV      1894            0.0000000000
      5802      1905  TIP3      H2            -17.0368349752       -7.4340493232      -10.1485771492  SOLV      1894            0.0000000000
      5803      1906  TIP3      OH2           -17.8590449752       -4.8547693232       -5.9329771492  SOLV      1895            0.0000000000
      5804      1906  TIP3      H1            -17.0256249752       -5.2327693232       -6.2136171492  SOLV      1895            0.0000000000
      5805      1906  TIP3      H2            -17.7470149752       -3.9116493232       -6.0520671492  SOLV      1895            0.0000000000
      5806      1907  TIP3      OH2           -19.3728149752       -1.9770193232       -3.6261371492  SOLV      1896            0.0000000000
      5807      1907  TIP3      H1            -20.0202849752       -1.6518693232       -3.0006171492  SOLV      1896            0.0000000000
      5808      1907  TIP3      H2            -19.8904149752       -2.4172493232       -4.3003071492  SOLV      1896            0.0000000000
      5809      1908  TIP3      OH2           -17.3498549752       -7.7386693232      -14.4896071492  SOLV      1897            0.0000000000
      5810      1908  TIP3      H1            -17.8717449752       -7.3822593232      -15.2085171492  SOLV      1897            0.0000000000
      5811      1908  TIP3      H2            -17.3829349752       -7.0638893232      -13.8115171492  SOLV      1897            0.0000000000
      5812      1909  TIP3      OH2           -19.0009549752      -10.4991093232      -15.9388971492  SOLV      1898            0.0000000000
      5813      1909  TIP3      H1            -18.9045149752       -9.8324093232      -16.6189271492  SOLV      1898            0.0000000000
      5814      1909  TIP3      H2            -19.1409949752      -11.3144793232      -16.4203471492  SOLV      1898            0.0000000000
      5815      1910  TIP3      OH2           -19.8314849752       -9.1188693232      -10.3178671492  SOLV      1899            0.0000000000
      5816      1910  TIP3      H1            -19.9816049752      -10.0640093232      -10.3380871492  SOLV      1899            0.0000000000
      5817      1910  TIP3      H2            -20.1850349752       -8.8377293232       -9.4739571492  SOLV      1899            0.0000000000
      5818      1911  TIP3      OH2           -34.7962449752       -7.0406493232       -6.3074871492  SOLV      1900            0.0000000000
      5819      1911  TIP3      H1            -34.6119549752       -7.1224793232       -7.2431971492  SOLV      1900            0.0000000000
      5820      1911  TIP3      H2            -33.9469549752       -7.1649493232       -5.8838471492  SOLV      1900            0.0000000000
      5821      1912  TIP3      OH2           -18.9751949752       -7.1485393232       -0.6790371492  SOLV      1901            0.0000000000
      5822      1912  TIP3      H1            -18.3924649752       -7.8833093232       -0.4873171492  SOLV      1901            0.0000000000
      5823      1912  TIP3      H2            -18.4112649752       -6.3765093232       -0.6324571492  SOLV      1901            0.0000000000
      5824      1913  TIP3      OH2           -17.4784849752       -9.2459593232        0.0055028508  SOLV      1902            0.0000000000
      5825      1913  TIP3      H1            -18.3418149752       -9.6247493232       -0.1600271492  SOLV      1902            0.0000000000
      5826      1913  TIP3      H2            -16.8741149752       -9.9844793232       -0.0689171492  SOLV      1902            0.0000000000
      5827      1914  TIP3      OH2           -19.7535749752      -13.0911293232      -16.8213471492  SOLV      1903            0.0000000000
      5828      1914  TIP3      H1            -19.1429949752      -13.4624493232      -16.1845271492  SOLV      1903            0.0000000000
      5829      1914  TIP3      H2            -20.5904249752      -13.5124393232      -16.6253471492  SOLV      1903            0.0000000000
      5830      1915  TIP3      OH2           -20.1210049752      -11.5362893232      -11.8553571492  SOLV      1904            0.0000000000
      5831      1915  TIP3      H1            -19.8412949752      -12.4432493232      -11.7311871492  SOLV      1904            0.0000000000
      5832      1915  TIP3      H2            -19.3618349752      -11.1021393232      -12.2444371492  SOLV      1904            0.0000000000
      5833      1916  TIP3      OH2           -19.5091749752      -10.9545493232       -6.4194671492  SOLV      1905            0.0000000000
      5834      1916  TIP3      H1            -18.5763749752      -10.7425593232       -6.4538671492  SOLV      1905            0.0000000000
      5835      1916  TIP3      H2            -19.7444249752      -10.8533393232       -5.4971671492  SOLV      1905            0.0000000000
      5836      1917  TIP3      OH2           -19.4799849752      -10.2180193232       -3.6435271492  SOLV      1906            0.0000000000
      5837      1917  TIP3      H1            -20.3228549752       -9.9499793232       -3.2775471492  SOLV      1906            0.0000000000
      5838      1917  TIP3      H2            -19.0375549752       -9.3958293232       -3.8544171492  SOLV      1906            0.0000000000
      5839      1918  TIP3      OH2           -35.1987649752      -11.7701493232       -0.1666071492  SOLV      1907            0.0000000000
      5840      1918  TIP3      H1            -34.2792749752      -11.8923193232        0.0697028508  SOLV      1907            0.0000000000
      5841      1918  TIP3      H2            -35.6483149752      -12.5201793232        0.2227428508  SOLV      1907            0.0000000000
      5842      1919  TIP3      OH2           -17.1968249752      -16.2379993232        1.7099728508  SOLV      1908            0.0000000000
      5843      1919  TIP3      H1            -16.8471249752      -16.8916493232        1.1044428508  SOLV      1908            0.0000000000
      5844      1919  TIP3      H2            -17.0498749752      -15.4005893232        1.2702328508  SOLV      1908            0.0000000000
      5845      1920  TIP3      OH2           -19.5075249752      -14.2733593232      -11.8071571492  SOLV      1909            0.0000000000
      5846      1920  TIP3      H1            -19.3250249752      -14.7222093232      -10.9816571492  SOLV      1909            0.0000000000
      5847      1920  TIP3      H2            -20.1072349752      -14.8579193232      -12.2706971492  SOLV      1909            0.0000000000
      5848      1921  TIP3      OH2           -33.9775149752      -13.4579893232       -7.2753171492  SOLV      1910            0.0000000000
      5849      1921  TIP3      H1            -33.5323549752      -14.2497393232       -6.9733471492  SOLV      1910            0.0000000000
      5850      1921  TIP3      H2            -33.5112149752      -12.7414693232       -6.8447571492  SOLV      1910            0.0000000000
      5851      1922  TIP3      OH2           -35.6734849752      -10.4586893232       -6.2062971492  SOLV      1911            0.0000000000
      5852      1922  TIP3      H1            -35.1815049752      -10.6796393232       -6.9970971492  SOLV      1911            0.0000000000
      5853      1922  TIP3      H2            -35.3113949752       -9.6183493232       -5.9253471492  SOLV      1911            0.0000000000
      5854      1923  TIP3      OH2           -17.6771049752      -14.1285393232        0.0591028508  SOLV      1912            0.0000000000
      5855      1923  TIP3      H1            -18.5945349752      -13.8578293232        0.0234528508  SOLV      1912            0.0000000000
      5856      1923  TIP3      H2            -17.5541649752      -14.6636993232       -0.7249271492  SOLV      1912            0.0000000000
      5857      1924  TIP3      OH2           -17.6409049752      -14.2055493232      -15.2791271492  SOLV      1913            0.0000000000
      5858      1924  TIP3      H1            -17.2286449752      -14.9269793232      -15.7543271492  SOLV      1913            0.0000000000
      5859      1924  TIP3      H2            -16.9592549752      -13.5360893232      -15.2206971492  SOLV      1913            0.0000000000
      5860      1925  TIP3      OH2           -35.3598349752      -14.2007793232      -12.1520571492  SOLV      1914            0.0000000000
      5861      1925  TIP3      H1            -36.2849949752      -13.9921193232      -12.2815071492  SOLV      1914            0.0000000000
      5862      1925  TIP3      H2            -34.9058449752      -13.7166993232      -12.8418271492  SOLV      1914            0.0000000000
      5863      1926  TIP3      OH2           -20.5891149752        0.7833906768      -10.2063171492  SOLV      1915            0.0000000000
      5864      1926  TIP3      H1            -19.9368249752        0.4356006768      -10.8144071492  SOLV      1915            0.0000000000
      5865      1926  TIP3      H2            -20.0787349752        1.2717106768       -9.5603471492  SOLV      1915            0.0000000000
      5866      1927  TIP3      OH2           -33.2043649752       -2.2874693232        0.3367728508  SOLV      1916            0.0000000000
      5867      1927  TIP3      H1            -34.0251149752       -2.1128193232       -0.1237571492  SOLV      1916            0.0000000000
      5868      1927  TIP3      H2            -33.4565849752       -2.3609993232        1.2572128508  SOLV      1916            0.0000000000
      5869      1928  TIP3      OH2           -30.2500749752       -1.3133493232       -3.4048271492  SOLV      1917            0.0000000000
      5870      1928  TIP3      H1            -30.6749649752       -0.5034993232       -3.6873671492  SOLV      1917            0.0000000000
      5871      1928  TIP3      H2            -29.3457949752       -1.2279393232       -3.7068471492  SOLV      1917            0.0000000000
      5872      1929  TIP3      OH2           -25.9389349752        0.0856506768       -0.4454571492  SOLV      1918            0.0000000000
      5873      1929  TIP3      H1            -25.7541849752       -0.2477393232        0.4325728508  SOLV      1918            0.0000000000
      5874      1929  TIP3      H2            -25.0924849752        0.3955106768       -0.7675371492  SOLV      1918            0.0000000000
      5875      1930  TIP3      OH2           -23.5938949752        1.3715406768       -1.2013171492  SOLV      1919            0.0000000000
      5876      1930  TIP3      H1            -22.9170049752        0.7387706768       -1.4413971492  SOLV      1919            0.0000000000
      5877      1930  TIP3      H2            -23.2720149752        1.7725906768       -0.3939871492  SOLV      1919            0.0000000000
      5878      1931  TIP3      OH2           -18.6765149752      -16.0389093232       -2.1218171492  SOLV      1920            0.0000000000
      5879      1931  TIP3      H1            -19.4891649752      -15.7138793232       -2.5093471492  SOLV      1920            0.0000000000
      5880      1931  TIP3      H2            -18.4436649752      -16.7990593232       -2.6549071492  SOLV      1920            0.0000000000
      5881      1932  TIP3      OH2           -32.8484049752        1.9430406768       -3.3572971492  SOLV      1921            0.0000000000
      5882      1932  TIP3      H1            -33.5687649752        2.3831406768       -3.8085271492  SOLV      1921            0.0000000000
      5883      1932  TIP3      H2            -33.2140049752        1.6925106768       -2.5088971492  SOLV      1921            0.0000000000
      5884      1933  TIP3      OH2           -30.3811449752        1.5434306768       -4.3275771492  SOLV      1922            0.0000000000
      5885      1933  TIP3      H1            -31.2459249752        1.6152806768       -3.9235671492  SOLV      1922            0.0000000000
      5886      1933  TIP3      H2            -30.4362449752        2.0901606768       -5.1113271492  SOLV      1922            0.0000000000
      5887      1934  TIP3      OH2           -25.6705849752        1.4313206768       -5.1519771492  SOLV      1923            0.0000000000
      5888      1934  TIP3      H1            -26.1271849752        1.9602906768       -5.8061371492  SOLV      1923            0.0000000000
      5889      1934  TIP3      H2            -25.5077849752        2.0344606768       -4.4267471492  SOLV      1923            0.0000000000
      5890      1935  TIP3      OH2           -23.3429549752        0.3092806768       -4.2069471492  SOLV      1924            0.0000000000
      5891      1935  TIP3      H1            -24.2475849752        0.4743006768       -4.4727371492  SOLV      1924            0.0000000000
      5892      1935  TIP3      H2            -22.9140949752        1.1625006768       -4.2726071492  SOLV      1924            0.0000000000
      5893      1936  TIP3      OH2           -20.7387649752        1.8791906768       -3.9121671492  SOLV      1925            0.0000000000
      5894      1936  TIP3      H1            -20.9205649752        2.7950806768       -4.1226771492  SOLV      1925            0.0000000000
      5895      1936  TIP3      H2            -20.5619849752        1.4689006768       -4.7587071492  SOLV      1925            0.0000000000
      5896      1937  TIP3      OH2           -33.4335949752        0.5662906768       -6.4471171492  SOLV      1926            0.0000000000
      5897      1937  TIP3      H1            -33.4519949752        0.1408006768       -5.5898871492  SOLV      1926            0.0000000000
      5898      1937  TIP3      H2            -32.6288049752        0.2477906768       -6.8558971492  SOLV      1926            0.0000000000
      5899      1938  TIP3      OH2           -31.2922849752       -0.7238393232       -7.7921271492  SOLV      1927            0.0000000000
      5900      1938  TIP3      H1            -31.5112149752       -1.6400993232       -7.6225271492  SOLV      1927            0.0000000000
      5901      1938  TIP3      H2            -30.4680649752       -0.5837993232       -7.3259871492  SOLV      1927            0.0000000000
      5902      1939  TIP3      OH2           -28.7550349752       -0.2539093232       -6.9433271492  SOLV      1928            0.0000000000
      5903      1939  TIP3      H1            -28.5424649752       -1.1420093232       -7.2302371492  SOLV      1928            0.0000000000
      5904      1939  TIP3      H2            -28.6905249752       -0.2881393232       -5.9889271492  SOLV      1928            0.0000000000
      5905      1940  TIP3      OH2           -25.2466649752      -14.5898493232       -7.7989971492  SOLV      1929            0.0000000000
      5906      1940  TIP3      H1            -25.9209849752      -15.2192893232       -7.5434171492  SOLV      1929            0.0000000000
      5907      1940  TIP3      H2            -24.6827449752      -15.0739593232       -8.4022071492  SOLV      1929            0.0000000000
      5908      1941  TIP3      OH2           -20.1039449752      -16.4824493232       -7.6862871492  SOLV      1930            0.0000000000
      5909      1941  TIP3      H1            -19.5001849752      -15.9349093232       -8.1881871492  SOLV      1930            0.0000000000
      5910      1941  TIP3      H2            -20.9737449752      -16.1634093232       -7.9268771492  SOLV      1930            0.0000000000
      5911      1942  TIP3      OH2           -18.3769049752      -15.3435793232       -9.3531971492  SOLV      1931            0.0000000000
      5912      1942  TIP3      H1            -17.7651549752      -15.8580093232       -9.8798371492  SOLV      1931            0.0000000000
      5913      1942  TIP3      H2            -17.9945649752      -14.4663693232       -9.3297571492  SOLV      1931            0.0000000000
      5914      1943  TIP3      OH2           -32.9199149752      -15.9558193232       -9.9770071492  SOLV      1932            0.0000000000
      5915      1943  TIP3      H1            -33.6969349752      -16.1903293232      -10.4844171492  SOLV      1932            0.0000000000
      5916      1943  TIP3      H2            -32.3895549752      -16.7526093232       -9.9682071492  SOLV      1932            0.0000000000
      5917      1944  TIP3      OH2           -28.3406549752      -16.0291093232      -10.1636971492  SOLV      1933            0.0000000000
      5918      1944  TIP3      H1            -27.4663149752      -15.6406793232      -10.1932671492  SOLV      1933            0.0000000000
      5919      1944  TIP3      H2            -28.4765749752      -16.2443293232       -9.2409771492  SOLV      1933            0.0000000000
      5920      1945  TIP3      OH2           -22.7838149752      -15.9991293232       -8.5145271492  SOLV      1934            0.0000000000
      5921      1945  TIP3      H1            -22.7076549752      -15.9039693232       -9.4639271492  SOLV      1934            0.0000000000
      5922      1945  TIP3      H2            -23.0588949752      -16.9068393232       -8.3856171492  SOLV      1934            0.0000000000
      5923      1946  TIP3      OH2           -21.4305549752      -15.9733493232      -12.8220271492  SOLV      1935            0.0000000000
      5924      1946  TIP3      H1            -22.1334449752      -15.3584293232      -13.0318871492  SOLV      1935            0.0000000000
      5925      1946  TIP3      H2            -21.8754149752      -16.8106793232      -12.6909371492  SOLV      1935            0.0000000000
      5926      1947  TIP3      OH2           -27.1966549752      -13.9487093232      -13.2739371492  SOLV      1936            0.0000000000
      5927      1947  TIP3      H1            -27.0185249752      -14.5953893232      -12.5910771492  SOLV      1936            0.0000000000
      5928      1947  TIP3      H2            -27.2500349752      -13.1149393232      -12.8068271492  SOLV      1936            0.0000000000
      5929      1948  TIP3      OH2           -25.3182749752        0.9997006768      -14.8782671492  SOLV      1937            0.0000000000
      5930      1948  TIP3      H1            -24.4522549752        1.3664406768      -15.0564471492  SOLV      1937            0.0000000000
      5931      1948  TIP3      H2            -25.5649949752        0.5605006768      -15.6921871492  SOLV      1937            0.0000000000
      5932      1949  TIP3      OH2           -18.6093149752        0.5627306768      -12.1991571492  SOLV      1938            0.0000000000
      5933      1949  TIP3      H1            -18.8036049752       -0.1850593232      -12.7641971492  SOLV      1938            0.0000000000
      5934      1949  TIP3      H2            -18.6483049752        1.3207406768      -12.7823671492  SOLV      1938            0.0000000000
      5935      1950  TIP3      OH2           -32.9621149752      -15.4416293232       -0.4593871492  SOLV      1939            0.0000000000
      5936      1950  TIP3      H1            -33.3282949752      -16.2073693232       -0.0169171492  SOLV      1939            0.0000000000
      5937      1950  TIP3      H2            -32.0492649752      -15.4126093232       -0.1728771492  SOLV      1939            0.0000000000
      5938      1951  TIP3      OH2           -30.9890349752      -16.0911893232        1.0763228508  SOLV      1940            0.0000000000
      5939      1951  TIP3      H1            -30.0906749752      -16.3651693232        0.8916628508  SOLV      1940            0.0000000000
      5940      1951  TIP3      H2            -31.3757249752      -16.8335893232        1.5405828508  SOLV      1940            0.0000000000
      5941      1952  TIP3      OH2           -32.3645049752        0.7102906768      -16.2506771492  SOLV      1941            0.0000000000
      5942      1952  TIP3      H1            -32.6320449752        0.9965806768      -15.3773671492  SOLV      1941            0.0000000000
      5943      1952  TIP3      H2            -31.5932449752        0.1642106768      -16.0984271492  SOLV      1941            0.0000000000
      5944      1953  TIP3      OH2           -19.3916949752       -0.6860293232       -0.0489771492  SOLV      1942            0.0000000000
      5945      1953  TIP3      H1            -20.1735049752       -0.8722293232       -0.5689171492  SOLV      1942            0.0000000000
      5946      1953  TIP3      H2            -19.4637049752        0.2434006768        0.1682728508  SOLV      1942            0.0000000000
      5947      1954  TIP3      OH2            -4.9856549752       -6.7995893232      -10.0182571492  SOLV      1943            0.0000000000
      5948      1954  TIP3      H1             -4.8965449752       -5.8557693232      -10.1505471492  SOLV      1943            0.0000000000
      5949      1954  TIP3      H2             -5.6238949752       -7.0749493232      -10.6763171492  SOLV      1943            0.0000000000
      5950      1955  TIP3      OH2            -6.0525249752       -7.5445193232       -6.5994371492  SOLV      1944            0.0000000000
      5951      1955  TIP3      H1             -6.0907749752       -8.1908893232       -5.8944771492  SOLV      1944            0.0000000000
      5952      1955  TIP3      H2             -6.3748749752       -8.0110793232       -7.3705671492  SOLV      1944            0.0000000000
      5953      1956  TIP3      OH2           -13.6840249752       -7.9303093232       -5.0064471492  SOLV      1945            0.0000000000
      5954      1956  TIP3      H1            -13.6428149752       -8.5559793232       -4.2832071492  SOLV      1945            0.0000000000
      5955      1956  TIP3      H2            -12.9812549752       -7.3064493232       -4.8244071492  SOLV      1945            0.0000000000
      5956      1957  TIP3      OH2            -2.3465049752       -4.6054793232       -8.2979271492  SOLV      1946            0.0000000000
      5957      1957  TIP3      H1             -2.7872349752       -5.3258793232       -7.8473671492  SOLV      1946            0.0000000000
      5958      1957  TIP3      H2             -2.3595349752       -3.8847593232       -7.6681571492  SOLV      1946            0.0000000000
      5959      1958  TIP3      OH2           -12.7607149752       -3.4804193232       -6.4715371492  SOLV      1947            0.0000000000
      5960      1958  TIP3      H1            -13.1301949752       -4.2823693232       -6.8411071492  SOLV      1947            0.0000000000
      5961      1958  TIP3      H2            -11.8196049752       -3.6489293232       -6.4251971492  SOLV      1947            0.0000000000
      5962      1959  TIP3      OH2           -16.1506649752       -9.8201593232      -11.0786571492  SOLV      1948            0.0000000000
      5963      1959  TIP3      H1            -16.5983249752       -8.9742893232      -11.0970071492  SOLV      1948            0.0000000000
      5964      1959  TIP3      H2            -16.7115449752      -10.3997393232      -11.5941471492  SOLV      1948            0.0000000000
      5965      1960  TIP3      OH2           -15.4400549752       -7.6581993232       -8.9528571492  SOLV      1949            0.0000000000
      5966      1960  TIP3      H1            -15.2267049752       -8.4280393232       -8.4255571492  SOLV      1949            0.0000000000
      5967      1960  TIP3      H2            -14.7022949752       -7.5685293232       -9.5560971492  SOLV      1949            0.0000000000
      5968      1961  TIP3      OH2            -5.2349549752        0.4986906768       -8.0858871492  SOLV      1950            0.0000000000
      5969      1961  TIP3      H1             -4.6153149752       -0.1778393232       -8.3589671492  SOLV      1950            0.0000000000
      5970      1961  TIP3      H2             -5.4432149752        0.2807706768       -7.1773971492  SOLV      1950            0.0000000000
      5971      1962  TIP3      OH2            -7.6630849752       -5.1123793232       -6.1933371492  SOLV      1951            0.0000000000
      5972      1962  TIP3      H1             -7.3592949752       -5.7982393232       -6.7879271492  SOLV      1951            0.0000000000
      5973      1962  TIP3      H2             -6.9416849752       -4.9935093232       -5.5755371492  SOLV      1951            0.0000000000
      5974      1963  TIP3      OH2             0.9998950248      -13.5108493232       -5.3327171492  SOLV      1952            0.0000000000
      5975      1963  TIP3      H1              1.0491150248      -12.9007293232       -4.5968071492  SOLV      1952            0.0000000000
      5976      1963  TIP3      H2              1.4254050248      -13.0497593232       -6.0556071492  SOLV      1952            0.0000000000
      5977      1964  TIP3      OH2            -4.5223849752      -10.7181393232       -5.8658571492  SOLV      1953            0.0000000000
      5978      1964  TIP3      H1             -4.3797949752      -11.6644393232       -5.8456971492  SOLV      1953            0.0000000000
      5979      1964  TIP3      H2             -4.6284849752      -10.5111593232       -6.7943671492  SOLV      1953            0.0000000000
      5980      1965  TIP3      OH2           -11.3675549752      -12.6164993232       -8.5933771492  SOLV      1954            0.0000000000
      5981      1965  TIP3      H1            -11.3244449752      -11.7566493232       -9.0117471492  SOLV      1954            0.0000000000
      5982      1965  TIP3      H2            -11.8251449752      -13.1690293232       -9.2270571492  SOLV      1954            0.0000000000
      5983      1966  TIP3      OH2            -3.6452849752      -12.4859393232      -10.1925471492  SOLV      1955            0.0000000000
      5984      1966  TIP3      H1             -2.9988549752      -12.8146193232       -9.5677871492  SOLV      1955            0.0000000000
      5985      1966  TIP3      H2             -3.1353449752      -11.9680393232      -10.8154071492  SOLV      1955            0.0000000000
      5986      1967  TIP3      OH2           -14.7474049752      -10.2199193232       -7.8312371492  SOLV      1956            0.0000000000
      5987      1967  TIP3      H1            -14.0937449752      -10.7697493232       -7.3992271492  SOLV      1956            0.0000000000
      5988      1967  TIP3      H2            -14.7234749752      -10.4940193232       -8.7480371492  SOLV      1956            0.0000000000
      5989      1968  TIP3      OH2            -9.5909549752       -8.6697893232       -8.6160871492  SOLV      1957            0.0000000000
      5990      1968  TIP3      H1             -8.9748549752       -9.1962493232       -8.1066871492  SOLV      1957            0.0000000000
      5991      1968  TIP3      H2            -10.1770749752       -9.3099193232       -9.0197271492  SOLV      1957            0.0000000000
      5992      1969  TIP3      OH2             1.3913550248      -12.0329293232       -3.0967371492  SOLV      1958            0.0000000000
      5993      1969  TIP3      H1              0.7028150248      -11.3748593232       -3.1920771492  SOLV      1958            0.0000000000
      5994      1969  TIP3      H2              1.4068150248      -12.2301393232       -2.1601971492  SOLV      1958            0.0000000000
      5995      1970  TIP3      OH2           -12.5573649752      -13.6986593232       -4.5192971492  SOLV      1959            0.0000000000
      5996      1970  TIP3      H1            -12.7761949752      -13.1685993232       -5.2856971492  SOLV      1959            0.0000000000
      5997      1970  TIP3      H2            -13.2252749752      -13.4721093232       -3.8721571492  SOLV      1959            0.0000000000
      5998      1971  TIP3      OH2            -5.1883849752       -4.1985493232      -10.9753871492  SOLV      1960            0.0000000000
      5999      1971  TIP3      H1             -5.4838749752       -4.5213193232      -11.8266971492  SOLV      1960            0.0000000000
      6000      1971  TIP3      H2             -5.5126049752       -3.2988793232      -10.9341271492  SOLV      1960            0.0000000000
      6001      1972  TIP3      OH2            -9.9882249752       -6.0230893232       -4.2319271492  SOLV      1961            0.0000000000
      6002      1972  TIP3      H1            -10.7283149752       -5.4249393232       -4.1284071492  SOLV      1961            0.0000000000
      6003      1972  TIP3      H2             -9.2742749752       -5.4691293232       -4.5475671492  SOLV      1961            0.0000000000
      6004      1973  TIP3      OH2            -1.8814449752      -13.1950093232       -8.2119571492  SOLV      1962            0.0000000000
      6005      1973  TIP3      H1             -2.0966449752      -13.9606693232       -7.6793571492  SOLV      1962            0.0000000000
      6006      1973  TIP3      H2             -1.2257049752      -12.7225493232       -7.6991071492  SOLV      1962            0.0000000000
      6007      1974  TIP3      OH2           -12.9636349752      -11.8064793232       -6.5670771492  SOLV      1963            0.0000000000
      6008      1974  TIP3      H1            -12.3500049752      -11.1737193232       -6.1938371492  SOLV      1963            0.0000000000
      6009      1974  TIP3      H2            -12.4515649752      -12.2789793232       -7.2233871492  SOLV      1963            0.0000000000
      6010      1975  TIP3      OH2           -11.5807949752       -4.0587893232       -3.4447771492  SOLV      1964            0.0000000000
      6011      1975  TIP3      H1            -11.5860349752       -3.1794393232       -3.8228471492  SOLV      1964            0.0000000000
      6012      1975  TIP3      H2            -12.4343849752       -4.1423793232       -3.0197871492  SOLV      1964            0.0000000000
      6013      1976  TIP3      OH2           -15.4597049752       -4.3879993232      -12.6628471492  SOLV      1965            0.0000000000
      6014      1976  TIP3      H1            -15.7316149752       -4.1588993232      -13.5515571492  SOLV      1965            0.0000000000
      6015      1976  TIP3      H2            -15.4141349752       -3.5501193232      -12.2023171492  SOLV      1965            0.0000000000
      6016      1977  TIP3      OH2            -1.8347349752       -2.7664093232       -5.9499971492  SOLV      1966            0.0000000000
      6017      1977  TIP3      H1             -2.7763649752       -2.7080193232       -5.7883071492  SOLV      1966            0.0000000000
      6018      1977  TIP3      H2             -1.5581249752       -1.8603593232       -6.0870271492  SOLV      1966            0.0000000000
      6019      1978  TIP3      OH2            -1.5340349752      -14.4798793232       -4.5326071492  SOLV      1967            0.0000000000
      6020      1978  TIP3      H1             -2.2701149752      -13.8691693232       -4.5704771492  SOLV      1967            0.0000000000
      6021      1978  TIP3      H2             -0.8506349752      -14.0649793232       -5.0589671492  SOLV      1967            0.0000000000
      6022      1979  TIP3      OH2            -8.5308949752      -16.3931493232       -7.0668071492  SOLV      1968            0.0000000000
      6023      1979  TIP3      H1             -8.6484749752      -17.3415493232       -7.1209771492  SOLV      1968            0.0000000000
      6024      1979  TIP3      H2             -9.3858849752      -16.0605393232       -6.7936971492  SOLV      1968            0.0000000000
      6025      1980  TIP3      OH2            -3.5826149752       -0.9850593232       -9.3248371492  SOLV      1969            0.0000000000
      6026      1980  TIP3      H1             -3.1573849752       -1.6922693232       -9.8098771492  SOLV      1969            0.0000000000
      6027      1980  TIP3      H2             -3.2656149752       -0.1837893232       -9.7416171492  SOLV      1969            0.0000000000
      6028      1981  TIP3      OH2            -2.4229649752       -3.0842093232      -10.8161771492  SOLV      1970            0.0000000000
      6029      1981  TIP3      H1             -2.6804849752       -3.7741993232      -11.4275871492  SOLV      1970            0.0000000000
      6030      1981  TIP3      H2             -2.3518849752       -3.5270893232       -9.9705871492  SOLV      1970            0.0000000000
      6031      1982  TIP3      OH2            -0.7369449752       -4.5175393232       -2.3388271492  SOLV      1971            0.0000000000
      6032      1982  TIP3      H1             -0.5973149752       -5.1092893232       -3.0781271492  SOLV      1971            0.0000000000
      6033      1982  TIP3      H2             -0.5696649752       -3.6449493232       -2.6949471492  SOLV      1971            0.0000000000
      6034      1983  TIP3      OH2            -6.2644049752       -7.5555893232      -12.5662271492  SOLV      1972            0.0000000000
      6035      1983  TIP3      H1             -6.9758549752       -7.0206193232      -12.9181771492  SOLV      1972            0.0000000000
      6036      1983  TIP3      H2             -5.5734449752       -7.5003793232      -13.2263371492  SOLV      1972            0.0000000000
      6037      1984  TIP3      OH2            -6.2104849752       -9.0981593232      -15.5277271492  SOLV      1973            0.0000000000
      6038      1984  TIP3      H1             -5.5094949752       -9.0754693232      -14.8763271492  SOLV      1973            0.0000000000
      6039      1984  TIP3      H2             -5.9081949752       -9.7261893232      -16.1837971492  SOLV      1973            0.0000000000
      6040      1985  TIP3      OH2             1.1049850248       -8.1777393232       -4.2727871492  SOLV      1974            0.0000000000
      6041      1985  TIP3      H1              0.4523950248       -7.4831793232       -4.1836971492  SOLV      1974            0.0000000000
      6042      1985  TIP3      H2              1.5700150248       -7.9676493232       -5.0826271492  SOLV      1974            0.0000000000
      6043      1986  TIP3      OH2            -2.8586349752       -7.3462593232      -11.6146371492  SOLV      1975            0.0000000000
      6044      1986  TIP3      H1             -3.5905349752       -7.1178893232      -11.0415771492  SOLV      1975            0.0000000000
      6045      1986  TIP3      H2             -2.4114149752       -8.0599893232      -11.1598871492  SOLV      1975            0.0000000000
      6046      1987  TIP3      OH2            -2.9612849752       -9.1719993232       -2.5469371492  SOLV      1976            0.0000000000
      6047      1987  TIP3      H1             -2.8813749752       -8.4085593232       -1.9750871492  SOLV      1976            0.0000000000
      6048      1987  TIP3      H2             -3.5625149752       -8.8927593232       -3.2374271492  SOLV      1976            0.0000000000
      6049      1988  TIP3      OH2           -11.2132649752       -6.7156393232       -9.7321371492  SOLV      1977            0.0000000000
      6050      1988  TIP3      H1            -11.5437449752       -7.0862993232      -10.5504371492  SOLV      1977            0.0000000000
      6051      1988  TIP3      H2            -10.6248549752       -7.3862393232       -9.3853071492  SOLV      1977            0.0000000000
      6052      1989  TIP3      OH2            -9.8465149752       -3.2875793232       -7.0509171492  SOLV      1978            0.0000000000
      6053      1989  TIP3      H1             -9.9413849752       -3.8662693232       -7.8074571492  SOLV      1978            0.0000000000
      6054      1989  TIP3      H2             -9.1171549752       -3.6590093232       -6.5546371492  SOLV      1978            0.0000000000
      6055      1990  TIP3      OH2           -10.8467149752       -7.9470793232       -6.0986371492  SOLV      1979            0.0000000000
      6056      1990  TIP3      H1            -10.2814649752       -7.8256593232       -6.8615171492  SOLV      1979            0.0000000000
      6057      1990  TIP3      H2            -10.5278249752       -7.3095793232       -5.4597871492  SOLV      1979            0.0000000000
      6058      1991  TIP3      OH2            -3.9876849752       -8.1839693232      -13.9295171492  SOLV      1980            0.0000000000
      6059      1991  TIP3      H1             -3.4081349752       -8.0339393232      -13.1826271492  SOLV      1980            0.0000000000
      6060      1991  TIP3      H2             -3.5736849752       -7.7132293232      -14.6528771492  SOLV      1980            0.0000000000
      6061      1992  TIP3      OH2           -13.0466549752       -7.3496993232       -2.1528771492  SOLV      1981            0.0000000000
      6062      1992  TIP3      H1            -12.9763349752       -6.6990193232       -1.4543771492  SOLV      1981            0.0000000000
      6063      1992  TIP3      H2            -13.9374349752       -7.2469493232       -2.4877871492  SOLV      1981            0.0000000000
      6064      1993  TIP3      OH2            -6.2611949752       -1.4471193232      -10.4942071492  SOLV      1982            0.0000000000
      6065      1993  TIP3      H1             -5.7874349752       -1.1514893232       -9.7167871492  SOLV      1982            0.0000000000
      6066      1993  TIP3      H2             -6.8242649752       -0.7089593232      -10.7272471492  SOLV      1982            0.0000000000
      6067      1994  TIP3      OH2            -0.2888449752      -16.4339293232      -14.1165471492  SOLV      1983            0.0000000000
      6068      1994  TIP3      H1             -1.1887749752      -16.2950293232      -13.8214871492  SOLV      1983            0.0000000000
      6069      1994  TIP3      H2             -0.0370049752      -15.6024693232      -14.5183771492  SOLV      1983            0.0000000000
      6070      1995  TIP3      OH2           -12.2229949752       -7.6462093232      -12.1428571492  SOLV      1984            0.0000000000
      6071      1995  TIP3      H1            -12.5148649752       -6.8780393232      -12.6337271492  SOLV      1984            0.0000000000
      6072      1995  TIP3      H2            -12.8974749752       -8.3055893232      -12.3057171492  SOLV      1984            0.0000000000
      6073      1996  TIP3      OH2             0.9002950248       -2.0676893232      -15.7401571492  SOLV      1985            0.0000000000
      6074      1996  TIP3      H1              0.9736450248       -1.1286693232      -15.5696271492  SOLV      1985            0.0000000000
      6075      1996  TIP3      H2              1.8058050248       -2.3728293232      -15.7964271492  SOLV      1985            0.0000000000
      6076      1997  TIP3      OH2           -16.1299849752       -5.2832893232       -3.3278771492  SOLV      1986            0.0000000000
      6077      1997  TIP3      H1            -16.6311449752       -5.3113493232       -4.1429071492  SOLV      1986            0.0000000000
      6078      1997  TIP3      H2            -16.1246149752       -6.1889693232       -3.0181471492  SOLV      1986            0.0000000000
      6079      1998  TIP3      OH2           -16.3797149752       -2.5029093232       -6.4438571492  SOLV      1987            0.0000000000
      6080      1998  TIP3      H1            -15.4336549752       -2.6472093232       -6.4629071492  SOLV      1987            0.0000000000
      6081      1998  TIP3      H2            -16.4920849752       -1.7186293232       -5.9067371492  SOLV      1987            0.0000000000
      6082      1999  TIP3      OH2             1.8181350248       -1.8369393232       -0.7614871492  SOLV      1988            0.0000000000
      6083      1999  TIP3      H1              1.7688150248       -2.7921293232       -0.7987271492  SOLV      1988            0.0000000000
      6084      1999  TIP3      H2              0.9913650248       -1.5694093232       -0.3601071492  SOLV      1988            0.0000000000
      6085      2000  TIP3      OH2            -6.7888849752        1.5093506768      -12.0792871492  SOLV      1989            0.0000000000
      6086      2000  TIP3      H1             -6.8642849752        1.3880706768      -13.0257671492  SOLV      1989            0.0000000000
      6087      2000  TIP3      H2             -6.7560149752        2.4586206768      -11.9608271492  SOLV      1989            0.0000000000
      6088      2001  TIP3      OH2           -13.1355049752        0.2980506768      -10.2983871492  SOLV      1990            0.0000000000
      6089      2001  TIP3      H1            -12.9834649752       -0.0499093232       -9.4197371492  SOLV      1990            0.0000000000
      6090      2001  TIP3      H2            -13.9864649752       -0.0582193232      -10.5536671492  SOLV      1990            0.0000000000
      6091      2002  TIP3      OH2            -3.6872849752        0.6633706768      -15.0770471492  SOLV      1991            0.0000000000
      6092      2002  TIP3      H1             -3.3124449752       -0.0810193232      -15.5477871492  SOLV      1991            0.0000000000
      6093      2002  TIP3      H2             -3.6829149752        0.3934306768      -14.1587171492  SOLV      1991            0.0000000000
      6094      2003  TIP3      OH2            -4.0184749752        0.5890806768      -12.3278271492  SOLV      1992            0.0000000000
      6095      2003  TIP3      H1             -4.9534949752        0.6892706768      -12.1491271492  SOLV      1992            0.0000000000
      6096      2003  TIP3      H2             -3.7382849752       -0.1203193232      -11.7495071492  SOLV      1992            0.0000000000
      6097      2004  TIP3      OH2           -13.8809349752       -3.9597493232       -2.2845971492  SOLV      1993            0.0000000000
      6098      2004  TIP3      H1            -13.6648049752       -4.3211893232       -1.4250171492  SOLV      1993            0.0000000000
      6099      2004  TIP3      H2            -14.7364649752       -4.3343693232       -2.4942471492  SOLV      1993            0.0000000000
      6100      2005  TIP3      OH2           -11.2621349752      -15.4896993232       -6.2891771492  SOLV      1994            0.0000000000
      6101      2005  TIP3      H1            -12.1237649752      -15.5768793232       -6.6968871492  SOLV      1994            0.0000000000
      6102      2005  TIP3      H2            -11.2845649752      -14.6336893232       -5.8614171492  SOLV      1994            0.0000000000
      6103      2006  TIP3      OH2            -6.5993549752      -15.7676593232       -2.9144771492  SOLV      1995            0.0000000000
      6104      2006  TIP3      H1             -6.1790449752      -16.1829493232       -2.1614171492  SOLV      1995            0.0000000000
      6105      2006  TIP3      H2             -7.5323949752      -15.9463293232       -2.7972771492  SOLV      1995            0.0000000000
      6106      2007  TIP3      OH2            -3.2728649752      -12.0121393232       -2.0610271492  SOLV      1996            0.0000000000
      6107      2007  TIP3      H1             -3.7869149752      -12.1379193232       -1.2634271492  SOLV      1996            0.0000000000
      6108      2007  TIP3      H2             -3.4283949752      -11.0998293232       -2.3054071492  SOLV      1996            0.0000000000
      6109      2008  TIP3      OH2            -2.5103749752       -7.1511393232      -16.2997271492  SOLV      1997            0.0000000000
      6110      2008  TIP3      H1             -2.4682949752       -7.3737493232      -17.2297271492  SOLV      1997            0.0000000000
      6111      2008  TIP3      H2             -1.6611649752       -6.7524293232      -16.1097371492  SOLV      1997            0.0000000000
      6112      2009  TIP3      OH2            -6.9376249752      -13.2753193232      -15.6293971492  SOLV      1998            0.0000000000
      6113      2009  TIP3      H1             -7.1911449752      -13.2561593232      -14.7065871492  SOLV      1998            0.0000000000
      6114      2009  TIP3      H2             -7.1944149752      -14.1467793232      -15.9307771492  SOLV      1998            0.0000000000
      6115      2010  TIP3      OH2           -11.1711249752      -10.5242493232       -5.1941571492  SOLV      1999            0.0000000000
      6116      2010  TIP3      H1            -11.8129149752      -10.5645193232       -4.4851471492  SOLV      1999            0.0000000000
      6117      2010  TIP3      H2            -11.1339249752       -9.5977793232       -5.4318571492  SOLV      1999            0.0000000000
      6118      2011  TIP3      OH2           -11.1742149752      -10.3032393232      -10.2821571492  SOLV      2000            0.0000000000
      6119      2011  TIP3      H1            -12.0669249752      -10.6436293232      -10.3407771492  SOLV      2000            0.0000000000
      6120      2011  TIP3      H2            -10.7235549752      -10.6801493232      -11.0378371492  SOLV      2000            0.0000000000
      6121      2012  TIP3      OH2            -5.6386649752       -9.8872093232      -11.4650771492  SOLV      2001            0.0000000000
      6122      2012  TIP3      H1             -6.0476349752       -9.0723493232      -11.7565971492  SOLV      2001            0.0000000000
      6123      2012  TIP3      H2             -4.9180449752      -10.0271993232      -12.0793671492  SOLV      2001            0.0000000000
      6124      2013  TIP3      OH2            -6.5365049752       -9.7115693232        0.0229928508  SOLV      2002            0.0000000000
      6125      2013  TIP3      H1             -7.0991249752      -10.4164093232        0.3437728508  SOLV      2002            0.0000000000
      6126      2013  TIP3      H2             -5.7101649752       -9.8323793232        0.4907528508  SOLV      2002            0.0000000000
      6127      2014  TIP3      OH2            -4.6338949752      -10.4411693232       -8.6511071492  SOLV      2003            0.0000000000
      6128      2014  TIP3      H1             -4.8294449752       -9.8354893232       -9.3660471492  SOLV      2003            0.0000000000
      6129      2014  TIP3      H2             -4.4526349752      -11.2746493232       -9.0854771492  SOLV      2003            0.0000000000
      6130      2015  TIP3      OH2           -13.4210749752      -10.2038993232       -3.3269571492  SOLV      2004            0.0000000000
      6131      2015  TIP3      H1            -13.4591349752       -9.8037393232       -2.4582471492  SOLV      2004            0.0000000000
      6132      2015  TIP3      H2            -13.9119649752      -11.0206593232       -3.2366671492  SOLV      2004            0.0000000000
      6133      2016  TIP3      OH2           -10.0553349752      -12.8296693232      -16.5283571492  SOLV      2005            0.0000000000
      6134      2016  TIP3      H1            -10.4862649752      -13.2746593232      -15.7986171492  SOLV      2005            0.0000000000
      6135      2016  TIP3      H2            -10.7734649752      -12.4580393232      -17.0406071492  SOLV      2005            0.0000000000
      6136      2017  TIP3      OH2           -16.8129949752      -13.0877193232       -9.4764871492  SOLV      2006            0.0000000000
      6137      2017  TIP3      H1            -16.1822249752      -13.1165093232       -8.7570971492  SOLV      2006            0.0000000000
      6138      2017  TIP3      H2            -16.3635649752      -13.5128493232      -10.2068971492  SOLV      2006            0.0000000000
      6139      2018  TIP3      OH2           -15.5387849752      -12.3415193232      -14.0524471492  SOLV      2007            0.0000000000
      6140      2018  TIP3      H1            -15.0646149752      -11.7505293232      -14.6373571492  SOLV      2007            0.0000000000
      6141      2018  TIP3      H2            -16.2561449752      -11.8112293232      -13.7054371492  SOLV      2007            0.0000000000
      6142      2019  TIP3      OH2            -5.3699749752       -8.8030393232       -3.9798671492  SOLV      2008            0.0000000000
      6143      2019  TIP3      H1             -5.0464949752       -9.4340693232       -4.6228171492  SOLV      2008            0.0000000000
      6144      2019  TIP3      H2             -5.8100449752       -9.3378193232       -3.3191271492  SOLV      2008            0.0000000000
      6145      2020  TIP3      OH2            -8.5926849752      -12.8754893232       -9.1957471492  SOLV      2009            0.0000000000
      6146      2020  TIP3      H1             -9.5035749752      -12.8188093232       -8.9071471492  SOLV      2009            0.0000000000
      6147      2020  TIP3      H2             -8.0873949752      -12.9359393232       -8.3850271492  SOLV      2009            0.0000000000
      6148      2021  TIP3      OH2           -13.7643449752      -11.2468593232      -10.3689871492  SOLV      2010            0.0000000000
      6149      2021  TIP3      H1            -14.6535449752      -11.1473093232      -10.7090271492  SOLV      2010            0.0000000000
      6150      2021  TIP3      H2            -13.4678549752      -12.0885593232      -10.7151971492  SOLV      2010            0.0000000000
      6151      2022  TIP3      OH2           -10.1111649752      -11.2465993232      -12.7125271492  SOLV      2011            0.0000000000
      6152      2022  TIP3      H1             -9.1796149752      -11.1175993232      -12.5342171492  SOLV      2011            0.0000000000
      6153      2022  TIP3      H2            -10.3261349752      -10.5771693232      -13.3620571492  SOLV      2011            0.0000000000
      6154      2023  TIP3      OH2            -4.1874949752      -13.6408593232       -5.9315671492  SOLV      2012            0.0000000000
      6155      2023  TIP3      H1             -4.8643349752      -13.5095493232       -5.2675971492  SOLV      2012            0.0000000000
      6156      2023  TIP3      H2             -4.6730049752      -13.7959093232       -6.7417971492  SOLV      2012            0.0000000000
      6157      2024  TIP3      OH2           -11.4371449752      -10.0523793232      -15.1459171492  SOLV      2013            0.0000000000
      6158      2024  TIP3      H1            -11.9796349752      -10.4319993232      -15.8371571492  SOLV      2013            0.0000000000
      6159      2024  TIP3      H2            -10.6036549752       -9.8579093232      -15.5745071492  SOLV      2013            0.0000000000
      6160      2025  TIP3      OH2            -7.2727149752      -10.0881893232       -7.3087871492  SOLV      2014            0.0000000000
      6161      2025  TIP3      H1             -6.7083749752      -10.6345293232       -7.8558271492  SOLV      2014            0.0000000000
      6162      2025  TIP3      H2             -7.4203749752      -10.6099993232       -6.5200271492  SOLV      2014            0.0000000000
      6163      2026  TIP3      OH2           -12.2707449752      -13.9515793232      -10.8903071492  SOLV      2015            0.0000000000
      6164      2026  TIP3      H1            -12.5877949752      -14.8540493232      -10.9257671492  SOLV      2015            0.0000000000
      6165      2026  TIP3      H2            -11.4893349752      -13.9498393232      -11.4431471492  SOLV      2015            0.0000000000
      6166      2027  TIP3      OH2            -8.6461249752      -11.6995793232       -4.8947471492  SOLV      2016            0.0000000000
      6167      2027  TIP3      H1             -9.4815949752      -11.2456293232       -4.7845071492  SOLV      2016            0.0000000000
      6168      2027  TIP3      H2             -8.1220649752      -11.4237293232       -4.1427571492  SOLV      2016            0.0000000000
      6169      2028  TIP3      OH2            -8.1018649752       -5.4868093232      -13.2101071492  SOLV      2017            0.0000000000
      6170      2028  TIP3      H1             -8.8467649752       -5.9942793232      -13.5323171492  SOLV      2017            0.0000000000
      6171      2028  TIP3      H2             -8.2361449752       -5.4380093232      -12.2636271492  SOLV      2017            0.0000000000
      6172      2029  TIP3      OH2            -0.9519749752       -6.3539893232       -4.4233471492  SOLV      2018            0.0000000000
      6173      2029  TIP3      H1             -0.3100949752       -5.8973593232       -4.9671271492  SOLV      2018            0.0000000000
      6174      2029  TIP3      H2             -1.7822849752       -6.2407493232       -4.8859371492  SOLV      2018            0.0000000000
      6175      2030  TIP3      OH2            -4.2041849752      -12.6728193232      -15.0108471492  SOLV      2019            0.0000000000
      6176      2030  TIP3      H1             -5.1427649752      -12.5612593232      -15.1619671492  SOLV      2019            0.0000000000
      6177      2030  TIP3      H2             -3.9069749752      -11.8161293232      -14.7042771492  SOLV      2019            0.0000000000
      6178      2031  TIP3      OH2            -6.5826549752       -5.3024793232       -1.9731971492  SOLV      2020            0.0000000000
      6179      2031  TIP3      H1             -6.9280449752       -5.6842393232       -1.1662371492  SOLV      2020            0.0000000000
      6180      2031  TIP3      H2             -6.7826449752       -4.3691193232       -1.9019071492  SOLV      2020            0.0000000000
      6181      2032  TIP3      OH2            -3.4858349752      -10.8055493232      -13.3501071492  SOLV      2021            0.0000000000
      6182      2032  TIP3      H1             -2.5939349752      -10.9430493232      -13.0309871492  SOLV      2021            0.0000000000
      6183      2032  TIP3      H2             -3.4294749752      -10.0149393232      -13.8867571492  SOLV      2021            0.0000000000
      6184      2033  TIP3      OH2           -12.9770349752       -6.1918093232       -7.4403171492  SOLV      2022            0.0000000000
      6185      2033  TIP3      H1            -12.2323149752       -6.1942393232       -8.0416671492  SOLV      2022            0.0000000000
      6186      2033  TIP3      H2            -12.8993749752       -7.0154293232       -6.9588071492  SOLV      2022            0.0000000000
      6187      2034  TIP3      OH2            -5.9764549752       -4.0283793232      -14.1846471492  SOLV      2023            0.0000000000
      6188      2034  TIP3      H1             -6.2716149752       -3.2015893232      -13.8031671492  SOLV      2023            0.0000000000
      6189      2034  TIP3      H2             -6.6794549752       -4.6476893232      -13.9885071492  SOLV      2023            0.0000000000
      6190      2035  TIP3      OH2           -15.9690649752       -7.7311193232       -2.1254671492  SOLV      2024            0.0000000000
      6191      2035  TIP3      H1            -15.7462049752       -8.1491593232       -1.2937171492  SOLV      2024            0.0000000000
      6192      2035  TIP3      H2            -16.5710549752       -8.3436193232       -2.5481871492  SOLV      2024            0.0000000000
      6193      2036  TIP3      OH2            -8.9525749752       -8.2141293232        0.0875028508  SOLV      2025            0.0000000000
      6194      2036  TIP3      H1             -9.2484949752       -8.3798293232       -0.8075871492  SOLV      2025            0.0000000000
      6195      2036  TIP3      H2             -8.0210549752       -8.4340993232        0.0768928508  SOLV      2025            0.0000000000
      6196      2037  TIP3      OH2             1.3990350248      -10.5961393232      -13.6554371492  SOLV      2026            0.0000000000
      6197      2037  TIP3      H1              0.8446650248      -10.9923393232      -14.3276871492  SOLV      2026            0.0000000000
      6198      2037  TIP3      H2              1.4993950248       -9.6856193232      -13.9331071492  SOLV      2026            0.0000000000
      6199      2038  TIP3      OH2             1.3622350248       -4.7959693232       -0.8182871492  SOLV      2027            0.0000000000
      6200      2038  TIP3      H1              0.5110850248       -4.5575893232       -1.1856471492  SOLV      2027            0.0000000000
      6201      2038  TIP3      H2              1.9525750248       -4.8126493232       -1.5715771492  SOLV      2027            0.0000000000
      6202      2039  TIP3      OH2            -0.3057949752       -1.8100993232      -13.1902271492  SOLV      2028            0.0000000000
      6203      2039  TIP3      H1             -0.6786849752       -2.6357193232      -12.8811671492  SOLV      2028            0.0000000000
      6204      2039  TIP3      H2             -0.0284449752       -1.9931593232      -14.0878871492  SOLV      2028            0.0000000000
      6205      2040  TIP3      OH2            -3.1454049752       -7.0021493232       -6.1690371492  SOLV      2029            0.0000000000
      6206      2040  TIP3      H1             -4.0737149752       -7.2339593232       -6.1961071492  SOLV      2029            0.0000000000
      6207      2040  TIP3      H2             -2.6942949752       -7.7791693232       -6.4991571492  SOLV      2029            0.0000000000
      6208      2041  TIP3      OH2           -10.6020949752       -2.6739893232      -10.0361671492  SOLV      2030            0.0000000000
      6209      2041  TIP3      H1            -10.0748749752       -1.9005493232      -10.2362871492  SOLV      2030            0.0000000000
      6210      2041  TIP3      H2            -11.4822449752       -2.4490693232      -10.3377671492  SOLV      2030            0.0000000000
      6211      2042  TIP3      OH2           -14.8473249752       -7.8115793232      -15.4489271492  SOLV      2031            0.0000000000
      6212      2042  TIP3      H1            -14.2313349752       -7.1848593232      -15.0694471492  SOLV      2031            0.0000000000
      6213      2042  TIP3      H2            -15.7090649752       -7.4955993232      -15.1772771492  SOLV      2031            0.0000000000
      6214      2043  TIP3      OH2            -9.1748649752       -5.0109993232      -10.4597371492  SOLV      2032            0.0000000000
      6215      2043  TIP3      H1             -9.4158649752       -4.0855593232      -10.4182071492  SOLV      2032            0.0000000000
      6216      2043  TIP3      H2             -9.9155049752       -5.4698693232      -10.0633471492  SOLV      2032            0.0000000000
      6217      2044  TIP3      OH2           -10.4917849752        0.0107606768      -10.9145171492  SOLV      2033            0.0000000000
      6218      2044  TIP3      H1            -11.4417349752        0.1165006768      -10.8631871492  SOLV      2033            0.0000000000
      6219      2044  TIP3      H2            -10.1399749752        0.8315006768      -10.5697671492  SOLV      2033            0.0000000000
      6220      2045  TIP3      OH2            -5.1161249752       -4.7625693232       -4.4440671492  SOLV      2034            0.0000000000
      6221      2045  TIP3      H1             -5.5419949752       -4.9903993232       -3.6176671492  SOLV      2034            0.0000000000
      6222      2045  TIP3      H2             -4.5355449752       -5.5013893232       -4.6265371492  SOLV      2034            0.0000000000
      6223      2046  TIP3      OH2            -2.9132349752       -3.8335193232      -15.3701671492  SOLV      2035            0.0000000000
      6224      2046  TIP3      H1             -2.5599249752       -4.2135393232      -14.5658171492  SOLV      2035            0.0000000000
      6225      2046  TIP3      H2             -3.8618849752       -3.9270393232      -15.2832371492  SOLV      2035            0.0000000000
      6226      2047  TIP3      OH2             1.5902050248        0.6457306768      -15.1691471492  SOLV      2036            0.0000000000
      6227      2047  TIP3      H1              2.3339950248        1.2317806768      -15.3089871492  SOLV      2036            0.0000000000
      6228      2047  TIP3      H2              0.8960150248        1.2143106768      -14.8359071492  SOLV      2036            0.0000000000
      6229      2048  TIP3      OH2           -14.3351149752      -12.9778493232       -2.5673271492  SOLV      2037            0.0000000000
      6230      2048  TIP3      H1            -15.2278849752      -12.6393093232       -2.6349271492  SOLV      2037            0.0000000000
      6231      2048  TIP3      H2            -14.4338349752      -13.8332393232       -2.1492471492  SOLV      2037            0.0000000000
      6232      2049  TIP3      OH2            -2.0473049752       -5.1613193232      -13.1433771492  SOLV      2038            0.0000000000
      6233      2049  TIP3      H1             -2.3245449752       -5.8893893232      -12.5872671492  SOLV      2038            0.0000000000
      6234      2049  TIP3      H2             -1.1200049752       -5.0421193232      -12.9381171492  SOLV      2038            0.0000000000
      6235      2050  TIP3      OH2           -14.6839149752       -1.1734093232       -4.1323871492  SOLV      2039            0.0000000000
      6236      2050  TIP3      H1            -14.4668849752       -2.1051693232       -4.1634171492  SOLV      2039            0.0000000000
      6237      2050  TIP3      H2            -14.4375649752       -0.8989093232       -3.2491071492  SOLV      2039            0.0000000000
      6238      2051  TIP3      OH2            -8.8224549752       -2.7219093232      -16.9231671492  SOLV      2040            0.0000000000
      6239      2051  TIP3      H1             -8.5834749752       -3.4700993232      -17.4702771492  SOLV      2040            0.0000000000
      6240      2051  TIP3      H2             -9.0913249752       -3.1097393232      -16.0903871492  SOLV      2040            0.0000000000
      6241      2052  TIP3      OH2            -9.8853949752       -3.1515293232      -14.4669071492  SOLV      2041            0.0000000000
      6242      2052  TIP3      H1             -9.7385949752       -3.6715493232      -13.6768171492  SOLV      2041            0.0000000000
      6243      2052  TIP3      H2             -9.8882249752       -2.2447693232      -14.1603171492  SOLV      2041            0.0000000000
      6244      2053  TIP3      OH2           -13.4322849752       -5.8991993232      -13.9563671492  SOLV      2042            0.0000000000
      6245      2053  TIP3      H1            -14.1183549752       -5.5469493232      -13.3893971492  SOLV      2042            0.0000000000
      6246      2053  TIP3      H2            -12.9094949752       -5.1362393232      -14.2029371492  SOLV      2042            0.0000000000
      6247      2054  TIP3      OH2            -5.6007749752      -13.2368193232       -3.6774671492  SOLV      2043            0.0000000000
      6248      2054  TIP3      H1             -4.9019849752      -13.1629493232       -3.0274971492  SOLV      2043            0.0000000000
      6249      2054  TIP3      H2             -5.9816349752      -14.1013193232       -3.5231771492  SOLV      2043            0.0000000000
      6250      2055  TIP3      OH2            -4.8162849752      -13.5846493232      -12.5802371492  SOLV      2044            0.0000000000
      6251      2055  TIP3      H1             -4.5964549752      -13.1131093232      -13.3836971492  SOLV      2044            0.0000000000
      6252      2055  TIP3      H2             -4.2578849752      -13.1903893232      -11.9101771492  SOLV      2044            0.0000000000
      6253      2056  TIP3      OH2            -7.1476749752       -1.4541693232      -13.7174871492  SOLV      2045            0.0000000000
      6254      2056  TIP3      H1             -7.9640649752       -0.9571993232      -13.6650571492  SOLV      2045            0.0000000000
      6255      2056  TIP3      H2             -6.6180449752       -0.9788193232      -14.3576071492  SOLV      2045            0.0000000000
      6256      2057  TIP3      OH2            -7.6162949752      -11.8567693232      -11.7453971492  SOLV      2046            0.0000000000
      6257      2057  TIP3      H1             -6.8040349752      -11.3524493232      -11.6992271492  SOLV      2046            0.0000000000
      6258      2057  TIP3      H2             -7.8609949752      -12.0017993232      -10.8314371492  SOLV      2046            0.0000000000
      6259      2058  TIP3      OH2            -7.0806549752      -10.8704993232       -2.5607371492  SOLV      2047            0.0000000000
      6260      2058  TIP3      H1             -6.9616249752      -10.2969593232       -1.8036971492  SOLV      2047            0.0000000000
      6261      2058  TIP3      H2             -6.4251949752      -11.5585593232       -2.4459571492  SOLV      2047            0.0000000000
      6262      2059  TIP3      OH2            -6.7326249752      -14.7754693232      -10.8072871492  SOLV      2048            0.0000000000
      6263      2059  TIP3      H1             -7.0792749752      -14.1584093232      -10.1628571492  SOLV      2048            0.0000000000
      6264      2059  TIP3      H2             -6.0739349752      -14.2748993232      -11.2887371492  SOLV      2048            0.0000000000
      6265      2060  TIP3      OH2            -9.8093649752       -0.4104493232      -13.7357971492  SOLV      2049            0.0000000000
      6266      2060  TIP3      H1             -9.6484949752        0.3893006768      -14.2365371492  SOLV      2049            0.0000000000
      6267      2060  TIP3      H2            -10.0065849752       -0.1038493232      -12.8507371492  SOLV      2049            0.0000000000
      6268      2061  TIP3      OH2           -11.0749249752      -13.7125293232      -14.1200371492  SOLV      2050            0.0000000000
      6269      2061  TIP3      H1            -11.1584449752      -12.8242193232      -13.7733971492  SOLV      2050            0.0000000000
      6270      2061  TIP3      H2            -10.1848949752      -13.9778593232      -13.8883571492  SOLV      2050            0.0000000000
      6271      2062  TIP3      OH2            -0.8760749752      -12.9634693232       -1.7257671492  SOLV      2051            0.0000000000
      6272      2062  TIP3      H1             -1.7924949752      -12.7012993232       -1.8133971492  SOLV      2051            0.0000000000
      6273      2062  TIP3      H2             -0.5405749752      -12.9665693232       -2.6222371492  SOLV      2051            0.0000000000
      6274      2063  TIP3      OH2            -2.2739749752       -9.2133693232       -7.6300371492  SOLV      2052            0.0000000000
      6275      2063  TIP3      H1             -3.0715349752       -9.6283493232       -7.9585371492  SOLV      2052            0.0000000000
      6276      2063  TIP3      H2             -1.8288649752       -9.9039993232       -7.1389871492  SOLV      2052            0.0000000000
      6277      2064  TIP3      OH2           -12.8163949752       -3.2853093232      -15.0595871492  SOLV      2053            0.0000000000
      6278      2064  TIP3      H1            -12.2242449752       -2.5858293232      -14.7833471492  SOLV      2053            0.0000000000
      6279      2064  TIP3      H2            -12.3570949752       -3.7183593232      -15.7791271492  SOLV      2053            0.0000000000
      6280      2065  TIP3      OH2           -14.5004749752      -10.6210093232      -15.9436471492  SOLV      2054            0.0000000000
      6281      2065  TIP3      H1            -14.5452149752       -9.6816993232      -15.7649471492  SOLV      2054            0.0000000000
      6282      2065  TIP3      H2            -15.3881549752      -10.8565193232      -16.2134371492  SOLV      2054            0.0000000000
      6283      2066  TIP3      OH2            -1.1875149752        0.0428806768       -6.0076871492  SOLV      2055            0.0000000000
      6284      2066  TIP3      H1             -1.3430849752        0.7213206768       -6.6647571492  SOLV      2055            0.0000000000
      6285      2066  TIP3      H2             -0.2548749752        0.1148106768       -5.8046271492  SOLV      2055            0.0000000000
      6286      2067  TIP3      OH2           -13.6922749752      -15.8393493232       -7.2705471492  SOLV      2056            0.0000000000
      6287      2067  TIP3      H1            -13.9212949752      -15.7800993232       -8.1980471492  SOLV      2056            0.0000000000
      6288      2067  TIP3      H2            -14.1349349752      -16.6307993232       -6.9641371492  SOLV      2056            0.0000000000
      6289      2068  TIP3      OH2           -14.7619449752       -1.8986393232      -11.1099671492  SOLV      2057            0.0000000000
      6290      2068  TIP3      H1            -15.5940849752       -1.4263693232      -11.0828271492  SOLV      2057            0.0000000000
      6291      2068  TIP3      H2            -14.2161149752       -1.3888793232      -11.7086571492  SOLV      2057            0.0000000000
      6292      2069  TIP3      OH2           -15.4735749752        0.7137306768        0.2198328508  SOLV      2058            0.0000000000
      6293      2069  TIP3      H1            -14.9333549752        0.4971306768        0.9797528508  SOLV      2058            0.0000000000
      6294      2069  TIP3      H2            -15.9547749752       -0.0916693232        0.0300828508  SOLV      2058            0.0000000000
      6295      2070  TIP3      OH2           -10.8762349752       -0.3668293232        1.8402528508  SOLV      2059            0.0000000000
      6296      2070  TIP3      H1            -10.1085149752       -0.8257493232        2.1811728508  SOLV      2059            0.0000000000
      6297      2070  TIP3      H2            -10.8976149752       -0.5928493232        0.9103728508  SOLV      2059            0.0000000000
      6298      2071  TIP3      OH2            -6.7842749752       -0.8587693232      -16.7845671492  SOLV      2060            0.0000000000
      6299      2071  TIP3      H1             -7.4281749752       -1.4899093232      -16.4631971492  SOLV      2060            0.0000000000
      6300      2071  TIP3      H2             -6.0224449752       -1.3899693232      -17.0162171492  SOLV      2060            0.0000000000
      6301      2072  TIP3      OH2            -2.1799849752       -1.0417793232      -16.5507671492  SOLV      2061            0.0000000000
      6302      2072  TIP3      H1             -1.8969449752       -1.8362593232      -16.0980771492  SOLV      2061            0.0000000000
      6303      2072  TIP3      H2             -1.4401949752       -0.8086793232      -17.1116571492  SOLV      2061            0.0000000000
      6304      2073  TIP3      OH2           -15.5666249752       -5.4758593232        1.1742628508  SOLV      2062            0.0000000000
      6305      2073  TIP3      H1            -15.4225749752       -6.3777893232        0.8879328508  SOLV      2062            0.0000000000
      6306      2073  TIP3      H2            -16.3388849752       -5.1896493232        0.6864928508  SOLV      2062            0.0000000000
      6307      2074  TIP3      OH2           -11.2252549752       -5.1322893232      -16.6932771492  SOLV      2063            0.0000000000
      6308      2074  TIP3      H1            -11.1608449752       -5.9263293232      -16.1626371492  SOLV      2063            0.0000000000
      6309      2074  TIP3      H2            -10.5723349752       -5.2510093232      -17.3830771492  SOLV      2063            0.0000000000
      6310      2075  TIP3      OH2            -5.8729149752       -4.0851193232      -16.9574771492  SOLV      2064            0.0000000000
      6311      2075  TIP3      H1             -6.1415049752       -3.9049093232      -16.0565871492  SOLV      2064            0.0000000000
      6312      2075  TIP3      H2             -6.0793549752       -5.0104993232      -17.0888971492  SOLV      2064            0.0000000000
      6313      2076  TIP3      OH2            -3.1764949752       -5.5903193232       -2.0098671492  SOLV      2065            0.0000000000
      6314      2076  TIP3      H1             -2.4310149752       -5.0019493232       -2.1294671492  SOLV      2065            0.0000000000
      6315      2076  TIP3      H2             -3.9338149752       -5.0083493232       -1.9465571492  SOLV      2065            0.0000000000
      6316      2077  TIP3      OH2           -14.7339749752       -8.2755293232        0.5941928508  SOLV      2066            0.0000000000
      6317      2077  TIP3      H1            -14.3258549752       -9.1328693232        0.4732528508  SOLV      2066            0.0000000000
      6318      2077  TIP3      H2            -14.9942149752       -8.2613993232        1.5152228508  SOLV      2066            0.0000000000
      6319      2078  TIP3      OH2           -10.0758749752       -7.1596693232      -14.3874771492  SOLV      2067            0.0000000000
      6320      2078  TIP3      H1            -10.5356749752       -7.6438393232      -13.7016271492  SOLV      2067            0.0000000000
      6321      2078  TIP3      H2             -9.8210049752       -7.8281293232      -15.0234271492  SOLV      2067            0.0000000000
      6322      2079  TIP3      OH2           -10.7869449752       -9.2669593232       -2.0315171492  SOLV      2068            0.0000000000
      6323      2079  TIP3      H1            -11.4053349752       -8.5922993232       -1.7510471492  SOLV      2068            0.0000000000
      6324      2079  TIP3      H2            -10.4428249752       -8.9455693232       -2.8648971492  SOLV      2068            0.0000000000
      6325      2080  TIP3      OH2            -9.0048349752       -8.9164893232      -16.1251571492  SOLV      2069            0.0000000000
      6326      2080  TIP3      H1             -9.1853349752       -9.0713693232      -17.0523271492  SOLV      2069            0.0000000000
      6327      2080  TIP3      H2             -8.0547849752       -8.8086193232      -16.0803671492  SOLV      2069            0.0000000000
      6328      2081  TIP3      OH2            -5.7671249752       -6.7954293232        1.2459628508  SOLV      2070            0.0000000000
      6329      2081  TIP3      H1             -4.8140049752       -6.7115193232        1.2185628508  SOLV      2070            0.0000000000
      6330      2081  TIP3      H2             -5.9276649752       -7.5072493232        1.8654528508  SOLV      2070            0.0000000000
      6331      2082  TIP3      OH2             0.3849950248       -6.5620693232      -16.6793471492  SOLV      2071            0.0000000000
      6332      2082  TIP3      H1              0.1114750248       -6.9865193232      -17.4925171492  SOLV      2071            0.0000000000
      6333      2082  TIP3      H2              0.4244050248       -5.6306193232      -16.8963071492  SOLV      2071            0.0000000000
      6334      2083  TIP3      OH2           -10.4475749752      -11.9118793232       -0.9492071492  SOLV      2072            0.0000000000
      6335      2083  TIP3      H1            -10.2974849752      -12.6407493232       -1.5512371492  SOLV      2072            0.0000000000
      6336      2083  TIP3      H2            -10.4453349752      -11.1347093232       -1.5079871492  SOLV      2072            0.0000000000
      6337      2084  TIP3      OH2           -10.0350049752      -13.5422993232       -3.4564671492  SOLV      2073            0.0000000000
      6338      2084  TIP3      H1             -9.4992549752      -13.0906293232       -4.1085371492  SOLV      2073            0.0000000000
      6339      2084  TIP3      H2            -10.8870449752      -13.6503193232       -3.8790571492  SOLV      2073            0.0000000000
      6340      2085  TIP3      OH2            -8.4531649752       -8.1026793232       -3.2169471492  SOLV      2074            0.0000000000
      6341      2085  TIP3      H1             -7.7026849752       -8.2589293232       -3.7901671492  SOLV      2074            0.0000000000
      6342      2085  TIP3      H2             -8.7923349752       -7.2510193232       -3.4923971492  SOLV      2074            0.0000000000
      6343      2086  TIP3      OH2            -4.0375449752      -10.2874993232        1.8115828508  SOLV      2075            0.0000000000
      6344      2086  TIP3      H1             -3.8454149752      -11.2185593232        1.7000328508  SOLV      2075            0.0000000000
      6345      2086  TIP3      H2             -3.1799149752       -9.8625493232        1.8011228508  SOLV      2075            0.0000000000
      6346      2087  TIP3      OH2            -2.7208249752       -7.4989793232       -0.1111471492  SOLV      2076            0.0000000000
      6347      2087  TIP3      H1             -3.0023249752       -6.7895193232       -0.6887671492  SOLV      2076            0.0000000000
      6348      2087  TIP3      H2             -1.7783949752       -7.5716793232       -0.2620271492  SOLV      2076            0.0000000000
      6349      2088  TIP3      OH2           -11.9689449752      -10.7135293232        0.9623528508  SOLV      2077            0.0000000000
      6350      2088  TIP3      H1            -12.7360449752      -11.2460493232        0.7521128508  SOLV      2077            0.0000000000
      6351      2088  TIP3      H2            -11.2900449752      -11.0234893232        0.3629828508  SOLV      2077            0.0000000000
      6352      2089  TIP3      OH2            -9.2294549752      -16.0857293232       -3.0251071492  SOLV      2078            0.0000000000
      6353      2089  TIP3      H1             -9.3274949752      -15.1394093232       -3.1304871492  SOLV      2078            0.0000000000
      6354      2089  TIP3      H2             -9.9718349752      -16.4583493232       -3.5007571492  SOLV      2078            0.0000000000
      6355      2090  TIP3      OH2            -7.9654049752      -11.7641893232        0.5387328508  SOLV      2079            0.0000000000
      6356      2090  TIP3      H1             -8.2008649752      -11.9835193232        1.4402228508  SOLV      2079            0.0000000000
      6357      2090  TIP3      H2             -8.7487149752      -11.9710693232        0.0289828508  SOLV      2079            0.0000000000
      6358      2091  TIP3      OH2            -5.2497449752      -12.6368393232       -0.3859171492  SOLV      2080            0.0000000000
      6359      2091  TIP3      H1             -6.1972049752      -12.6048693232       -0.2535871492  SOLV      2080            0.0000000000
      6360      2091  TIP3      H2             -4.9370749752      -13.2621293232        0.2679028508  SOLV      2080            0.0000000000
      6361      2092  TIP3      OH2            -3.6155949752      -14.0027293232        1.6192728508  SOLV      2081            0.0000000000
      6362      2092  TIP3      H1             -3.7124149752      -14.9549993232        1.6134628508  SOLV      2081            0.0000000000
      6363      2092  TIP3      H2             -3.9372849752      -13.7340493232        2.4798228508  SOLV      2081            0.0000000000
      6364      2093  TIP3      OH2           -13.7886649752      -12.7931493232        0.6668228508  SOLV      2082            0.0000000000
      6365      2093  TIP3      H1            -13.5769249752      -13.4995393232        0.0565728508  SOLV      2082            0.0000000000
      6366      2093  TIP3      H2            -13.8999149752      -13.2305493232        1.5109428508  SOLV      2082            0.0000000000
      6367      2094  TIP3      OH2            -9.0076449752      -16.7919893232       -0.3538271492  SOLV      2083            0.0000000000
      6368      2094  TIP3      H1             -8.2958049752      -17.4317693232       -0.3679171492  SOLV      2083            0.0000000000
      6369      2094  TIP3      H2             -9.1086049752      -16.5251593232       -1.2675171492  SOLV      2083            0.0000000000
      6370      2095  TIP3      OH2            -8.6538949752      -15.1091493232        1.6998028508  SOLV      2084            0.0000000000
      6371      2095  TIP3      H1             -8.7856749752      -15.5847693232        0.8796528508  SOLV      2084            0.0000000000
      6372      2095  TIP3      H2             -9.2531549752      -14.3647893232        1.6445128508  SOLV      2084            0.0000000000
      6373      2096  TIP3      OH2            -9.1076649752        1.7738806768      -15.1237971492  SOLV      2085            0.0000000000
      6374      2096  TIP3      H1             -8.1745949752        1.9317506768      -14.9799571492  SOLV      2085            0.0000000000
      6375      2096  TIP3      H2             -9.3717849752        2.4491806768      -15.7486471492  SOLV      2085            0.0000000000
      6376      2097  TIP3      OH2           -15.5391749752       -3.5897393232      -15.6409871492  SOLV      2086            0.0000000000
      6377      2097  TIP3      H1            -14.6252549752       -3.5108493232      -15.3675971492  SOLV      2086            0.0000000000
      6378      2097  TIP3      H2            -15.5318649752       -4.2767793232      -16.3074271492  SOLV      2086            0.0000000000
      6379      2098  TIP3      OH2           -16.8901149752        1.8031106768      -10.5635971492  SOLV      2087            0.0000000000
      6380      2098  TIP3      H1            -17.5374049752        1.3412806768      -11.0964771492  SOLV      2087            0.0000000000
      6381      2098  TIP3      H2            -16.5356549752        1.1314406768       -9.9809771492  SOLV      2087            0.0000000000
      6382      2099  TIP3      OH2           -16.0201949752       -0.1161893232       -8.7589771492  SOLV      2088            0.0000000000
      6383      2099  TIP3      H1            -16.3545149752       -0.9964593232       -8.5869571492  SOLV      2088            0.0000000000
      6384      2099  TIP3      H2            -15.7979549752        0.2293106768       -7.8944171492  SOLV      2088            0.0000000000
      6385      2100  TIP3      OH2             1.5282850248        0.6934506768       -5.7784971492  SOLV      2089            0.0000000000
      6386      2100  TIP3      H1              1.5069550248        0.8782906768       -4.8395571492  SOLV      2089            0.0000000000
      6387      2100  TIP3      H2              2.2189050248        1.2618506768       -6.1193571492  SOLV      2089            0.0000000000
      6388      2101  TIP3      OH2             1.0915750248        0.2605606768       -2.8565871492  SOLV      2090            0.0000000000
      6389      2101  TIP3      H1              0.6044450248       -0.4750293232       -3.2278471492  SOLV      2090            0.0000000000
      6390      2101  TIP3      H2              1.6408450248       -0.1330493232       -2.1786471492  SOLV      2090            0.0000000000
      6391      2102  TIP3      OH2            -0.4576949752       -3.9496293232        1.7814428508  SOLV      2091            0.0000000000
      6392      2102  TIP3      H1             -1.3235849752       -4.0546593232        2.1756728508  SOLV      2091            0.0000000000
      6393      2102  TIP3      H2             -0.0811049752       -3.1912993232        2.2279128508  SOLV      2091            0.0000000000
      6394      2103  TIP3      OH2             0.8432750248       -5.6932593232      -12.7043071492  SOLV      2092            0.0000000000
      6395      2103  TIP3      H1              1.6934150248       -5.2721693232      -12.5771471492  SOLV      2092            0.0000000000
      6396      2103  TIP3      H2              0.8487850248       -6.4332493232      -12.0971671492  SOLV      2092            0.0000000000
      6397      2104  TIP3      OH2             1.2378350248       -7.6395193232      -10.8807371492  SOLV      2093            0.0000000000
      6398      2104  TIP3      H1              0.5112950248       -8.1192593232      -10.4829771492  SOLV      2093            0.0000000000
      6399      2104  TIP3      H2              1.8191650248       -7.4340493232      -10.1485771492  SOLV      2093            0.0000000000
      6400      2105  TIP3      OH2             0.9969550248       -4.8547693232       -5.9329771492  SOLV      2094            0.0000000000
      6401      2105  TIP3      H1              1.8303750248       -5.2327693232       -6.2136171492  SOLV      2094            0.0000000000
      6402      2105  TIP3      H2              1.1089850248       -3.9116493232       -6.0520671492  SOLV      2094            0.0000000000
      6403      2106  TIP3      OH2            -0.5168149752       -1.9770193232       -3.6261371492  SOLV      2095            0.0000000000
      6404      2106  TIP3      H1             -1.1642849752       -1.6518693232       -3.0006171492  SOLV      2095            0.0000000000
      6405      2106  TIP3      H2             -1.0344149752       -2.4172493232       -4.3003071492  SOLV      2095            0.0000000000
      6406      2107  TIP3      OH2             1.5061450248       -7.7386693232      -14.4896071492  SOLV      2096            0.0000000000
      6407      2107  TIP3      H1              0.9842550248       -7.3822593232      -15.2085171492  SOLV      2096            0.0000000000
      6408      2107  TIP3      H2              1.4730650248       -7.0638893232      -13.8115171492  SOLV      2096            0.0000000000
      6409      2108  TIP3      OH2            -0.1449549752      -10.4991093232      -15.9388971492  SOLV      2097            0.0000000000
      6410      2108  TIP3      H1             -0.0485149752       -9.8324093232      -16.6189271492  SOLV      2097            0.0000000000
      6411      2108  TIP3      H2             -0.2849949752      -11.3144793232      -16.4203471492  SOLV      2097            0.0000000000
      6412      2109  TIP3      OH2            -0.9754849752       -9.1188693232      -10.3178671492  SOLV      2098            0.0000000000
      6413      2109  TIP3      H1             -1.1256049752      -10.0640093232      -10.3380871492  SOLV      2098            0.0000000000
      6414      2109  TIP3      H2             -1.3290349752       -8.8377293232       -9.4739571492  SOLV      2098            0.0000000000
      6415      2110  TIP3      OH2           -15.9402449752       -7.0406493232       -6.3074871492  SOLV      2099            0.0000000000
      6416      2110  TIP3      H1            -15.7559549752       -7.1224793232       -7.2431971492  SOLV      2099            0.0000000000
      6417      2110  TIP3      H2            -15.0909549752       -7.1649493232       -5.8838471492  SOLV      2099            0.0000000000
      6418      2111  TIP3      OH2            -0.1191949752       -7.1485393232       -0.6790371492  SOLV      2100            0.0000000000
      6419      2111  TIP3      H1              0.4635350248       -7.8833093232       -0.4873171492  SOLV      2100            0.0000000000
      6420      2111  TIP3      H2              0.4447350248       -6.3765093232       -0.6324571492  SOLV      2100            0.0000000000
      6421      2112  TIP3      OH2            -0.8975749752      -13.0911293232      -16.8213471492  SOLV      2101            0.0000000000
      6422      2112  TIP3      H1             -0.2869949752      -13.4624493232      -16.1845271492  SOLV      2101            0.0000000000
      6423      2112  TIP3      H2             -1.7344249752      -13.5124393232      -16.6253471492  SOLV      2101            0.0000000000
      6424      2113  TIP3      OH2            -1.2650049752      -11.5362893232      -11.8553571492  SOLV      2102            0.0000000000
      6425      2113  TIP3      H1             -0.9852949752      -12.4432493232      -11.7311871492  SOLV      2102            0.0000000000
      6426      2113  TIP3      H2             -0.5058349752      -11.1021393232      -12.2444371492  SOLV      2102            0.0000000000
      6427      2114  TIP3      OH2            -0.6531749752      -10.9545493232       -6.4194671492  SOLV      2103            0.0000000000
      6428      2114  TIP3      H1              0.2796250248      -10.7425593232       -6.4538671492  SOLV      2103            0.0000000000
      6429      2114  TIP3      H2             -0.8884249752      -10.8533393232       -5.4971671492  SOLV      2103            0.0000000000
      6430      2115  TIP3      OH2            -0.6239849752      -10.2180193232       -3.6435271492  SOLV      2104            0.0000000000
      6431      2115  TIP3      H1             -1.4668549752       -9.9499793232       -3.2775471492  SOLV      2104            0.0000000000
      6432      2115  TIP3      H2             -0.1815549752       -9.3958293232       -3.8544171492  SOLV      2104            0.0000000000
      6433      2116  TIP3      OH2           -16.3427649752      -11.7701493232       -0.1666071492  SOLV      2105            0.0000000000
      6434      2116  TIP3      H1            -15.4232749752      -11.8923193232        0.0697028508  SOLV      2105            0.0000000000
      6435      2116  TIP3      H2            -16.7923149752      -12.5201793232        0.2227428508  SOLV      2105            0.0000000000
      6436      2117  TIP3      OH2             1.6591750248      -16.2379993232        1.7099728508  SOLV      2106            0.0000000000
      6437      2117  TIP3      H1              2.0088750248      -16.8916493232        1.1044428508  SOLV      2106            0.0000000000
      6438      2117  TIP3      H2              1.8061250248      -15.4005893232        1.2702328508  SOLV      2106            0.0000000000
      6439      2118  TIP3      OH2            -0.6515249752      -14.2733593232      -11.8071571492  SOLV      2107            0.0000000000
      6440      2118  TIP3      H1             -0.4690249752      -14.7222093232      -10.9816571492  SOLV      2107            0.0000000000
      6441      2118  TIP3      H2             -1.2512349752      -14.8579193232      -12.2706971492  SOLV      2107            0.0000000000
      6442      2119  TIP3      OH2           -15.1215149752      -13.4579893232       -7.2753171492  SOLV      2108            0.0000000000
      6443      2119  TIP3      H1            -14.6763549752      -14.2497393232       -6.9733471492  SOLV      2108            0.0000000000
      6444      2119  TIP3      H2            -14.6552149752      -12.7414693232       -6.8447571492  SOLV      2108            0.0000000000
      6445      2120  TIP3      OH2           -16.8174849752      -10.4586893232       -6.2062971492  SOLV      2109            0.0000000000
      6446      2120  TIP3      H1            -16.3255049752      -10.6796393232       -6.9970971492  SOLV      2109            0.0000000000
      6447      2120  TIP3      H2            -16.4553949752       -9.6183493232       -5.9253471492  SOLV      2109            0.0000000000
      6448      2121  TIP3      OH2             1.1788950248      -14.1285393232        0.0591028508  SOLV      2110            0.0000000000
      6449      2121  TIP3      H1              0.2614650248      -13.8578293232        0.0234528508  SOLV      2110            0.0000000000
      6450      2121  TIP3      H2              1.3018350248      -14.6636993232       -0.7249271492  SOLV      2110            0.0000000000
      6451      2122  TIP3      OH2             1.2150950248      -14.2055493232      -15.2791271492  SOLV      2111            0.0000000000
      6452      2122  TIP3      H1              1.6273550248      -14.9269793232      -15.7543271492  SOLV      2111            0.0000000000
      6453      2122  TIP3      H2              1.8967450248      -13.5360893232      -15.2206971492  SOLV      2111            0.0000000000
      6454      2123  TIP3      OH2           -16.5038349752      -14.2007793232      -12.1520571492  SOLV      2112            0.0000000000
      6455      2123  TIP3      H1            -17.4289949752      -13.9921193232      -12.2815071492  SOLV      2112            0.0000000000
      6456      2123  TIP3      H2            -16.0498449752      -13.7166993232      -12.8418271492  SOLV      2112            0.0000000000
      6457      2124  TIP3      OH2            -1.7331149752        0.7833906768      -10.2063171492  SOLV      2113            0.0000000000
      6458      2124  TIP3      H1             -1.0808249752        0.4356006768      -10.8144071492  SOLV      2113            0.0000000000
      6459      2124  TIP3      H2             -1.2227349752        1.2717106768       -9.5603471492  SOLV      2113            0.0000000000
      6460      2125  TIP3      OH2           -16.5402949752      -15.4628793232       -3.8078071492  SOLV      2114            0.0000000000
      6461      2125  TIP3      H1            -17.2052449752      -15.7088493232       -3.1647171492  SOLV      2114            0.0000000000
      6462      2125  TIP3      H2            -16.9831649752      -14.8408393232       -4.3850071492  SOLV      2114            0.0000000000
      6463      2126  TIP3      OH2           -11.3940749752       -1.3133493232       -3.4048271492  SOLV      2115            0.0000000000
      6464      2126  TIP3      H1            -11.8189649752       -0.5034993232       -3.6873671492  SOLV      2115            0.0000000000
      6465      2126  TIP3      H2            -10.4897949752       -1.2279393232       -3.7068471492  SOLV      2115            0.0000000000
      6466      2127  TIP3      OH2             0.1794850248      -16.0389093232       -2.1218171492  SOLV      2116            0.0000000000
      6467      2127  TIP3      H1             -0.6331649752      -15.7138793232       -2.5093471492  SOLV      2116            0.0000000000
      6468      2127  TIP3      H2              0.4123350248      -16.7990593232       -2.6549071492  SOLV      2116            0.0000000000
      6469      2128  TIP3      OH2           -13.9924049752        1.9430406768       -3.3572971492  SOLV      2117            0.0000000000
      6470      2128  TIP3      H1            -14.7127649752        2.3831406768       -3.8085271492  SOLV      2117            0.0000000000
      6471      2128  TIP3      H2            -14.3580049752        1.6925106768       -2.5088971492  SOLV      2117            0.0000000000
      6472      2129  TIP3      OH2           -11.5251449752        1.5434306768       -4.3275771492  SOLV      2118            0.0000000000
      6473      2129  TIP3      H1            -12.3899249752        1.6152806768       -3.9235671492  SOLV      2118            0.0000000000
      6474      2129  TIP3      H2            -11.5802449752        2.0901606768       -5.1113271492  SOLV      2118            0.0000000000
      6475      2130  TIP3      OH2            -6.8145849752        1.4313206768       -5.1519771492  SOLV      2119            0.0000000000
      6476      2130  TIP3      H1             -7.2711849752        1.9602906768       -5.8061371492  SOLV      2119            0.0000000000
      6477      2130  TIP3      H2             -6.6517849752        2.0344606768       -4.4267471492  SOLV      2119            0.0000000000
      6478      2131  TIP3      OH2            -1.8827649752        1.8791906768       -3.9121671492  SOLV      2120            0.0000000000
      6479      2131  TIP3      H1             -2.0645649752        2.7950806768       -4.1226771492  SOLV      2120            0.0000000000
      6480      2131  TIP3      H2             -1.7059849752        1.4689006768       -4.7587071492  SOLV      2120            0.0000000000
      6481      2132  TIP3      OH2           -14.5775949752        0.5662906768       -6.4471171492  SOLV      2121            0.0000000000
      6482      2132  TIP3      H1            -14.5959949752        0.1408006768       -5.5898871492  SOLV      2121            0.0000000000
      6483      2132  TIP3      H2            -13.7728049752        0.2477906768       -6.8558971492  SOLV      2121            0.0000000000
      6484      2133  TIP3      OH2           -12.4362849752       -0.7238393232       -7.7921271492  SOLV      2122            0.0000000000
      6485      2133  TIP3      H1            -12.6552149752       -1.6400993232       -7.6225271492  SOLV      2122            0.0000000000
      6486      2133  TIP3      H2            -11.6120649752       -0.5837993232       -7.3259871492  SOLV      2122            0.0000000000
      6487      2134  TIP3      OH2            -9.8990349752       -0.2539093232       -6.9433271492  SOLV      2123            0.0000000000
      6488      2134  TIP3      H1             -9.6864649752       -1.1420093232       -7.2302371492  SOLV      2123            0.0000000000
      6489      2134  TIP3      H2             -9.8345249752       -0.2881393232       -5.9889271492  SOLV      2123            0.0000000000
      6490      2135  TIP3      OH2            -6.3906649752      -14.5898493232       -7.7989971492  SOLV      2124            0.0000000000
      6491      2135  TIP3      H1             -7.0649849752      -15.2192893232       -7.5434171492  SOLV      2124            0.0000000000
      6492      2135  TIP3      H2             -5.8267449752      -15.0739593232       -8.4022071492  SOLV      2124            0.0000000000
      6493      2136  TIP3      OH2            -1.2479449752      -16.4824493232       -7.6862871492  SOLV      2125            0.0000000000
      6494      2136  TIP3      H1             -0.6441849752      -15.9349093232       -8.1881871492  SOLV      2125            0.0000000000
      6495      2136  TIP3      H2             -2.1177449752      -16.1634093232       -7.9268771492  SOLV      2125            0.0000000000
      6496      2137  TIP3      OH2             0.4790950248      -15.3435793232       -9.3531971492  SOLV      2126            0.0000000000
      6497      2137  TIP3      H1              1.0908450248      -15.8580093232       -9.8798371492  SOLV      2126            0.0000000000
      6498      2137  TIP3      H2              0.8614350248      -14.4663693232       -9.3297571492  SOLV      2126            0.0000000000
      6499      2138  TIP3      OH2           -14.0639149752      -15.9558193232       -9.9770071492  SOLV      2127            0.0000000000
      6500      2138  TIP3      H1            -14.8409349752      -16.1903293232      -10.4844171492  SOLV      2127            0.0000000000
      6501      2138  TIP3      H2            -13.5335549752      -16.7526093232       -9.9682071492  SOLV      2127            0.0000000000
      6502      2139  TIP3      OH2           -15.2275749752      -16.1580093232      -14.1733971492  SOLV      2128            0.0000000000
      6503      2139  TIP3      H1            -14.7885049752      -15.5469593232      -14.7650471492  SOLV      2128            0.0000000000
      6504      2139  TIP3      H2            -15.8613349752      -15.6195993232      -13.6993971492  SOLV      2128            0.0000000000
      6505      2140  TIP3      OH2            -9.4846549752      -16.0291093232      -10.1636971492  SOLV      2129            0.0000000000
      6506      2140  TIP3      H1             -8.6103149752      -15.6406793232      -10.1932671492  SOLV      2129            0.0000000000
      6507      2140  TIP3      H2             -9.6205749752      -16.2443293232       -9.2409771492  SOLV      2129            0.0000000000
      6508      2141  TIP3      OH2            -3.9278149752      -15.9991293232       -8.5145271492  SOLV      2130            0.0000000000
      6509      2141  TIP3      H1             -3.8516549752      -15.9039693232       -9.4639271492  SOLV      2130            0.0000000000
      6510      2141  TIP3      H2             -4.2028949752      -16.9068393232       -8.3856171492  SOLV      2130            0.0000000000
      6511      2142  TIP3      OH2            -2.5745549752      -15.9733493232      -12.8220271492  SOLV      2131            0.0000000000
      6512      2142  TIP3      H1             -3.2774449752      -15.3584293232      -13.0318871492  SOLV      2131            0.0000000000
      6513      2142  TIP3      H2             -3.0194149752      -16.8106793232      -12.6909371492  SOLV      2131            0.0000000000
      6514      2143  TIP3      OH2           -15.3266249752       -0.2097893232      -13.2758871492  SOLV      2132            0.0000000000
      6515      2143  TIP3      H1            -16.0116349752       -0.2478993232      -13.9433771492  SOLV      2132            0.0000000000
      6516      2143  TIP3      H2            -15.3229049752        0.7029706768      -12.9876771492  SOLV      2132            0.0000000000
      6517      2144  TIP3      OH2           -13.3666649752      -14.2418593232      -15.7309871492  SOLV      2133            0.0000000000
      6518      2144  TIP3      H1            -12.8753249752      -14.8716193232      -16.2584371492  SOLV      2133            0.0000000000
      6519      2144  TIP3      H2            -12.7430349752      -13.9459193232      -15.0678671492  SOLV      2133            0.0000000000
      6520      2145  TIP3      OH2            -8.3406549752      -13.9487093232      -13.2739371492  SOLV      2134            0.0000000000
      6521      2145  TIP3      H1             -8.1625249752      -14.5953893232      -12.5910771492  SOLV      2134            0.0000000000
      6522      2145  TIP3      H2             -8.3940349752      -13.1149393232      -12.8068271492  SOLV      2134            0.0000000000
      6523      2146  TIP3      OH2            -6.4622749752        0.9997006768      -14.8782671492  SOLV      2135            0.0000000000
      6524      2146  TIP3      H1             -5.5962549752        1.3664406768      -15.0564471492  SOLV      2135            0.0000000000
      6525      2146  TIP3      H2             -6.7089949752        0.5605006768      -15.6921871492  SOLV      2135            0.0000000000
      6526      2147  TIP3      OH2             0.2466850248        0.5627306768      -12.1991571492  SOLV      2136            0.0000000000
      6527      2147  TIP3      H1              0.0523950248       -0.1850593232      -12.7641971492  SOLV      2136            0.0000000000
      6528      2147  TIP3      H2              0.2076950248        1.3207406768      -12.7823671492  SOLV      2136            0.0000000000
      6529      2148  TIP3      OH2           -14.1061149752      -15.4416293232       -0.4593871492  SOLV      2137            0.0000000000
      6530      2148  TIP3      H1            -14.4722949752      -16.2073693232       -0.0169171492  SOLV      2137            0.0000000000
      6531      2148  TIP3      H2            -13.1932649752      -15.4126093232       -0.1728771492  SOLV      2137            0.0000000000
      6532      2149  TIP3      OH2           -12.1330349752      -16.0911893232        1.0763228508  SOLV      2138            0.0000000000
      6533      2149  TIP3      H1            -11.2346749752      -16.3651693232        0.8916628508  SOLV      2138            0.0000000000
      6534      2149  TIP3      H2            -12.5197249752      -16.8335893232        1.5405828508  SOLV      2138            0.0000000000
      6535      2150  TIP3      OH2           -13.5085049752        0.7102906768      -16.2506771492  SOLV      2139            0.0000000000
      6536      2150  TIP3      H1            -13.7760449752        0.9965806768      -15.3773671492  SOLV      2139            0.0000000000
      6537      2150  TIP3      H2            -12.7372449752        0.1642106768      -16.0984271492  SOLV      2139            0.0000000000
      6538      2151  TIP3      OH2            -3.7118049752      -16.7586593232        1.2586028508  SOLV      2140            0.0000000000
      6539      2151  TIP3      H1             -3.6350849752      -17.1845893232        2.1123728508  SOLV      2140            0.0000000000
      6540      2151  TIP3      H2             -2.8181449752      -16.7451893232        0.9159528508  SOLV      2140            0.0000000000
      6541      2152  TIP3      OH2            13.8703450248       -6.7995893232      -10.0182571492  SOLV      2141            0.0000000000
      6542      2152  TIP3      H1             13.9594550248       -5.8557693232      -10.1505471492  SOLV      2141            0.0000000000
      6543      2152  TIP3      H2             13.2321050248       -7.0749493232      -10.6763171492  SOLV      2141            0.0000000000
      6544      2153  TIP3      OH2            12.8034750248       -7.5445193232       -6.5994371492  SOLV      2142            0.0000000000
      6545      2153  TIP3      H1             12.7652250248       -8.1908893232       -5.8944771492  SOLV      2142            0.0000000000
      6546      2153  TIP3      H2             12.4811250248       -8.0110793232       -7.3705671492  SOLV      2142            0.0000000000
      6547      2154  TIP3      OH2             5.1719750248       -7.9303093232       -5.0064471492  SOLV      2143            0.0000000000
      6548      2154  TIP3      H1              5.2131850248       -8.5559793232       -4.2832071492  SOLV      2143            0.0000000000
      6549      2154  TIP3      H2              5.8747450248       -7.3064493232       -4.8244071492  SOLV      2143            0.0000000000
      6550      2155  TIP3      OH2            16.5094950248       -4.6054793232       -8.2979271492  SOLV      2144            0.0000000000
      6551      2155  TIP3      H1             16.0687650248       -5.3258793232       -7.8473671492  SOLV      2144            0.0000000000
      6552      2155  TIP3      H2             16.4964650248       -3.8847593232       -7.6681571492  SOLV      2144            0.0000000000
      6553      2156  TIP3      OH2             6.0952850248       -3.4804193232       -6.4715371492  SOLV      2145            0.0000000000
      6554      2156  TIP3      H1              5.7258050248       -4.2823693232       -6.8411071492  SOLV      2145            0.0000000000
      6555      2156  TIP3      H2              7.0363950248       -3.6489293232       -6.4251971492  SOLV      2145            0.0000000000
      6556      2157  TIP3      OH2             2.7053350248       -9.8201593232      -11.0786571492  SOLV      2146            0.0000000000
      6557      2157  TIP3      H1              2.2576750248       -8.9742893232      -11.0970071492  SOLV      2146            0.0000000000
      6558      2157  TIP3      H2              2.1444550248      -10.3997393232      -11.5941471492  SOLV      2146            0.0000000000
      6559      2158  TIP3      OH2             3.4159450248       -7.6581993232       -8.9528571492  SOLV      2147            0.0000000000
      6560      2158  TIP3      H1              3.6292950248       -8.4280393232       -8.4255571492  SOLV      2147            0.0000000000
      6561      2158  TIP3      H2              4.1537050248       -7.5685293232       -9.5560971492  SOLV      2147            0.0000000000
      6562      2159  TIP3      OH2            13.6210450248        0.4986906768       -8.0858871492  SOLV      2148            0.0000000000
      6563      2159  TIP3      H1             14.2406850248       -0.1778393232       -8.3589671492  SOLV      2148            0.0000000000
      6564      2159  TIP3      H2             13.4127850248        0.2807706768       -7.1773971492  SOLV      2148            0.0000000000
      6565      2160  TIP3      OH2            11.1929150248       -5.1123793232       -6.1933371492  SOLV      2149            0.0000000000
      6566      2160  TIP3      H1             11.4967050248       -5.7982393232       -6.7879271492  SOLV      2149            0.0000000000
      6567      2160  TIP3      H2             11.9143150248       -4.9935093232       -5.5755371492  SOLV      2149            0.0000000000
      6568      2161  TIP3      OH2            19.8558950248      -13.5108493232       -5.3327171492  SOLV      2150            0.0000000000
      6569      2161  TIP3      H1             19.9051150248      -12.9007293232       -4.5968071492  SOLV      2150            0.0000000000
      6570      2161  TIP3      H2             20.2814050248      -13.0497593232       -6.0556071492  SOLV      2150            0.0000000000
      6571      2162  TIP3      OH2            14.3336150248      -10.7181393232       -5.8658571492  SOLV      2151            0.0000000000
      6572      2162  TIP3      H1             14.4762050248      -11.6644393232       -5.8456971492  SOLV      2151            0.0000000000
      6573      2162  TIP3      H2             14.2275150248      -10.5111593232       -6.7943671492  SOLV      2151            0.0000000000
      6574      2163  TIP3      OH2             7.4884450248      -12.6164993232       -8.5933771492  SOLV      2152            0.0000000000
      6575      2163  TIP3      H1              7.5315550248      -11.7566493232       -9.0117471492  SOLV      2152            0.0000000000
      6576      2163  TIP3      H2              7.0308550248      -13.1690293232       -9.2270571492  SOLV      2152            0.0000000000
      6577      2164  TIP3      OH2            15.2107150248      -12.4859393232      -10.1925471492  SOLV      2153            0.0000000000
      6578      2164  TIP3      H1             15.8571450248      -12.8146193232       -9.5677871492  SOLV      2153            0.0000000000
      6579      2164  TIP3      H2             15.7206550248      -11.9680393232      -10.8154071492  SOLV      2153            0.0000000000
      6580      2165  TIP3      OH2             4.1085950248      -10.2199193232       -7.8312371492  SOLV      2154            0.0000000000
      6581      2165  TIP3      H1              4.7622550248      -10.7697493232       -7.3992271492  SOLV      2154            0.0000000000
      6582      2165  TIP3      H2              4.1325250248      -10.4940193232       -8.7480371492  SOLV      2154            0.0000000000
      6583      2166  TIP3      OH2             9.2650450248       -8.6697893232       -8.6160871492  SOLV      2155            0.0000000000
      6584      2166  TIP3      H1              9.8811450248       -9.1962493232       -8.1066871492  SOLV      2155            0.0000000000
      6585      2166  TIP3      H2              8.6789250248       -9.3099193232       -9.0197271492  SOLV      2155            0.0000000000
      6586      2167  TIP3      OH2            20.2473550248      -12.0329293232       -3.0967371492  SOLV      2156            0.0000000000
      6587      2167  TIP3      H1             19.5588150248      -11.3748593232       -3.1920771492  SOLV      2156            0.0000000000
      6588      2167  TIP3      H2             20.2628150248      -12.2301393232       -2.1601971492  SOLV      2156            0.0000000000
      6589      2168  TIP3      OH2             6.2986350248      -13.6986593232       -4.5192971492  SOLV      2157            0.0000000000
      6590      2168  TIP3      H1              6.0798050248      -13.1685993232       -5.2856971492  SOLV      2157            0.0000000000
      6591      2168  TIP3      H2              5.6307250248      -13.4721093232       -3.8721571492  SOLV      2157            0.0000000000
      6592      2169  TIP3      OH2            13.6676150248       -4.1985493232      -10.9753871492  SOLV      2158            0.0000000000
      6593      2169  TIP3      H1             13.3721250248       -4.5213193232      -11.8266971492  SOLV      2158            0.0000000000
      6594      2169  TIP3      H2             13.3433950248       -3.2988793232      -10.9341271492  SOLV      2158            0.0000000000
      6595      2170  TIP3      OH2             8.8677750248       -6.0230893232       -4.2319271492  SOLV      2159            0.0000000000
      6596      2170  TIP3      H1              8.1276850248       -5.4249393232       -4.1284071492  SOLV      2159            0.0000000000
      6597      2170  TIP3      H2              9.5817250248       -5.4691293232       -4.5475671492  SOLV      2159            0.0000000000
      6598      2171  TIP3      OH2            16.9745550248      -13.1950093232       -8.2119571492  SOLV      2160            0.0000000000
      6599      2171  TIP3      H1             16.7593550248      -13.9606693232       -7.6793571492  SOLV      2160            0.0000000000
      6600      2171  TIP3      H2             17.6302950248      -12.7225493232       -7.6991071492  SOLV      2160            0.0000000000
      6601      2172  TIP3      OH2             5.8923650248      -11.8064793232       -6.5670771492  SOLV      2161            0.0000000000
      6602      2172  TIP3      H1              6.5059950248      -11.1737193232       -6.1938371492  SOLV      2161            0.0000000000
      6603      2172  TIP3      H2              6.4044350248      -12.2789793232       -7.2233871492  SOLV      2161            0.0000000000
      6604      2173  TIP3      OH2             3.3962950248       -4.3879993232      -12.6628471492  SOLV      2162            0.0000000000
      6605      2173  TIP3      H1              3.1243850248       -4.1588993232      -13.5515571492  SOLV      2162            0.0000000000
      6606      2173  TIP3      H2              3.4418650248       -3.5501193232      -12.2023171492  SOLV      2162            0.0000000000
      6607      2174  TIP3      OH2            17.0212650248       -2.7664093232       -5.9499971492  SOLV      2163            0.0000000000
      6608      2174  TIP3      H1             16.0796350248       -2.7080193232       -5.7883071492  SOLV      2163            0.0000000000
      6609      2174  TIP3      H2             17.2978750248       -1.8603593232       -6.0870271492  SOLV      2163            0.0000000000
      6610      2175  TIP3      OH2            17.3219650248      -14.4798793232       -4.5326071492  SOLV      2164            0.0000000000
      6611      2175  TIP3      H1             16.5858850248      -13.8691693232       -4.5704771492  SOLV      2164            0.0000000000
      6612      2175  TIP3      H2             18.0053650248      -14.0649793232       -5.0589671492  SOLV      2164            0.0000000000
      6613      2176  TIP3      OH2            10.3251050248      -16.3931493232       -7.0668071492  SOLV      2165            0.0000000000
      6614      2176  TIP3      H1             10.2075250248      -17.3415493232       -7.1209771492  SOLV      2165            0.0000000000
      6615      2176  TIP3      H2              9.4701150248      -16.0605393232       -6.7936971492  SOLV      2165            0.0000000000
      6616      2177  TIP3      OH2            15.2733850248       -0.9850593232       -9.3248371492  SOLV      2166            0.0000000000
      6617      2177  TIP3      H1             15.6986150248       -1.6922693232       -9.8098771492  SOLV      2166            0.0000000000
      6618      2177  TIP3      H2             15.5903850248       -0.1837893232       -9.7416171492  SOLV      2166            0.0000000000
      6619      2178  TIP3      OH2            16.4330350248       -3.0842093232      -10.8161771492  SOLV      2167            0.0000000000
      6620      2178  TIP3      H1             16.1755150248       -3.7741993232      -11.4275871492  SOLV      2167            0.0000000000
      6621      2178  TIP3      H2             16.5041150248       -3.5270893232       -9.9705871492  SOLV      2167            0.0000000000
      6622      2179  TIP3      OH2            18.1190550248       -4.5175393232       -2.3388271492  SOLV      2168            0.0000000000
      6623      2179  TIP3      H1             18.2586850248       -5.1092893232       -3.0781271492  SOLV      2168            0.0000000000
      6624      2179  TIP3      H2             18.2863350248       -3.6449493232       -2.6949471492  SOLV      2168            0.0000000000
      6625      2180  TIP3      OH2            12.5915950248       -7.5555893232      -12.5662271492  SOLV      2169            0.0000000000
      6626      2180  TIP3      H1             11.8801450248       -7.0206193232      -12.9181771492  SOLV      2169            0.0000000000
      6627      2180  TIP3      H2             13.2825550248       -7.5003793232      -13.2263371492  SOLV      2169            0.0000000000
      6628      2181  TIP3      OH2            12.6455150248       -9.0981593232      -15.5277271492  SOLV      2170            0.0000000000
      6629      2181  TIP3      H1             13.3465050248       -9.0754693232      -14.8763271492  SOLV      2170            0.0000000000
      6630      2181  TIP3      H2             12.9478050248       -9.7261893232      -16.1837971492  SOLV      2170            0.0000000000
      6631      2182  TIP3      OH2            19.9609850248       -8.1777393232       -4.2727871492  SOLV      2171            0.0000000000
      6632      2182  TIP3      H1             19.3083950248       -7.4831793232       -4.1836971492  SOLV      2171            0.0000000000
      6633      2182  TIP3      H2             20.4260150248       -7.9676493232       -5.0826271492  SOLV      2171            0.0000000000
      6634      2183  TIP3      OH2            15.9973650248       -7.3462593232      -11.6146371492  SOLV      2172            0.0000000000
      6635      2183  TIP3      H1             15.2654650248       -7.1178893232      -11.0415771492  SOLV      2172            0.0000000000
      6636      2183  TIP3      H2             16.4445850248       -8.0599893232      -11.1598871492  SOLV      2172            0.0000000000
      6637      2184  TIP3      OH2            15.8947150248       -9.1719993232       -2.5469371492  SOLV      2173            0.0000000000
      6638      2184  TIP3      H1             15.9746250248       -8.4085593232       -1.9750871492  SOLV      2173            0.0000000000
      6639      2184  TIP3      H2             15.2934850248       -8.8927593232       -3.2374271492  SOLV      2173            0.0000000000
      6640      2185  TIP3      OH2             7.6427350248       -6.7156393232       -9.7321371492  SOLV      2174            0.0000000000
      6641      2185  TIP3      H1              7.3122550248       -7.0862993232      -10.5504371492  SOLV      2174            0.0000000000
      6642      2185  TIP3      H2              8.2311450248       -7.3862393232       -9.3853071492  SOLV      2174            0.0000000000
      6643      2186  TIP3      OH2             9.0094850248       -3.2875793232       -7.0509171492  SOLV      2175            0.0000000000
      6644      2186  TIP3      H1              8.9146150248       -3.8662693232       -7.8074571492  SOLV      2175            0.0000000000
      6645      2186  TIP3      H2              9.7388450248       -3.6590093232       -6.5546371492  SOLV      2175            0.0000000000
      6646      2187  TIP3      OH2             8.0092850248       -7.9470793232       -6.0986371492  SOLV      2176            0.0000000000
      6647      2187  TIP3      H1              8.5745350248       -7.8256593232       -6.8615171492  SOLV      2176            0.0000000000
      6648      2187  TIP3      H2              8.3281750248       -7.3095793232       -5.4597871492  SOLV      2176            0.0000000000
      6649      2188  TIP3      OH2            14.3185050248       -2.4438893232       -5.3645871492  SOLV      2177            0.0000000000
      6650      2188  TIP3      H1             14.0781650248       -1.7815793232       -4.7166671492  SOLV      2177            0.0000000000
      6651      2188  TIP3      H2             14.1203250248       -3.2783693232       -4.9396271492  SOLV      2177            0.0000000000
      6652      2189  TIP3      OH2            14.8683150248       -8.1839693232      -13.9295171492  SOLV      2178            0.0000000000
      6653      2189  TIP3      H1             15.4478650248       -8.0339393232      -13.1826271492  SOLV      2178            0.0000000000
      6654      2189  TIP3      H2             15.2823150248       -7.7132293232      -14.6528771492  SOLV      2178            0.0000000000
      6655      2190  TIP3      OH2            12.5948050248       -1.4471193232      -10.4942071492  SOLV      2179            0.0000000000
      6656      2190  TIP3      H1             13.0685650248       -1.1514893232       -9.7167871492  SOLV      2179            0.0000000000
      6657      2190  TIP3      H2             12.0317350248       -0.7089593232      -10.7272471492  SOLV      2179            0.0000000000
      6658      2191  TIP3      OH2            18.5671550248      -16.4339293232      -14.1165471492  SOLV      2180            0.0000000000
      6659      2191  TIP3      H1             17.6672250248      -16.2950293232      -13.8214871492  SOLV      2180            0.0000000000
      6660      2191  TIP3      H2             18.8189950248      -15.6024693232      -14.5183771492  SOLV      2180            0.0000000000
      6661      2192  TIP3      OH2             6.6330050248       -7.6462093232      -12.1428571492  SOLV      2181            0.0000000000
      6662      2192  TIP3      H1              6.3411350248       -6.8780393232      -12.6337271492  SOLV      2181            0.0000000000
      6663      2192  TIP3      H2              5.9585250248       -8.3055893232      -12.3057171492  SOLV      2181            0.0000000000
      6664      2193  TIP3      OH2            19.7562950248       -2.0676893232      -15.7401571492  SOLV      2182            0.0000000000
      6665      2193  TIP3      H1             19.8296450248       -1.1286693232      -15.5696271492  SOLV      2182            0.0000000000
      6666      2193  TIP3      H2             20.6618050248       -2.3728293232      -15.7964271492  SOLV      2182            0.0000000000
      6667      2194  TIP3      OH2             2.7260150248       -5.2832893232       -3.3278771492  SOLV      2183            0.0000000000
      6668      2194  TIP3      H1              2.2248550248       -5.3113493232       -4.1429071492  SOLV      2183            0.0000000000
      6669      2194  TIP3      H2              2.7313850248       -6.1889693232       -3.0181471492  SOLV      2183            0.0000000000
      6670      2195  TIP3      OH2             2.4762850248       -2.5029093232       -6.4438571492  SOLV      2184            0.0000000000
      6671      2195  TIP3      H1              3.4223450248       -2.6472093232       -6.4629071492  SOLV      2184            0.0000000000
      6672      2195  TIP3      H2              2.3639150248       -1.7186293232       -5.9067371492  SOLV      2184            0.0000000000
      6673      2196  TIP3      OH2            20.6741350248       -1.8369393232       -0.7614871492  SOLV      2185            0.0000000000
      6674      2196  TIP3      H1             20.6248150248       -2.7921293232       -0.7987271492  SOLV      2185            0.0000000000
      6675      2196  TIP3      H2             19.8473650248       -1.5694093232       -0.3601071492  SOLV      2185            0.0000000000
      6676      2197  TIP3      OH2            12.0671150248        1.5093506768      -12.0792871492  SOLV      2186            0.0000000000
      6677      2197  TIP3      H1             11.9917150248        1.3880706768      -13.0257671492  SOLV      2186            0.0000000000
      6678      2197  TIP3      H2             12.0999850248        2.4586206768      -11.9608271492  SOLV      2186            0.0000000000
      6679      2198  TIP3      OH2             5.7204950248        0.2980506768      -10.2983871492  SOLV      2187            0.0000000000
      6680      2198  TIP3      H1              5.8725350248       -0.0499093232       -9.4197371492  SOLV      2187            0.0000000000
      6681      2198  TIP3      H2              4.8695350248       -0.0582193232      -10.5536671492  SOLV      2187            0.0000000000
      6682      2199  TIP3      OH2            15.1687150248        0.6633706768      -15.0770471492  SOLV      2188            0.0000000000
      6683      2199  TIP3      H1             15.5435550248       -0.0810193232      -15.5477871492  SOLV      2188            0.0000000000
      6684      2199  TIP3      H2             15.1730850248        0.3934306768      -14.1587171492  SOLV      2188            0.0000000000
      6685      2200  TIP3      OH2            14.8375250248        0.5890806768      -12.3278271492  SOLV      2189            0.0000000000
      6686      2200  TIP3      H1             13.9025050248        0.6892706768      -12.1491271492  SOLV      2189            0.0000000000
      6687      2200  TIP3      H2             15.1177150248       -0.1203193232      -11.7495071492  SOLV      2189            0.0000000000
      6688      2201  TIP3      OH2            17.8261150248      -10.3436893232       -0.2812671492  SOLV      2190            0.0000000000
      6689      2201  TIP3      H1             17.4187950248       -9.8631293232       -1.0019371492  SOLV      2190            0.0000000000
      6690      2201  TIP3      H2             17.8666850248      -11.2490893232       -0.5891871492  SOLV      2190            0.0000000000
      6691      2202  TIP3      OH2             7.5938650248      -15.4896993232       -6.2891771492  SOLV      2191            0.0000000000
      6692      2202  TIP3      H1              6.7322350248      -15.5768793232       -6.6968871492  SOLV      2191            0.0000000000
      6693      2202  TIP3      H2              7.5714350248      -14.6336893232       -5.8614171492  SOLV      2191            0.0000000000
      6694      2203  TIP3      OH2            12.2566450248      -15.7676593232       -2.9144771492  SOLV      2192            0.0000000000
      6695      2203  TIP3      H1             12.6769550248      -16.1829493232       -2.1614171492  SOLV      2192            0.0000000000
      6696      2203  TIP3      H2             11.3236050248      -15.9463293232       -2.7972771492  SOLV      2192            0.0000000000
      6697      2204  TIP3      OH2            15.5831350248      -12.0121393232       -2.0610271492  SOLV      2193            0.0000000000
      6698      2204  TIP3      H1             15.0690850248      -12.1379193232       -1.2634271492  SOLV      2193            0.0000000000
      6699      2204  TIP3      H2             15.4276050248      -11.0998293232       -2.3054071492  SOLV      2193            0.0000000000
      6700      2205  TIP3      OH2            16.3456250248       -7.1511393232      -16.2997271492  SOLV      2194            0.0000000000
      6701      2205  TIP3      H1             16.3877050248       -7.3737493232      -17.2297271492  SOLV      2194            0.0000000000
      6702      2205  TIP3      H2             17.1948350248       -6.7524293232      -16.1097371492  SOLV      2194            0.0000000000
      6703      2206  TIP3      OH2            11.9183750248      -13.2753193232      -15.6293971492  SOLV      2195            0.0000000000
      6704      2206  TIP3      H1             11.6648550248      -13.2561593232      -14.7065871492  SOLV      2195            0.0000000000
      6705      2206  TIP3      H2             11.6615850248      -14.1467793232      -15.9307771492  SOLV      2195            0.0000000000
      6706      2207  TIP3      OH2             7.6848750248      -10.5242493232       -5.1941571492  SOLV      2196            0.0000000000
      6707      2207  TIP3      H1              7.0430850248      -10.5645193232       -4.4851471492  SOLV      2196            0.0000000000
      6708      2207  TIP3      H2              7.7220750248       -9.5977793232       -5.4318571492  SOLV      2196            0.0000000000
      6709      2208  TIP3      OH2             7.6817850248      -10.3032393232      -10.2821571492  SOLV      2197            0.0000000000
      6710      2208  TIP3      H1              6.7890750248      -10.6436293232      -10.3407771492  SOLV      2197            0.0000000000
      6711      2208  TIP3      H2              8.1324450248      -10.6801493232      -11.0378371492  SOLV      2197            0.0000000000
      6712      2209  TIP3      OH2            13.2173350248       -9.8872093232      -11.4650771492  SOLV      2198            0.0000000000
      6713      2209  TIP3      H1             12.8083650248       -9.0723493232      -11.7565971492  SOLV      2198            0.0000000000
      6714      2209  TIP3      H2             13.9379550248      -10.0271993232      -12.0793671492  SOLV      2198            0.0000000000
      6715      2210  TIP3      OH2            12.3194950248       -9.7115693232        0.0229928508  SOLV      2199            0.0000000000
      6716      2210  TIP3      H1             11.7568750248      -10.4164093232        0.3437728508  SOLV      2199            0.0000000000
      6717      2210  TIP3      H2             13.1458350248       -9.8323793232        0.4907528508  SOLV      2199            0.0000000000
      6718      2211  TIP3      OH2            14.2221050248      -10.4411693232       -8.6511071492  SOLV      2200            0.0000000000
      6719      2211  TIP3      H1             14.0265550248       -9.8354893232       -9.3660471492  SOLV      2200            0.0000000000
      6720      2211  TIP3      H2             14.4033650248      -11.2746493232       -9.0854771492  SOLV      2200            0.0000000000
      6721      2212  TIP3      OH2             5.4349250248      -10.2038993232       -3.3269571492  SOLV      2201            0.0000000000
      6722      2212  TIP3      H1              5.3968650248       -9.8037393232       -2.4582471492  SOLV      2201            0.0000000000
      6723      2212  TIP3      H2              4.9440350248      -11.0206593232       -3.2366671492  SOLV      2201            0.0000000000
      6724      2213  TIP3      OH2             8.8006650248      -12.8296693232      -16.5283571492  SOLV      2202            0.0000000000
      6725      2213  TIP3      H1              8.3697350248      -13.2746593232      -15.7986171492  SOLV      2202            0.0000000000
      6726      2213  TIP3      H2              8.0825350248      -12.4580393232      -17.0406071492  SOLV      2202            0.0000000000
      6727      2214  TIP3      OH2             2.0430050248      -13.0877193232       -9.4764871492  SOLV      2203            0.0000000000
      6728      2214  TIP3      H1              2.6737750248      -13.1165093232       -8.7570971492  SOLV      2203            0.0000000000
      6729      2214  TIP3      H2              2.4924350248      -13.5128493232      -10.2068971492  SOLV      2203            0.0000000000
      6730      2215  TIP3      OH2             3.3172150248      -12.3415193232      -14.0524471492  SOLV      2204            0.0000000000
      6731      2215  TIP3      H1              3.7913850248      -11.7505293232      -14.6373571492  SOLV      2204            0.0000000000
      6732      2215  TIP3      H2              2.5998550248      -11.8112293232      -13.7054371492  SOLV      2204            0.0000000000
      6733      2216  TIP3      OH2            13.4860250248       -8.8030393232       -3.9798671492  SOLV      2205            0.0000000000
      6734      2216  TIP3      H1             13.8095050248       -9.4340693232       -4.6228171492  SOLV      2205            0.0000000000
      6735      2216  TIP3      H2             13.0459550248       -9.3378193232       -3.3191271492  SOLV      2205            0.0000000000
      6736      2217  TIP3      OH2            10.2633150248      -12.8754893232       -9.1957471492  SOLV      2206            0.0000000000
      6737      2217  TIP3      H1              9.3524250248      -12.8188093232       -8.9071471492  SOLV      2206            0.0000000000
      6738      2217  TIP3      H2             10.7686050248      -12.9359393232       -8.3850271492  SOLV      2206            0.0000000000
      6739      2218  TIP3      OH2             5.0916550248      -11.2468593232      -10.3689871492  SOLV      2207            0.0000000000
      6740      2218  TIP3      H1              4.2024550248      -11.1473093232      -10.7090271492  SOLV      2207            0.0000000000
      6741      2218  TIP3      H2              5.3881450248      -12.0885593232      -10.7151971492  SOLV      2207            0.0000000000
      6742      2219  TIP3      OH2             8.7448350248      -11.2465993232      -12.7125271492  SOLV      2208            0.0000000000
      6743      2219  TIP3      H1              9.6763850248      -11.1175993232      -12.5342171492  SOLV      2208            0.0000000000
      6744      2219  TIP3      H2              8.5298650248      -10.5771693232      -13.3620571492  SOLV      2208            0.0000000000
      6745      2220  TIP3      OH2            14.6685050248      -13.6408593232       -5.9315671492  SOLV      2209            0.0000000000
      6746      2220  TIP3      H1             13.9916650248      -13.5095493232       -5.2675971492  SOLV      2209            0.0000000000
      6747      2220  TIP3      H2             14.1829950248      -13.7959093232       -6.7417971492  SOLV      2209            0.0000000000
      6748      2221  TIP3      OH2             7.4188550248      -10.0523793232      -15.1459171492  SOLV      2210            0.0000000000
      6749      2221  TIP3      H1              6.8763650248      -10.4319993232      -15.8371571492  SOLV      2210            0.0000000000
      6750      2221  TIP3      H2              8.2523450248       -9.8579093232      -15.5745071492  SOLV      2210            0.0000000000
      6751      2222  TIP3      OH2            17.9560150248        2.0306806768        0.3451928508  SOLV      2211            0.0000000000
      6752      2222  TIP3      H1             18.1558850248        2.4548706768       -0.4892771492  SOLV      2211            0.0000000000
      6753      2222  TIP3      H2             18.6113850248        2.3745006768        0.9522328508  SOLV      2211            0.0000000000
      6754      2223  TIP3      OH2            11.5832850248      -10.0881893232       -7.3087871492  SOLV      2212            0.0000000000
      6755      2223  TIP3      H1             12.1476250248      -10.6345293232       -7.8558271492  SOLV      2212            0.0000000000
      6756      2223  TIP3      H2             11.4356250248      -10.6099993232       -6.5200271492  SOLV      2212            0.0000000000
      6757      2224  TIP3      OH2             6.5852550248      -13.9515793232      -10.8903071492  SOLV      2213            0.0000000000
      6758      2224  TIP3      H1              6.2682050248      -14.8540493232      -10.9257671492  SOLV      2213            0.0000000000
      6759      2224  TIP3      H2              7.3666650248      -13.9498393232      -11.4431471492  SOLV      2213            0.0000000000
      6760      2225  TIP3      OH2            10.2098750248      -11.6995793232       -4.8947471492  SOLV      2214            0.0000000000
      6761      2225  TIP3      H1              9.3744050248      -11.2456293232       -4.7845071492  SOLV      2214            0.0000000000
      6762      2225  TIP3      H2             10.7339350248      -11.4237293232       -4.1427571492  SOLV      2214            0.0000000000
      6763      2226  TIP3      OH2            10.7541350248       -5.4868093232      -13.2101071492  SOLV      2215            0.0000000000
      6764      2226  TIP3      H1             10.0092350248       -5.9942793232      -13.5323171492  SOLV      2215            0.0000000000
      6765      2226  TIP3      H2             10.6198550248       -5.4380093232      -12.2636271492  SOLV      2215            0.0000000000
      6766      2227  TIP3      OH2            17.9040250248       -6.3539893232       -4.4233471492  SOLV      2216            0.0000000000
      6767      2227  TIP3      H1             18.5459050248       -5.8973593232       -4.9671271492  SOLV      2216            0.0000000000
      6768      2227  TIP3      H2             17.0737150248       -6.2407493232       -4.8859371492  SOLV      2216            0.0000000000
      6769      2228  TIP3      OH2            14.6518150248      -12.6728193232      -15.0108471492  SOLV      2217            0.0000000000
      6770      2228  TIP3      H1             13.7132350248      -12.5612593232      -15.1619671492  SOLV      2217            0.0000000000
      6771      2228  TIP3      H2             14.9490250248      -11.8161293232      -14.7042771492  SOLV      2217            0.0000000000
      6772      2229  TIP3      OH2            12.2733450248       -5.3024793232       -1.9731971492  SOLV      2218            0.0000000000
      6773      2229  TIP3      H1             11.9279550248       -5.6842393232       -1.1662371492  SOLV      2218            0.0000000000
      6774      2229  TIP3      H2             12.0733550248       -4.3691193232       -1.9019071492  SOLV      2218            0.0000000000
      6775      2230  TIP3      OH2            15.3701650248      -10.8055493232      -13.3501071492  SOLV      2219            0.0000000000
      6776      2230  TIP3      H1             16.2620650248      -10.9430493232      -13.0309871492  SOLV      2219            0.0000000000
      6777      2230  TIP3      H2             15.4265250248      -10.0149393232      -13.8867571492  SOLV      2219            0.0000000000
      6778      2231  TIP3      OH2             5.8789650248       -6.1918093232       -7.4403171492  SOLV      2220            0.0000000000
      6779      2231  TIP3      H1              6.6236850248       -6.1942393232       -8.0416671492  SOLV      2220            0.0000000000
      6780      2231  TIP3      H2              5.9566250248       -7.0154293232       -6.9588071492  SOLV      2220            0.0000000000
      6781      2232  TIP3      OH2            12.8795450248       -4.0283793232      -14.1846471492  SOLV      2221            0.0000000000
      6782      2232  TIP3      H1             12.5843850248       -3.2015893232      -13.8031671492  SOLV      2221            0.0000000000
      6783      2232  TIP3      H2             12.1765450248       -4.6476893232      -13.9885071492  SOLV      2221            0.0000000000
      6784      2233  TIP3      OH2             2.8869350248       -7.7311193232       -2.1254671492  SOLV      2222            0.0000000000
      6785      2233  TIP3      H1              3.1097950248       -8.1491593232       -1.2937171492  SOLV      2222            0.0000000000
      6786      2233  TIP3      H2              2.2849450248       -8.3436193232       -2.5481871492  SOLV      2222            0.0000000000
      6787      2234  TIP3      OH2             9.9034250248       -8.2141293232        0.0875028508  SOLV      2223            0.0000000000
      6788      2234  TIP3      H1              9.6075050248       -8.3798293232       -0.8075871492  SOLV      2223            0.0000000000
      6789      2234  TIP3      H2             10.8349450248       -8.4340993232        0.0768928508  SOLV      2223            0.0000000000
      6790      2235  TIP3      OH2            14.5237050248       -2.8409293232       -2.0226971492  SOLV      2224            0.0000000000
      6791      2235  TIP3      H1             13.6231350248       -2.6576693232       -2.2903071492  SOLV      2224            0.0000000000
      6792      2235  TIP3      H2             14.5578150248       -2.5819993232       -1.1018171492  SOLV      2224            0.0000000000
      6793      2236  TIP3      OH2            20.2550350248      -10.5961393232      -13.6554371492  SOLV      2225            0.0000000000
      6794      2236  TIP3      H1             19.7006650248      -10.9923393232      -14.3276871492  SOLV      2225            0.0000000000
      6795      2236  TIP3      H2             20.3553950248       -9.6856193232      -13.9331071492  SOLV      2225            0.0000000000
      6796      2237  TIP3      OH2            20.2182350248       -4.7959693232       -0.8182871492  SOLV      2226            0.0000000000
      6797      2237  TIP3      H1             19.3670850248       -4.5575893232       -1.1856471492  SOLV      2226            0.0000000000
      6798      2237  TIP3      H2             20.8085750248       -4.8126493232       -1.5715771492  SOLV      2226            0.0000000000
      6799      2238  TIP3      OH2            18.5502050248       -1.8100993232      -13.1902271492  SOLV      2227            0.0000000000
      6800      2238  TIP3      H1             18.1773150248       -2.6357193232      -12.8811671492  SOLV      2227            0.0000000000
      6801      2238  TIP3      H2             18.8275550248       -1.9931593232      -14.0878871492  SOLV      2227            0.0000000000
      6802      2239  TIP3      OH2            15.7105950248       -7.0021493232       -6.1690371492  SOLV      2228            0.0000000000
      6803      2239  TIP3      H1             14.7822850248       -7.2339593232       -6.1961071492  SOLV      2228            0.0000000000
      6804      2239  TIP3      H2             16.1617050248       -7.7791693232       -6.4991571492  SOLV      2228            0.0000000000
      6805      2240  TIP3      OH2             8.2539050248       -2.6739893232      -10.0361671492  SOLV      2229            0.0000000000
      6806      2240  TIP3      H1              8.7811250248       -1.9005493232      -10.2362871492  SOLV      2229            0.0000000000
      6807      2240  TIP3      H2              7.3737550248       -2.4490693232      -10.3377671492  SOLV      2229            0.0000000000
      6808      2241  TIP3      OH2             4.0086750248       -7.8115793232      -15.4489271492  SOLV      2230            0.0000000000
      6809      2241  TIP3      H1              4.6246650248       -7.1848593232      -15.0694471492  SOLV      2230            0.0000000000
      6810      2241  TIP3      H2              3.1469350248       -7.4955993232      -15.1772771492  SOLV      2230            0.0000000000
      6811      2242  TIP3      OH2             9.6811350248       -5.0109993232      -10.4597371492  SOLV      2231            0.0000000000
      6812      2242  TIP3      H1              9.4401350248       -4.0855593232      -10.4182071492  SOLV      2231            0.0000000000
      6813      2242  TIP3      H2              8.9404950248       -5.4698693232      -10.0633471492  SOLV      2231            0.0000000000
      6814      2243  TIP3      OH2            10.1957950248       -0.8616393232       -4.1446271492  SOLV      2232            0.0000000000
      6815      2243  TIP3      H1             10.5582650248       -0.0070793232       -4.3781871492  SOLV      2232            0.0000000000
      6816      2243  TIP3      H2             10.7273150248       -1.1534793232       -3.4039971492  SOLV      2232            0.0000000000
      6817      2244  TIP3      OH2             8.3642150248        0.0107606768      -10.9145171492  SOLV      2233            0.0000000000
      6818      2244  TIP3      H1              7.4142650248        0.1165006768      -10.8631871492  SOLV      2233            0.0000000000
      6819      2244  TIP3      H2              8.7160250248        0.8315006768      -10.5697671492  SOLV      2233            0.0000000000
      6820      2245  TIP3      OH2            13.7398750248       -4.7625693232       -4.4440671492  SOLV      2234            0.0000000000
      6821      2245  TIP3      H1             13.3140050248       -4.9903993232       -3.6176671492  SOLV      2234            0.0000000000
      6822      2245  TIP3      H2             14.3204550248       -5.5013893232       -4.6265371492  SOLV      2234            0.0000000000
      6823      2246  TIP3      OH2            15.9427650248       -3.8335193232      -15.3701671492  SOLV      2235            0.0000000000
      6824      2246  TIP3      H1             16.2960750248       -4.2135393232      -14.5658171492  SOLV      2235            0.0000000000
      6825      2246  TIP3      H2             14.9941150248       -3.9270393232      -15.2832371492  SOLV      2235            0.0000000000
      6826      2247  TIP3      OH2            16.3982950248       -0.2106193232       -1.9745871492  SOLV      2236            0.0000000000
      6827      2247  TIP3      H1             15.7966150248       -0.7663293232       -2.4699571492  SOLV      2236            0.0000000000
      6828      2247  TIP3      H2             16.6796650248        0.4563606768       -2.6008471492  SOLV      2236            0.0000000000
      6829      2248  TIP3      OH2            20.4462050248        0.6457306768      -15.1691471492  SOLV      2237            0.0000000000
      6830      2248  TIP3      H1             21.1899950248        1.2317806768      -15.3089871492  SOLV      2237            0.0000000000
      6831      2248  TIP3      H2             19.7520150248        1.2143106768      -14.8359071492  SOLV      2237            0.0000000000
      6832      2249  TIP3      OH2             4.5208850248      -12.9778493232       -2.5673271492  SOLV      2238            0.0000000000
      6833      2249  TIP3      H1              3.6281150248      -12.6393093232       -2.6349271492  SOLV      2238            0.0000000000
      6834      2249  TIP3      H2              4.4221650248      -13.8332393232       -2.1492471492  SOLV      2238            0.0000000000
      6835      2250  TIP3      OH2            16.8086950248       -5.1613193232      -13.1433771492  SOLV      2239            0.0000000000
      6836      2250  TIP3      H1             16.5314550248       -5.8893893232      -12.5872671492  SOLV      2239            0.0000000000
      6837      2250  TIP3      H2             17.7359950248       -5.0421193232      -12.9381171492  SOLV      2239            0.0000000000
      6838      2251  TIP3      OH2             4.1720850248       -1.1734093232       -4.1323871492  SOLV      2240            0.0000000000
      6839      2251  TIP3      H1              4.3891150248       -2.1051693232       -4.1634171492  SOLV      2240            0.0000000000
      6840      2251  TIP3      H2              4.4184350248       -0.8989093232       -3.2491071492  SOLV      2240            0.0000000000
      6841      2252  TIP3      OH2            10.0335450248       -2.7219093232      -16.9231671492  SOLV      2241            0.0000000000
      6842      2252  TIP3      H1             10.2725250248       -3.4700993232      -17.4702771492  SOLV      2241            0.0000000000
      6843      2252  TIP3      H2              9.7646750248       -3.1097393232      -16.0903871492  SOLV      2241            0.0000000000
      6844      2253  TIP3      OH2             8.9706050248       -3.1515293232      -14.4669071492  SOLV      2242            0.0000000000
      6845      2253  TIP3      H1              9.1174050248       -3.6715493232      -13.6768171492  SOLV      2242            0.0000000000
      6846      2253  TIP3      H2              8.9677750248       -2.2447693232      -14.1603171492  SOLV      2242            0.0000000000
      6847      2254  TIP3      OH2             5.4237150248       -5.8991993232      -13.9563671492  SOLV      2243            0.0000000000
      6848      2254  TIP3      H1              4.7376450248       -5.5469493232      -13.3893971492  SOLV      2243            0.0000000000
      6849      2254  TIP3      H2              5.9465050248       -5.1362393232      -14.2029371492  SOLV      2243            0.0000000000
      6850      2255  TIP3      OH2            13.2552250248      -13.2368193232       -3.6774671492  SOLV      2244            0.0000000000
      6851      2255  TIP3      H1             13.9540150248      -13.1629493232       -3.0274971492  SOLV      2244            0.0000000000
      6852      2255  TIP3      H2             12.8743650248      -14.1013193232       -3.5231771492  SOLV      2244            0.0000000000
      6853      2256  TIP3      OH2            14.0397150248      -13.5846493232      -12.5802371492  SOLV      2245            0.0000000000
      6854      2256  TIP3      H1             14.2595450248      -13.1131093232      -13.3836971492  SOLV      2245            0.0000000000
      6855      2256  TIP3      H2             14.5981150248      -13.1903893232      -11.9101771492  SOLV      2245            0.0000000000
      6856      2257  TIP3      OH2            11.7083250248       -1.4541693232      -13.7174871492  SOLV      2246            0.0000000000
      6857      2257  TIP3      H1             10.8919350248       -0.9571993232      -13.6650571492  SOLV      2246            0.0000000000
      6858      2257  TIP3      H2             12.2379550248       -0.9788193232      -14.3576071492  SOLV      2246            0.0000000000
      6859      2258  TIP3      OH2            11.2397050248      -11.8567693232      -11.7453971492  SOLV      2247            0.0000000000
      6860      2258  TIP3      H1             12.0519650248      -11.3524493232      -11.6992271492  SOLV      2247            0.0000000000
      6861      2258  TIP3      H2             10.9950050248      -12.0017993232      -10.8314371492  SOLV      2247            0.0000000000
      6862      2259  TIP3      OH2            11.7753450248      -10.8704993232       -2.5607371492  SOLV      2248            0.0000000000
      6863      2259  TIP3      H1             11.8943750248      -10.2969593232       -1.8036971492  SOLV      2248            0.0000000000
      6864      2259  TIP3      H2             12.4308050248      -11.5585593232       -2.4459571492  SOLV      2248            0.0000000000
      6865      2260  TIP3      OH2            12.1233750248      -14.7754693232      -10.8072871492  SOLV      2249            0.0000000000
      6866      2260  TIP3      H1             11.7767250248      -14.1584093232      -10.1628571492  SOLV      2249            0.0000000000
      6867      2260  TIP3      H2             12.7820650248      -14.2748993232      -11.2887371492  SOLV      2249            0.0000000000
      6868      2261  TIP3      OH2             9.0466350248       -0.4104493232      -13.7357971492  SOLV      2250            0.0000000000
      6869      2261  TIP3      H1              9.2075050248        0.3893006768      -14.2365371492  SOLV      2250            0.0000000000
      6870      2261  TIP3      H2              8.8494150248       -0.1038493232      -12.8507371492  SOLV      2250            0.0000000000
      6871      2262  TIP3      OH2             7.7810750248      -13.7125293232      -14.1200371492  SOLV      2251            0.0000000000
      6872      2262  TIP3      H1              7.6975550248      -12.8242193232      -13.7733971492  SOLV      2251            0.0000000000
      6873      2262  TIP3      H2              8.6711050248      -13.9778593232      -13.8883571492  SOLV      2251            0.0000000000
      6874      2263  TIP3      OH2            17.9799250248      -12.9634693232       -1.7257671492  SOLV      2252            0.0000000000
      6875      2263  TIP3      H1             17.0635050248      -12.7012993232       -1.8133971492  SOLV      2252            0.0000000000
      6876      2263  TIP3      H2             18.3154250248      -12.9665693232       -2.6222371492  SOLV      2252            0.0000000000
      6877      2264  TIP3      OH2            16.5820250248       -9.2133693232       -7.6300371492  SOLV      2253            0.0000000000
      6878      2264  TIP3      H1             15.7844650248       -9.6283493232       -7.9585371492  SOLV      2253            0.0000000000
      6879      2264  TIP3      H2             17.0271350248       -9.9039993232       -7.1389871492  SOLV      2253            0.0000000000
      6880      2265  TIP3      OH2             6.0396050248       -3.2853093232      -15.0595871492  SOLV      2254            0.0000000000
      6881      2265  TIP3      H1              6.6317550248       -2.5858293232      -14.7833471492  SOLV      2254            0.0000000000
      6882      2265  TIP3      H2              6.4989050248       -3.7183593232      -15.7791271492  SOLV      2254            0.0000000000
      6883      2266  TIP3      OH2             4.3555250248      -10.6210093232      -15.9436471492  SOLV      2255            0.0000000000
      6884      2266  TIP3      H1              4.3107850248       -9.6816993232      -15.7649471492  SOLV      2255            0.0000000000
      6885      2266  TIP3      H2              3.4678450248      -10.8565193232      -16.2134371492  SOLV      2255            0.0000000000
      6886      2267  TIP3      OH2            17.6684850248        0.0428806768       -6.0076871492  SOLV      2256            0.0000000000
      6887      2267  TIP3      H1             17.5129150248        0.7213206768       -6.6647571492  SOLV      2256            0.0000000000
      6888      2267  TIP3      H2             18.6011250248        0.1148106768       -5.8046271492  SOLV      2256            0.0000000000
      6889      2268  TIP3      OH2             5.1637250248      -15.8393493232       -7.2705471492  SOLV      2257            0.0000000000
      6890      2268  TIP3      H1              4.9347050248      -15.7800993232       -8.1980471492  SOLV      2257            0.0000000000
      6891      2268  TIP3      H2              4.7210650248      -16.6307993232       -6.9641371492  SOLV      2257            0.0000000000
      6892      2269  TIP3      OH2             4.0940550248       -1.8986393232      -11.1099671492  SOLV      2258            0.0000000000
      6893      2269  TIP3      H1              3.2619150248       -1.4263693232      -11.0828271492  SOLV      2258            0.0000000000
      6894      2269  TIP3      H2              4.6398850248       -1.3888793232      -11.7086571492  SOLV      2258            0.0000000000
      6895      2270  TIP3      OH2            12.0717250248       -0.8587693232      -16.7845671492  SOLV      2259            0.0000000000
      6896      2270  TIP3      H1             11.4278250248       -1.4899093232      -16.4631971492  SOLV      2259            0.0000000000
      6897      2270  TIP3      H2             12.8335550248       -1.3899693232      -17.0162171492  SOLV      2259            0.0000000000
      6898      2271  TIP3      OH2            14.5566350248       -1.9867193232        0.5694028508  SOLV      2260            0.0000000000
      6899      2271  TIP3      H1             14.2055850248       -2.8434193232        0.8124428508  SOLV      2260            0.0000000000
      6900      2271  TIP3      H2             15.2829550248       -1.8440493232        1.1763028508  SOLV      2260            0.0000000000
      6901      2272  TIP3      OH2            16.6760150248       -1.0417793232      -16.5507671492  SOLV      2261            0.0000000000
      6902      2272  TIP3      H1             16.9590550248       -1.8362593232      -16.0980771492  SOLV      2261            0.0000000000
      6903      2272  TIP3      H2             17.4158050248       -0.8086793232      -17.1116571492  SOLV      2261            0.0000000000
      6904      2273  TIP3      OH2             7.6307450248       -5.1322893232      -16.6932771492  SOLV      2262            0.0000000000
      6905      2273  TIP3      H1              7.6951550248       -5.9263293232      -16.1626371492  SOLV      2262            0.0000000000
      6906      2273  TIP3      H2              8.2836650248       -5.2510093232      -17.3830771492  SOLV      2262            0.0000000000
      6907      2274  TIP3      OH2             9.9449850248       -5.5060493232        0.6069028508  SOLV      2263            0.0000000000
      6908      2274  TIP3      H1              9.6163650248       -5.2352393232       -0.2503571492  SOLV      2263            0.0000000000
      6909      2274  TIP3      H2             10.0968050248       -6.4470693232        0.5194028508  SOLV      2263            0.0000000000
      6910      2275  TIP3      OH2            12.9830850248       -4.0851193232      -16.9574771492  SOLV      2264            0.0000000000
      6911      2275  TIP3      H1             12.7144950248       -3.9049093232      -16.0565871492  SOLV      2264            0.0000000000
      6912      2275  TIP3      H2             12.7766450248       -5.0104993232      -17.0888971492  SOLV      2264            0.0000000000
      6913      2276  TIP3      OH2            15.6795050248       -5.5903193232       -2.0098671492  SOLV      2265            0.0000000000
      6914      2276  TIP3      H1             16.4249850248       -5.0019493232       -2.1294671492  SOLV      2265            0.0000000000
      6915      2276  TIP3      H2             14.9221850248       -5.0083493232       -1.9465571492  SOLV      2265            0.0000000000
      6916      2277  TIP3      OH2             4.1220250248       -8.2755293232        0.5941928508  SOLV      2266            0.0000000000
      6917      2277  TIP3      H1              4.5301450248       -9.1328693232        0.4732528508  SOLV      2266            0.0000000000
      6918      2277  TIP3      H2              3.8617850248       -8.2613993232        1.5152228508  SOLV      2266            0.0000000000
      6919      2278  TIP3      OH2             8.7801250248       -7.1596693232      -14.3874771492  SOLV      2267            0.0000000000
      6920      2278  TIP3      H1              8.3203250248       -7.6438393232      -13.7016271492  SOLV      2267            0.0000000000
      6921      2278  TIP3      H2              9.0349950248       -7.8281293232      -15.0234271492  SOLV      2267            0.0000000000
      6922      2279  TIP3      OH2             8.0690550248       -9.2669593232       -2.0315171492  SOLV      2268            0.0000000000
      6923      2279  TIP3      H1              7.4506650248       -8.5922993232       -1.7510471492  SOLV      2268            0.0000000000
      6924      2279  TIP3      H2              8.4131750248       -8.9455693232       -2.8648971492  SOLV      2268            0.0000000000
      6925      2280  TIP3      OH2             9.8511650248       -8.9164893232      -16.1251571492  SOLV      2269            0.0000000000
      6926      2280  TIP3      H1              9.6706650248       -9.0713693232      -17.0523271492  SOLV      2269            0.0000000000
      6927      2280  TIP3      H2             10.8012150248       -8.8086193232      -16.0803671492  SOLV      2269            0.0000000000
      6928      2281  TIP3      OH2            13.0888750248       -6.7954293232        1.2459628508  SOLV      2270            0.0000000000
      6929      2281  TIP3      H1             14.0419950248       -6.7115193232        1.2185628508  SOLV      2270            0.0000000000
      6930      2281  TIP3      H2             12.9283350248       -7.5072493232        1.8654528508  SOLV      2270            0.0000000000
      6931      2282  TIP3      OH2            19.2409950248       -6.5620693232      -16.6793471492  SOLV      2271            0.0000000000
      6932      2282  TIP3      H1             18.9674750248       -6.9865193232      -17.4925171492  SOLV      2271            0.0000000000
      6933      2282  TIP3      H2             19.2804050248       -5.6306193232      -16.8963071492  SOLV      2271            0.0000000000
      6934      2283  TIP3      OH2             8.4084250248      -11.9118793232       -0.9492071492  SOLV      2272            0.0000000000
      6935      2283  TIP3      H1              8.5585150248      -12.6407493232       -1.5512371492  SOLV      2272            0.0000000000
      6936      2283  TIP3      H2              8.4106650248      -11.1347093232       -1.5079871492  SOLV      2272            0.0000000000
      6937      2284  TIP3      OH2             8.8209950248      -13.5422993232       -3.4564671492  SOLV      2273            0.0000000000
      6938      2284  TIP3      H1              9.3567450248      -13.0906293232       -4.1085371492  SOLV      2273            0.0000000000
      6939      2284  TIP3      H2              7.9689550248      -13.6503193232       -3.8790571492  SOLV      2273            0.0000000000
      6940      2285  TIP3      OH2            10.4028350248       -8.1026793232       -3.2169471492  SOLV      2274            0.0000000000
      6941      2285  TIP3      H1             11.1533150248       -8.2589293232       -3.7901671492  SOLV      2274            0.0000000000
      6942      2285  TIP3      H2             10.0636650248       -7.2510193232       -3.4923971492  SOLV      2274            0.0000000000
      6943      2286  TIP3      OH2            14.8184550248      -10.2874993232        1.8115828508  SOLV      2275            0.0000000000
      6944      2286  TIP3      H1             15.0105850248      -11.2185593232        1.7000328508  SOLV      2275            0.0000000000
      6945      2286  TIP3      H2             15.6760850248       -9.8625493232        1.8011228508  SOLV      2275            0.0000000000
      6946      2287  TIP3      OH2            16.1351750248       -7.4989793232       -0.1111471492  SOLV      2276            0.0000000000
      6947      2287  TIP3      H1             15.8536750248       -6.7895193232       -0.6887671492  SOLV      2276            0.0000000000
      6948      2287  TIP3      H2             17.0776050248       -7.5716793232       -0.2620271492  SOLV      2276            0.0000000000
      6949      2288  TIP3      OH2             6.8870550248      -10.7135293232        0.9623528508  SOLV      2277            0.0000000000
      6950      2288  TIP3      H1              6.1199550248      -11.2460493232        0.7521128508  SOLV      2277            0.0000000000
      6951      2288  TIP3      H2              7.5659550248      -11.0234893232        0.3629828508  SOLV      2277            0.0000000000
      6952      2289  TIP3      OH2             9.6265450248      -16.0857293232       -3.0251071492  SOLV      2278            0.0000000000
      6953      2289  TIP3      H1              9.5285050248      -15.1394093232       -3.1304871492  SOLV      2278            0.0000000000
      6954      2289  TIP3      H2              8.8841650248      -16.4583493232       -3.5007571492  SOLV      2278            0.0000000000
      6955      2290  TIP3      OH2            10.8905950248      -11.7641893232        0.5387328508  SOLV      2279            0.0000000000
      6956      2290  TIP3      H1             10.6551350248      -11.9835193232        1.4402228508  SOLV      2279            0.0000000000
      6957      2290  TIP3      H2             10.1072850248      -11.9710693232        0.0289828508  SOLV      2279            0.0000000000
      6958      2291  TIP3      OH2            13.6062550248      -12.6368393232       -0.3859171492  SOLV      2280            0.0000000000
      6959      2291  TIP3      H1             12.6587950248      -12.6048693232       -0.2535871492  SOLV      2280            0.0000000000
      6960      2291  TIP3      H2             13.9189250248      -13.2621293232        0.2679028508  SOLV      2280            0.0000000000
      6961      2292  TIP3      OH2            15.2404050248      -14.0027293232        1.6192728508  SOLV      2281            0.0000000000
      6962      2292  TIP3      H1             15.1435850248      -14.9549993232        1.6134628508  SOLV      2281            0.0000000000
      6963      2292  TIP3      H2             14.9187150248      -13.7340493232        2.4798228508  SOLV      2281            0.0000000000
      6964      2293  TIP3      OH2             5.0673350248      -12.7931493232        0.6668228508  SOLV      2282            0.0000000000
      6965      2293  TIP3      H1              5.2790750248      -13.4995393232        0.0565728508  SOLV      2282            0.0000000000
      6966      2293  TIP3      H2              4.9560850248      -13.2305493232        1.5109428508  SOLV      2282            0.0000000000
      6967      2294  TIP3      OH2             9.8483550248      -16.7919893232       -0.3538271492  SOLV      2283            0.0000000000
      6968      2294  TIP3      H1             10.5601950248      -17.4317693232       -0.3679171492  SOLV      2283            0.0000000000
      6969      2294  TIP3      H2              9.7473950248      -16.5251593232       -1.2675171492  SOLV      2283            0.0000000000
      6970      2295  TIP3      OH2            10.2021050248      -15.1091493232        1.6998028508  SOLV      2284            0.0000000000
      6971      2295  TIP3      H1             10.0703250248      -15.5847693232        0.8796528508  SOLV      2284            0.0000000000
      6972      2295  TIP3      H2              9.6028450248      -14.3647893232        1.6445128508  SOLV      2284            0.0000000000
      6973      2296  TIP3      OH2             9.7483350248        1.7738806768      -15.1237971492  SOLV      2285            0.0000000000
      6974      2296  TIP3      H1             10.6814050248        1.9317506768      -14.9799571492  SOLV      2285            0.0000000000
      6975      2296  TIP3      H2              9.4842150248        2.4491806768      -15.7486471492  SOLV      2285            0.0000000000
      6976      2297  TIP3      OH2             3.3168250248       -3.5897393232      -15.6409871492  SOLV      2286            0.0000000000
      6977      2297  TIP3      H1              4.2307450248       -3.5108493232      -15.3675971492  SOLV      2286            0.0000000000
      6978      2297  TIP3      H2              3.3241350248       -4.2767793232      -16.3074271492  SOLV      2286            0.0000000000
      6979      2298  TIP3      OH2             1.9658850248        1.8031106768      -10.5635971492  SOLV      2287            0.0000000000
      6980      2298  TIP3      H1              1.3185950248        1.3412806768      -11.0964771492  SOLV      2287            0.0000000000
      6981      2298  TIP3      H2              2.3203450248        1.1314406768       -9.9809771492  SOLV      2287            0.0000000000
      6982      2299  TIP3      OH2             2.8358050248       -0.1161893232       -8.7589771492  SOLV      2288            0.0000000000
      6983      2299  TIP3      H1              2.5014850248       -0.9964593232       -8.5869571492  SOLV      2288            0.0000000000
      6984      2299  TIP3      H2              3.0580450248        0.2293106768       -7.8944171492  SOLV      2288            0.0000000000
      6985      2300  TIP3      OH2            20.3842850248        0.6934506768       -5.7784971492  SOLV      2289            0.0000000000
      6986      2300  TIP3      H1             20.3629550248        0.8782906768       -4.8395571492  SOLV      2289            0.0000000000
      6987      2300  TIP3      H2             21.0749050248        1.2618506768       -6.1193571492  SOLV      2289            0.0000000000
      6988      2301  TIP3      OH2            19.9475750248        0.2605606768       -2.8565871492  SOLV      2290            0.0000000000
      6989      2301  TIP3      H1             19.4604450248       -0.4750293232       -3.2278471492  SOLV      2290            0.0000000000
      6990      2301  TIP3      H2             20.4968450248       -0.1330493232       -2.1786471492  SOLV      2290            0.0000000000
      6991      2302  TIP3      OH2            18.3983050248       -3.9496293232        1.7814428508  SOLV      2291            0.0000000000
      6992      2302  TIP3      H1             17.5324150248       -4.0546593232        2.1756728508  SOLV      2291            0.0000000000
      6993      2302  TIP3      H2             18.7748950248       -3.1912993232        2.2279128508  SOLV      2291            0.0000000000
      6994      2303  TIP3      OH2            19.6992750248       -5.6932593232      -12.7043071492  SOLV      2292            0.0000000000
      6995      2303  TIP3      H1             20.5494150248       -5.2721693232      -12.5771471492  SOLV      2292            0.0000000000
      6996      2303  TIP3      H2             19.7047850248       -6.4332493232      -12.0971671492  SOLV      2292            0.0000000000
      6997      2304  TIP3      OH2            20.0938350248       -7.6395193232      -10.8807371492  SOLV      2293            0.0000000000
      6998      2304  TIP3      H1             19.3672950248       -8.1192593232      -10.4829771492  SOLV      2293            0.0000000000
      6999      2304  TIP3      H2             20.6751650248       -7.4340493232      -10.1485771492  SOLV      2293            0.0000000000
      7000      2305  TIP3      OH2            19.8529550248       -4.8547693232       -5.9329771492  SOLV      2294            0.0000000000
      7001      2305  TIP3      H1             20.6863750248       -5.2327693232       -6.2136171492  SOLV      2294            0.0000000000
      7002      2305  TIP3      H2             19.9649850248       -3.9116493232       -6.0520671492  SOLV      2294            0.0000000000
      7003      2306  TIP3      OH2            18.3391850248       -1.9770193232       -3.6261371492  SOLV      2295            0.0000000000
      7004      2306  TIP3      H1             17.6917150248       -1.6518693232       -3.0006171492  SOLV      2295            0.0000000000
      7005      2306  TIP3      H2             17.8215850248       -2.4172493232       -4.3003071492  SOLV      2295            0.0000000000
      7006      2307  TIP3      OH2            20.3621450248       -7.7386693232      -14.4896071492  SOLV      2296            0.0000000000
      7007      2307  TIP3      H1             19.8402550248       -7.3822593232      -15.2085171492  SOLV      2296            0.0000000000
      7008      2307  TIP3      H2             20.3290650248       -7.0638893232      -13.8115171492  SOLV      2296            0.0000000000
      7009      2308  TIP3      OH2            18.7110450248      -10.4991093232      -15.9388971492  SOLV      2297            0.0000000000
      7010      2308  TIP3      H1             18.8074850248       -9.8324093232      -16.6189271492  SOLV      2297            0.0000000000
      7011      2308  TIP3      H2             18.5710050248      -11.3144793232      -16.4203471492  SOLV      2297            0.0000000000
      7012      2309  TIP3      OH2            17.8805150248       -9.1188693232      -10.3178671492  SOLV      2298            0.0000000000
      7013      2309  TIP3      H1             17.7303950248      -10.0640093232      -10.3380871492  SOLV      2298            0.0000000000
      7014      2309  TIP3      H2             17.5269650248       -8.8377293232       -9.4739571492  SOLV      2298            0.0000000000
      7015      2310  TIP3      OH2             2.9157550248       -7.0406493232       -6.3074871492  SOLV      2299            0.0000000000
      7016      2310  TIP3      H1              3.1000450248       -7.1224793232       -7.2431971492  SOLV      2299            0.0000000000
      7017      2310  TIP3      H2              3.7650450248       -7.1649493232       -5.8838471492  SOLV      2299            0.0000000000
      7018      2311  TIP3      OH2            18.7368050248       -7.1485393232       -0.6790371492  SOLV      2300            0.0000000000
      7019      2311  TIP3      H1             19.3195350248       -7.8833093232       -0.4873171492  SOLV      2300            0.0000000000
      7020      2311  TIP3      H2             19.3007350248       -6.3765093232       -0.6324571492  SOLV      2300            0.0000000000
      7021      2312  TIP3      OH2            20.2335150248       -9.2459593232        0.0055028508  SOLV      2301            0.0000000000
      7022      2312  TIP3      H1             19.3701850248       -9.6247493232       -0.1600271492  SOLV      2301            0.0000000000
      7023      2312  TIP3      H2             20.8378850248       -9.9844793232       -0.0689171492  SOLV      2301            0.0000000000
      7024      2313  TIP3      OH2            17.9584250248      -13.0911293232      -16.8213471492  SOLV      2302            0.0000000000
      7025      2313  TIP3      H1             18.5690050248      -13.4624493232      -16.1845271492  SOLV      2302            0.0000000000
      7026      2313  TIP3      H2             17.1215750248      -13.5124393232      -16.6253471492  SOLV      2302            0.0000000000
      7027      2314  TIP3      OH2            17.5909950248      -11.5362893232      -11.8553571492  SOLV      2303            0.0000000000
      7028      2314  TIP3      H1             17.8707050248      -12.4432493232      -11.7311871492  SOLV      2303            0.0000000000
      7029      2314  TIP3      H2             18.3501650248      -11.1021393232      -12.2444371492  SOLV      2303            0.0000000000
      7030      2315  TIP3      OH2            18.2028250248      -10.9545493232       -6.4194671492  SOLV      2304            0.0000000000
      7031      2315  TIP3      H1             19.1356250248      -10.7425593232       -6.4538671492  SOLV      2304            0.0000000000
      7032      2315  TIP3      H2             17.9675750248      -10.8533393232       -5.4971671492  SOLV      2304            0.0000000000
      7033      2316  TIP3      OH2            18.2320150248      -10.2180193232       -3.6435271492  SOLV      2305            0.0000000000
      7034      2316  TIP3      H1             17.3891450248       -9.9499793232       -3.2775471492  SOLV      2305            0.0000000000
      7035      2316  TIP3      H2             18.6744450248       -9.3958293232       -3.8544171492  SOLV      2305            0.0000000000
      7036      2317  TIP3      OH2             2.5132350248      -11.7701493232       -0.1666071492  SOLV      2306            0.0000000000
      7037      2317  TIP3      H1              3.4327250248      -11.8923193232        0.0697028508  SOLV      2306            0.0000000000
      7038      2317  TIP3      H2              2.0636850248      -12.5201793232        0.2227428508  SOLV      2306            0.0000000000
      7039      2318  TIP3      OH2            20.5151750248      -16.2379993232        1.7099728508  SOLV      2307            0.0000000000
      7040      2318  TIP3      H1             20.8648750248      -16.8916493232        1.1044428508  SOLV      2307            0.0000000000
      7041      2318  TIP3      H2             20.6621250248      -15.4005893232        1.2702328508  SOLV      2307            0.0000000000
      7042      2319  TIP3      OH2            18.2044750248      -14.2733593232      -11.8071571492  SOLV      2308            0.0000000000
      7043      2319  TIP3      H1             18.3869750248      -14.7222093232      -10.9816571492  SOLV      2308            0.0000000000
      7044      2319  TIP3      H2             17.6047650248      -14.8579193232      -12.2706971492  SOLV      2308            0.0000000000
      7045      2320  TIP3      OH2             3.7344850248      -13.4579893232       -7.2753171492  SOLV      2309            0.0000000000
      7046      2320  TIP3      H1              4.1796450248      -14.2497393232       -6.9733471492  SOLV      2309            0.0000000000
      7047      2320  TIP3      H2              4.2007850248      -12.7414693232       -6.8447571492  SOLV      2309            0.0000000000
      7048      2321  TIP3      OH2             2.0385150248      -10.4586893232       -6.2062971492  SOLV      2310            0.0000000000
      7049      2321  TIP3      H1              2.5304950248      -10.6796393232       -6.9970971492  SOLV      2310            0.0000000000
      7050      2321  TIP3      H2              2.4006050248       -9.6183493232       -5.9253471492  SOLV      2310            0.0000000000
      7051      2322  TIP3      OH2            20.0348950248      -14.1285393232        0.0591028508  SOLV      2311            0.0000000000
      7052      2322  TIP3      H1             19.1174650248      -13.8578293232        0.0234528508  SOLV      2311            0.0000000000
      7053      2322  TIP3      H2             20.1578350248      -14.6636993232       -0.7249271492  SOLV      2311            0.0000000000
      7054      2323  TIP3      OH2            20.0710950248      -14.2055493232      -15.2791271492  SOLV      2312            0.0000000000
      7055      2323  TIP3      H1             20.4833550248      -14.9269793232      -15.7543271492  SOLV      2312            0.0000000000
      7056      2323  TIP3      H2             20.7527450248      -13.5360893232      -15.2206971492  SOLV      2312            0.0000000000
      7057      2324  TIP3      OH2             2.3521650248      -14.2007793232      -12.1520571492  SOLV      2313            0.0000000000
      7058      2324  TIP3      H1              1.4270050248      -13.9921193232      -12.2815071492  SOLV      2313            0.0000000000
      7059      2324  TIP3      H2              2.8061550248      -13.7166993232      -12.8418271492  SOLV      2313            0.0000000000
      7060      2325  TIP3      OH2            17.1228850248        0.7833906768      -10.2063171492  SOLV      2314            0.0000000000
      7061      2325  TIP3      H1             17.7751750248        0.4356006768      -10.8144071492  SOLV      2314            0.0000000000
      7062      2325  TIP3      H2             17.6332650248        1.2717106768       -9.5603471492  SOLV      2314            0.0000000000
      7063      2326  TIP3      OH2             2.3157050248      -15.4628793232       -3.8078071492  SOLV      2315            0.0000000000
      7064      2326  TIP3      H1              1.6507550248      -15.7088493232       -3.1647171492  SOLV      2315            0.0000000000
      7065      2326  TIP3      H2              1.8728350248      -14.8408393232       -4.3850071492  SOLV      2315            0.0000000000
      7066      2327  TIP3      OH2            14.1181050248        1.3715406768       -1.2013171492  SOLV      2316            0.0000000000
      7067      2327  TIP3      H1             14.7949950248        0.7387706768       -1.4413971492  SOLV      2316            0.0000000000
      7068      2327  TIP3      H2             14.4399850248        1.7725906768       -0.3939871492  SOLV      2316            0.0000000000
      7069      2328  TIP3      OH2            19.0354850248      -16.0389093232       -2.1218171492  SOLV      2317            0.0000000000
      7070      2328  TIP3      H1             18.2228350248      -15.7138793232       -2.5093471492  SOLV      2317            0.0000000000
      7071      2328  TIP3      H2             19.2683350248      -16.7990593232       -2.6549071492  SOLV      2317            0.0000000000
      7072      2329  TIP3      OH2             7.3308550248        1.5434306768       -4.3275771492  SOLV      2318            0.0000000000
      7073      2329  TIP3      H1              6.4660750248        1.6152806768       -3.9235671492  SOLV      2318            0.0000000000
      7074      2329  TIP3      H2              7.2757550248        2.0901606768       -5.1113271492  SOLV      2318            0.0000000000
      7075      2330  TIP3      OH2            12.0414150248        1.4313206768       -5.1519771492  SOLV      2319            0.0000000000
      7076      2330  TIP3      H1             11.5848150248        1.9602906768       -5.8061371492  SOLV      2319            0.0000000000
      7077      2330  TIP3      H2             12.2042150248        2.0344606768       -4.4267471492  SOLV      2319            0.0000000000
      7078      2331  TIP3      OH2            14.3690450248        0.3092806768       -4.2069471492  SOLV      2320            0.0000000000
      7079      2331  TIP3      H1             13.4644150248        0.4743006768       -4.4727371492  SOLV      2320            0.0000000000
      7080      2331  TIP3      H2             14.7979050248        1.1625006768       -4.2726071492  SOLV      2320            0.0000000000
      7081      2332  TIP3      OH2            16.9732350248        1.8791906768       -3.9121671492  SOLV      2321            0.0000000000
      7082      2332  TIP3      H1             16.7914350248        2.7950806768       -4.1226771492  SOLV      2321            0.0000000000
      7083      2332  TIP3      H2             17.1500150248        1.4689006768       -4.7587071492  SOLV      2321            0.0000000000
      7084      2333  TIP3      OH2             4.2784050248        0.5662906768       -6.4471171492  SOLV      2322            0.0000000000
      7085      2333  TIP3      H1              4.2600050248        0.1408006768       -5.5898871492  SOLV      2322            0.0000000000
      7086      2333  TIP3      H2              5.0831950248        0.2477906768       -6.8558971492  SOLV      2322            0.0000000000
      7087      2334  TIP3      OH2             6.4197150248       -0.7238393232       -7.7921271492  SOLV      2323            0.0000000000
      7088      2334  TIP3      H1              6.2007850248       -1.6400993232       -7.6225271492  SOLV      2323            0.0000000000
      7089      2334  TIP3      H2              7.2439350248       -0.5837993232       -7.3259871492  SOLV      2323            0.0000000000
      7090      2335  TIP3      OH2             8.9569650248       -0.2539093232       -6.9433271492  SOLV      2324            0.0000000000
      7091      2335  TIP3      H1              9.1695350248       -1.1420093232       -7.2302371492  SOLV      2324            0.0000000000
      7092      2335  TIP3      H2              9.0214750248       -0.2881393232       -5.9889271492  SOLV      2324            0.0000000000
      7093      2336  TIP3      OH2            12.4653350248      -14.5898493232       -7.7989971492  SOLV      2325            0.0000000000
      7094      2336  TIP3      H1             11.7910150248      -15.2192893232       -7.5434171492  SOLV      2325            0.0000000000
      7095      2336  TIP3      H2             13.0292550248      -15.0739593232       -8.4022071492  SOLV      2325            0.0000000000
      7096      2337  TIP3      OH2            17.6080550248      -16.4824493232       -7.6862871492  SOLV      2326            0.0000000000
      7097      2337  TIP3      H1             18.2118150248      -15.9349093232       -8.1881871492  SOLV      2326            0.0000000000
      7098      2337  TIP3      H2             16.7382550248      -16.1634093232       -7.9268771492  SOLV      2326            0.0000000000
      7099      2338  TIP3      OH2            19.3350950248      -15.3435793232       -9.3531971492  SOLV      2327            0.0000000000
      7100      2338  TIP3      H1             19.9468450248      -15.8580093232       -9.8798371492  SOLV      2327            0.0000000000
      7101      2338  TIP3      H2             19.7174350248      -14.4663693232       -9.3297571492  SOLV      2327            0.0000000000
      7102      2339  TIP3      OH2             4.7920850248      -15.9558193232       -9.9770071492  SOLV      2328            0.0000000000
      7103      2339  TIP3      H1              4.0150650248      -16.1903293232      -10.4844171492  SOLV      2328            0.0000000000
      7104      2339  TIP3      H2              5.3224450248      -16.7526093232       -9.9682071492  SOLV      2328            0.0000000000
      7105      2340  TIP3      OH2             3.6284250248      -16.1580093232      -14.1733971492  SOLV      2329            0.0000000000
      7106      2340  TIP3      H1              4.0674950248      -15.5469593232      -14.7650471492  SOLV      2329            0.0000000000
      7107      2340  TIP3      H2              2.9946650248      -15.6195993232      -13.6993971492  SOLV      2329            0.0000000000
      7108      2341  TIP3      OH2             9.3713450248      -16.0291093232      -10.1636971492  SOLV      2330            0.0000000000
      7109      2341  TIP3      H1             10.2456850248      -15.6406793232      -10.1932671492  SOLV      2330            0.0000000000
      7110      2341  TIP3      H2              9.2354250248      -16.2443293232       -9.2409771492  SOLV      2330            0.0000000000
      7111      2342  TIP3      OH2            14.9281850248      -15.9991293232       -8.5145271492  SOLV      2331            0.0000000000
      7112      2342  TIP3      H1             15.0043450248      -15.9039693232       -9.4639271492  SOLV      2331            0.0000000000
      7113      2342  TIP3      H2             14.6531050248      -16.9068393232       -8.3856171492  SOLV      2331            0.0000000000
      7114      2343  TIP3      OH2            16.2814450248      -15.9733493232      -12.8220271492  SOLV      2332            0.0000000000
      7115      2343  TIP3      H1             15.5785550248      -15.3584293232      -13.0318871492  SOLV      2332            0.0000000000
      7116      2343  TIP3      H2             15.8365850248      -16.8106793232      -12.6909371492  SOLV      2332            0.0000000000
      7117      2344  TIP3      OH2             3.5293750248       -0.2097893232      -13.2758871492  SOLV      2333            0.0000000000
      7118      2344  TIP3      H1              2.8443650248       -0.2478993232      -13.9433771492  SOLV      2333            0.0000000000
      7119      2344  TIP3      H2              3.5330950248        0.7029706768      -12.9876771492  SOLV      2333            0.0000000000
      7120      2345  TIP3      OH2             5.4893350248      -14.2418593232      -15.7309871492  SOLV      2334            0.0000000000
      7121      2345  TIP3      H1              5.9806750248      -14.8716193232      -16.2584371492  SOLV      2334            0.0000000000
      7122      2345  TIP3      H2              6.1129650248      -13.9459193232      -15.0678671492  SOLV      2334            0.0000000000
      7123      2346  TIP3      OH2            10.5153450248      -13.9487093232      -13.2739371492  SOLV      2335            0.0000000000
      7124      2346  TIP3      H1             10.6934750248      -14.5953893232      -12.5910771492  SOLV      2335            0.0000000000
      7125      2346  TIP3      H2             10.4619650248      -13.1149393232      -12.8068271492  SOLV      2335            0.0000000000
      7126      2347  TIP3      OH2            12.3937250248        0.9997006768      -14.8782671492  SOLV      2336            0.0000000000
      7127      2347  TIP3      H1             13.2597450248        1.3664406768      -15.0564471492  SOLV      2336            0.0000000000
      7128      2347  TIP3      H2             12.1470050248        0.5605006768      -15.6921871492  SOLV      2336            0.0000000000
      7129      2348  TIP3      OH2            19.1026850248        0.5627306768      -12.1991571492  SOLV      2337            0.0000000000
      7130      2348  TIP3      H1             18.9083950248       -0.1850593232      -12.7641971492  SOLV      2337            0.0000000000
      7131      2348  TIP3      H2             19.0636950248        1.3207406768      -12.7823671492  SOLV      2337            0.0000000000
      7132      2349  TIP3      OH2             4.7498850248      -15.4416293232       -0.4593871492  SOLV      2338            0.0000000000
      7133      2349  TIP3      H1              4.3837050248      -16.2073693232       -0.0169171492  SOLV      2338            0.0000000000
      7134      2349  TIP3      H2              5.6627350248      -15.4126093232       -0.1728771492  SOLV      2338            0.0000000000
      7135      2350  TIP3      OH2             6.7229650248      -16.0911893232        1.0763228508  SOLV      2339            0.0000000000
      7136      2350  TIP3      H1              7.6213250248      -16.3651693232        0.8916628508  SOLV      2339            0.0000000000
      7137      2350  TIP3      H2              6.3362750248      -16.8335893232        1.5405828508  SOLV      2339            0.0000000000
      7138      2351  TIP3      OH2             5.3474950248        0.7102906768      -16.2506771492  SOLV      2340            0.0000000000
      7139      2351  TIP3      H1              5.0799550248        0.9965806768      -15.3773671492  SOLV      2340            0.0000000000
      7140      2351  TIP3      H2              6.1187550248        0.1642106768      -16.0984271492  SOLV      2340            0.0000000000
      7141      2352  TIP3      OH2            15.1441950248      -16.7586593232        1.2586028508  SOLV      2341            0.0000000000
      7142      2352  TIP3      H1             15.2209150248      -17.1845893232        2.1123728508  SOLV      2341            0.0000000000
      7143      2352  TIP3      H2             16.0378550248      -16.7451893232        0.9159528508  SOLV      2341            0.0000000000
      7144      2353  TIP3      OH2            18.3203050248       -0.6860293232       -0.0489771492  SOLV      2342            0.0000000000
      7145      2353  TIP3      H1             17.5384950248       -0.8722293232       -0.5689171492  SOLV      2342            0.0000000000
      7146      2353  TIP3      H2             18.2482950248        0.2434006768        0.1682728508  SOLV      2342            0.0000000000
      7147      2354  TIP3      OH2            31.6594750248       -7.5445193232       -6.5994371492  SOLV      2343            0.0000000000
      7148      2354  TIP3      H1             31.6212250248       -8.1908893232       -5.8944771492  SOLV      2343            0.0000000000
      7149      2354  TIP3      H2             31.3371250248       -8.0110793232       -7.3705671492  SOLV      2343            0.0000000000
      7150      2355  TIP3      OH2            24.0279750248       -7.9303093232       -5.0064471492  SOLV      2344            0.0000000000
      7151      2355  TIP3      H1             24.0691850248       -8.5559793232       -4.2832071492  SOLV      2344            0.0000000000
      7152      2355  TIP3      H2             24.7307450248       -7.3064493232       -4.8244071492  SOLV      2344            0.0000000000
      7153      2356  TIP3      OH2            24.9512850248       -3.4804193232       -6.4715371492  SOLV      2345            0.0000000000
      7154      2356  TIP3      H1             24.5818050248       -4.2823693232       -6.8411071492  SOLV      2345            0.0000000000
      7155      2356  TIP3      H2             25.8923950248       -3.6489293232       -6.4251971492  SOLV      2345            0.0000000000
      7156      2357  TIP3      OH2            21.5613350248       -9.8201593232      -11.0786571492  SOLV      2346            0.0000000000
      7157      2357  TIP3      H1             21.1136750248       -8.9742893232      -11.0970071492  SOLV      2346            0.0000000000
      7158      2357  TIP3      H2             21.0004550248      -10.3997393232      -11.5941471492  SOLV      2346            0.0000000000
      7159      2358  TIP3      OH2            22.2719450248       -7.6581993232       -8.9528571492  SOLV      2347            0.0000000000
      7160      2358  TIP3      H1             22.4852950248       -8.4280393232       -8.4255571492  SOLV      2347            0.0000000000
      7161      2358  TIP3      H2             23.0097050248       -7.5685293232       -9.5560971492  SOLV      2347            0.0000000000
      7162      2359  TIP3      OH2            32.4770450248        0.4986906768       -8.0858871492  SOLV      2348            0.0000000000
      7163      2359  TIP3      H1             33.0966850248       -0.1778393232       -8.3589671492  SOLV      2348            0.0000000000
      7164      2359  TIP3      H2             32.2687850248        0.2807706768       -7.1773971492  SOLV      2348            0.0000000000
      7165      2360  TIP3      OH2            30.0489150248       -5.1123793232       -6.1933371492  SOLV      2349            0.0000000000
      7166      2360  TIP3      H1             30.3527050248       -5.7982393232       -6.7879271492  SOLV      2349            0.0000000000
      7167      2360  TIP3      H2             30.7703150248       -4.9935093232       -5.5755371492  SOLV      2349            0.0000000000
      7168      2361  TIP3      OH2            26.3444450248      -12.6164993232       -8.5933771492  SOLV      2350            0.0000000000
      7169      2361  TIP3      H1             26.3875550248      -11.7566493232       -9.0117471492  SOLV      2350            0.0000000000
      7170      2361  TIP3      H2             25.8868550248      -13.1690293232       -9.2270571492  SOLV      2350            0.0000000000
      7171      2362  TIP3      OH2            22.9645950248      -10.2199193232       -7.8312371492  SOLV      2351            0.0000000000
      7172      2362  TIP3      H1             23.6182550248      -10.7697493232       -7.3992271492  SOLV      2351            0.0000000000
      7173      2362  TIP3      H2             22.9885250248      -10.4940193232       -8.7480371492  SOLV      2351            0.0000000000
      7174      2363  TIP3      OH2            28.1210450248       -8.6697893232       -8.6160871492  SOLV      2352            0.0000000000
      7175      2363  TIP3      H1             28.7371450248       -9.1962493232       -8.1066871492  SOLV      2352            0.0000000000
      7176      2363  TIP3      H2             27.5349250248       -9.3099193232       -9.0197271492  SOLV      2352            0.0000000000
      7177      2364  TIP3      OH2            25.1546350248      -13.6986593232       -4.5192971492  SOLV      2353            0.0000000000
      7178      2364  TIP3      H1             24.9358050248      -13.1685993232       -5.2856971492  SOLV      2353            0.0000000000
      7179      2364  TIP3      H2             24.4867250248      -13.4721093232       -3.8721571492  SOLV      2353            0.0000000000
      7180      2365  TIP3      OH2            32.5236150248       -4.1985493232      -10.9753871492  SOLV      2354            0.0000000000
      7181      2365  TIP3      H1             32.2281250248       -4.5213193232      -11.8266971492  SOLV      2354            0.0000000000
      7182      2365  TIP3      H2             32.1993950248       -3.2988793232      -10.9341271492  SOLV      2354            0.0000000000
      7183      2366  TIP3      OH2            27.7237750248       -6.0230893232       -4.2319271492  SOLV      2355            0.0000000000
      7184      2366  TIP3      H1             26.9836850248       -5.4249393232       -4.1284071492  SOLV      2355            0.0000000000
      7185      2366  TIP3      H2             28.4377250248       -5.4691293232       -4.5475671492  SOLV      2355            0.0000000000
      7186      2367  TIP3      OH2            24.7483650248      -11.8064793232       -6.5670771492  SOLV      2356            0.0000000000
      7187      2367  TIP3      H1             25.3619950248      -11.1737193232       -6.1938371492  SOLV      2356            0.0000000000
      7188      2367  TIP3      H2             25.2604350248      -12.2789793232       -7.2233871492  SOLV      2356            0.0000000000
      7189      2368  TIP3      OH2            26.1312050248       -4.0587893232       -3.4447771492  SOLV      2357            0.0000000000
      7190      2368  TIP3      H1             26.1259650248       -3.1794393232       -3.8228471492  SOLV      2357            0.0000000000
      7191      2368  TIP3      H2             25.2776150248       -4.1423793232       -3.0197871492  SOLV      2357            0.0000000000
      7192      2369  TIP3      OH2            22.2522950248       -4.3879993232      -12.6628471492  SOLV      2358            0.0000000000
      7193      2369  TIP3      H1             21.9803850248       -4.1588993232      -13.5515571492  SOLV      2358            0.0000000000
      7194      2369  TIP3      H2             22.2978650248       -3.5501193232      -12.2023171492  SOLV      2358            0.0000000000
      7195      2370  TIP3      OH2            31.4475950248       -7.5555893232      -12.5662271492  SOLV      2359            0.0000000000
      7196      2370  TIP3      H1             30.7361450248       -7.0206193232      -12.9181771492  SOLV      2359            0.0000000000
      7197      2370  TIP3      H2             32.1385550248       -7.5003793232      -13.2263371492  SOLV      2359            0.0000000000
      7198      2371  TIP3      OH2            26.4987350248       -6.7156393232       -9.7321371492  SOLV      2360            0.0000000000
      7199      2371  TIP3      H1             26.1682550248       -7.0862993232      -10.5504371492  SOLV      2360            0.0000000000
      7200      2371  TIP3      H2             27.0871450248       -7.3862393232       -9.3853071492  SOLV      2360            0.0000000000
      7201      2372  TIP3      OH2            27.8654850248       -3.2875793232       -7.0509171492  SOLV      2361            0.0000000000
      7202      2372  TIP3      H1             27.7706150248       -3.8662693232       -7.8074571492  SOLV      2361            0.0000000000
      7203      2372  TIP3      H2             28.5948450248       -3.6590093232       -6.5546371492  SOLV      2361            0.0000000000
      7204      2373  TIP3      OH2            26.8652850248       -7.9470793232       -6.0986371492  SOLV      2362            0.0000000000
      7205      2373  TIP3      H1             27.4305350248       -7.8256593232       -6.8615171492  SOLV      2362            0.0000000000
      7206      2373  TIP3      H2             27.1841750248       -7.3095793232       -5.4597871492  SOLV      2362            0.0000000000
      7207      2374  TIP3      OH2            33.1745050248       -2.4438893232       -5.3645871492  SOLV      2363            0.0000000000
      7208      2374  TIP3      H1             32.9341650248       -1.7815793232       -4.7166671492  SOLV      2363            0.0000000000
      7209      2374  TIP3      H2             32.9763250248       -3.2783693232       -4.9396271492  SOLV      2363            0.0000000000
      7210      2375  TIP3      OH2            27.7453550248       -3.5478093232       -1.3814471492  SOLV      2364            0.0000000000
      7211      2375  TIP3      H1             27.4341050248       -2.7654893232       -0.9261271492  SOLV      2364            0.0000000000
      7212      2375  TIP3      H2             27.0953750248       -3.7008993232       -2.0672471492  SOLV      2364            0.0000000000
      7213      2376  TIP3      OH2            24.6653450248       -7.3496993232       -2.1528771492  SOLV      2365            0.0000000000
      7214      2376  TIP3      H1             24.7356650248       -6.6990193232       -1.4543771492  SOLV      2365            0.0000000000
      7215      2376  TIP3      H2             23.7745650248       -7.2469493232       -2.4877871492  SOLV      2365            0.0000000000
      7216      2377  TIP3      OH2            31.4508050248       -1.4471193232      -10.4942071492  SOLV      2366            0.0000000000
      7217      2377  TIP3      H1             31.9245650248       -1.1514893232       -9.7167871492  SOLV      2366            0.0000000000
      7218      2377  TIP3      H2             30.8877350248       -0.7089593232      -10.7272471492  SOLV      2366            0.0000000000
      7219      2378  TIP3      OH2            25.9849450248       -1.4763093232       -0.6180671492  SOLV      2367            0.0000000000
      7220      2378  TIP3      H1             25.9924750248       -1.6123393232       -1.5655171492  SOLV      2367            0.0000000000
      7221      2378  TIP3      H2             25.0689850248       -1.5934993232       -0.3660671492  SOLV      2367            0.0000000000
      7222      2379  TIP3      OH2            25.4890050248       -7.6462093232      -12.1428571492  SOLV      2368            0.0000000000
      7223      2379  TIP3      H1             25.1971350248       -6.8780393232      -12.6337271492  SOLV      2368            0.0000000000
      7224      2379  TIP3      H2             24.8145250248       -8.3055893232      -12.3057171492  SOLV      2368            0.0000000000
      7225      2380  TIP3      OH2            21.5820150248       -5.2832893232       -3.3278771492  SOLV      2369            0.0000000000
      7226      2380  TIP3      H1             21.0808550248       -5.3113493232       -4.1429071492  SOLV      2369            0.0000000000
      7227      2380  TIP3      H2             21.5873850248       -6.1889693232       -3.0181471492  SOLV      2369            0.0000000000
      7228      2381  TIP3      OH2            21.3322850248       -2.5029093232       -6.4438571492  SOLV      2370            0.0000000000
      7229      2381  TIP3      H1             22.2783450248       -2.6472093232       -6.4629071492  SOLV      2370            0.0000000000
      7230      2381  TIP3      H2             21.2199150248       -1.7186293232       -5.9067371492  SOLV      2370            0.0000000000
      7231      2382  TIP3      OH2            30.5085350248       -2.2630193232       -1.8853471492  SOLV      2371            0.0000000000
      7232      2382  TIP3      H1             30.5959950248       -1.4365593232       -1.4104371492  SOLV      2371            0.0000000000
      7233      2382  TIP3      H2             29.6450450248       -2.5926393232       -1.6364171492  SOLV      2371            0.0000000000
      7234      2383  TIP3      OH2            30.9231150248        1.5093506768      -12.0792871492  SOLV      2372            0.0000000000
      7235      2383  TIP3      H1             30.8477150248        1.3880706768      -13.0257671492  SOLV      2372            0.0000000000
      7236      2383  TIP3      H2             30.9559850248        2.4586206768      -11.9608271492  SOLV      2372            0.0000000000
      7237      2384  TIP3      OH2            24.5764950248        0.2980506768      -10.2983871492  SOLV      2373            0.0000000000
      7238      2384  TIP3      H1             24.7285350248       -0.0499093232       -9.4197371492  SOLV      2373            0.0000000000
      7239      2384  TIP3      H2             23.7255350248       -0.0582193232      -10.5536671492  SOLV      2373            0.0000000000
      7240      2385  TIP3      OH2            34.0247150248        0.6633706768      -15.0770471492  SOLV      2374            0.0000000000
      7241      2385  TIP3      H1             34.3995550248       -0.0810193232      -15.5477871492  SOLV      2374            0.0000000000
      7242      2385  TIP3      H2             34.0290850248        0.3934306768      -14.1587171492  SOLV      2374            0.0000000000
      7243      2386  TIP3      OH2            33.6935250248        0.5890806768      -12.3278271492  SOLV      2375            0.0000000000
      7244      2386  TIP3      H1             32.7585050248        0.6892706768      -12.1491271492  SOLV      2375            0.0000000000
      7245      2386  TIP3      H2             33.9737150248       -0.1203193232      -11.7495071492  SOLV      2375            0.0000000000
      7246      2387  TIP3      OH2            23.8310650248       -3.9597493232       -2.2845971492  SOLV      2376            0.0000000000
      7247      2387  TIP3      H1             24.0471950248       -4.3211893232       -1.4250171492  SOLV      2376            0.0000000000
      7248      2387  TIP3      H2             22.9755350248       -4.3343693232       -2.4942471492  SOLV      2376            0.0000000000
      7249      2388  TIP3      OH2            26.4498650248      -15.4896993232       -6.2891771492  SOLV      2377            0.0000000000
      7250      2388  TIP3      H1             25.5882350248      -15.5768793232       -6.6968871492  SOLV      2377            0.0000000000
      7251      2388  TIP3      H2             26.4274350248      -14.6336893232       -5.8614171492  SOLV      2377            0.0000000000
      7252      2389  TIP3      OH2            26.5408750248      -10.5242493232       -5.1941571492  SOLV      2378            0.0000000000
      7253      2389  TIP3      H1             25.8990850248      -10.5645193232       -4.4851471492  SOLV      2378            0.0000000000
      7254      2389  TIP3      H2             26.5780750248       -9.5977793232       -5.4318571492  SOLV      2378            0.0000000000
      7255      2390  TIP3      OH2            26.5377850248      -10.3032393232      -10.2821571492  SOLV      2379            0.0000000000
      7256      2390  TIP3      H1             25.6450750248      -10.6436293232      -10.3407771492  SOLV      2379            0.0000000000
      7257      2390  TIP3      H2             26.9884450248      -10.6801493232      -11.0378371492  SOLV      2379            0.0000000000
      7258      2391  TIP3      OH2            24.2909250248      -10.2038993232       -3.3269571492  SOLV      2380            0.0000000000
      7259      2391  TIP3      H1             24.2528650248       -9.8037393232       -2.4582471492  SOLV      2380            0.0000000000
      7260      2391  TIP3      H2             23.8000350248      -11.0206593232       -3.2366671492  SOLV      2380            0.0000000000
      7261      2392  TIP3      OH2            27.6566650248      -12.8296693232      -16.5283571492  SOLV      2381            0.0000000000
      7262      2392  TIP3      H1             27.2257350248      -13.2746593232      -15.7986171492  SOLV      2381            0.0000000000
      7263      2392  TIP3      H2             26.9385350248      -12.4580393232      -17.0406071492  SOLV      2381            0.0000000000
      7264      2393  TIP3      OH2            20.8990050248      -13.0877193232       -9.4764871492  SOLV      2382            0.0000000000
      7265      2393  TIP3      H1             21.5297750248      -13.1165093232       -8.7570971492  SOLV      2382            0.0000000000
      7266      2393  TIP3      H2             21.3484350248      -13.5128493232      -10.2068971492  SOLV      2382            0.0000000000
      7267      2394  TIP3      OH2            22.1732150248      -12.3415193232      -14.0524471492  SOLV      2383            0.0000000000
      7268      2394  TIP3      H1             22.6473850248      -11.7505293232      -14.6373571492  SOLV      2383            0.0000000000
      7269      2394  TIP3      H2             21.4558550248      -11.8112293232      -13.7054371492  SOLV      2383            0.0000000000
      7270      2395  TIP3      OH2            29.1193150248      -12.8754893232       -9.1957471492  SOLV      2384            0.0000000000
      7271      2395  TIP3      H1             28.2084250248      -12.8188093232       -8.9071471492  SOLV      2384            0.0000000000
      7272      2395  TIP3      H2             29.6246050248      -12.9359393232       -8.3850271492  SOLV      2384            0.0000000000
      7273      2396  TIP3      OH2            23.9476550248      -11.2468593232      -10.3689871492  SOLV      2385            0.0000000000
      7274      2396  TIP3      H1             23.0584550248      -11.1473093232      -10.7090271492  SOLV      2385            0.0000000000
      7275      2396  TIP3      H2             24.2441450248      -12.0885593232      -10.7151971492  SOLV      2385            0.0000000000
      7276      2397  TIP3      OH2            27.6008350248      -11.2465993232      -12.7125271492  SOLV      2386            0.0000000000
      7277      2397  TIP3      H1             28.5323850248      -11.1175993232      -12.5342171492  SOLV      2386            0.0000000000
      7278      2397  TIP3      H2             27.3858650248      -10.5771693232      -13.3620571492  SOLV      2386            0.0000000000
      7279      2398  TIP3      OH2            26.2748550248      -10.0523793232      -15.1459171492  SOLV      2387            0.0000000000
      7280      2398  TIP3      H1             25.7323650248      -10.4319993232      -15.8371571492  SOLV      2387            0.0000000000
      7281      2398  TIP3      H2             27.1083450248       -9.8579093232      -15.5745071492  SOLV      2387            0.0000000000
      7282      2399  TIP3      OH2            24.4099950248       -5.4951893232       -0.0467571492  SOLV      2388            0.0000000000
      7283      2399  TIP3      H1             25.1422350248       -5.2405993232        0.5146928508  SOLV      2388            0.0000000000
      7284      2399  TIP3      H2             23.6298650248       -5.2906493232        0.4687828508  SOLV      2388            0.0000000000
      7285      2400  TIP3      OH2            30.4392850248      -10.0881893232       -7.3087871492  SOLV      2389            0.0000000000
      7286      2400  TIP3      H1             31.0036250248      -10.6345293232       -7.8558271492  SOLV      2389            0.0000000000
      7287      2400  TIP3      H2             30.2916250248      -10.6099993232       -6.5200271492  SOLV      2389            0.0000000000
      7288      2401  TIP3      OH2            25.4412550248      -13.9515793232      -10.8903071492  SOLV      2390            0.0000000000
      7289      2401  TIP3      H1             25.1242050248      -14.8540493232      -10.9257671492  SOLV      2390            0.0000000000
      7290      2401  TIP3      H2             26.2226650248      -13.9498393232      -11.4431471492  SOLV      2390            0.0000000000
      7291      2402  TIP3      OH2            29.0658750248      -11.6995793232       -4.8947471492  SOLV      2391            0.0000000000
      7292      2402  TIP3      H1             28.2304050248      -11.2456293232       -4.7845071492  SOLV      2391            0.0000000000
      7293      2402  TIP3      H2             29.5899350248      -11.4237293232       -4.1427571492  SOLV      2391            0.0000000000
      7294      2403  TIP3      OH2            29.6101350248       -5.4868093232      -13.2101071492  SOLV      2392            0.0000000000
      7295      2403  TIP3      H1             28.8652350248       -5.9942793232      -13.5323171492  SOLV      2392            0.0000000000
      7296      2403  TIP3      H2             29.4758550248       -5.4380093232      -12.2636271492  SOLV      2392            0.0000000000
      7297      2404  TIP3      OH2            31.1293450248       -5.3024793232       -1.9731971492  SOLV      2393            0.0000000000
      7298      2404  TIP3      H1             30.7839550248       -5.6842393232       -1.1662371492  SOLV      2393            0.0000000000
      7299      2404  TIP3      H2             30.9293550248       -4.3691193232       -1.9019071492  SOLV      2393            0.0000000000
      7300      2405  TIP3      OH2            24.7349650248       -6.1918093232       -7.4403171492  SOLV      2394            0.0000000000
      7301      2405  TIP3      H1             25.4796850248       -6.1942393232       -8.0416671492  SOLV      2394            0.0000000000
      7302      2405  TIP3      H2             24.8126250248       -7.0154293232       -6.9588071492  SOLV      2394            0.0000000000
      7303      2406  TIP3      OH2            31.7355450248       -4.0283793232      -14.1846471492  SOLV      2395            0.0000000000
      7304      2406  TIP3      H1             31.4403850248       -3.2015893232      -13.8031671492  SOLV      2395            0.0000000000
      7305      2406  TIP3      H2             31.0325450248       -4.6476893232      -13.9885071492  SOLV      2395            0.0000000000
      7306      2407  TIP3      OH2            21.7429350248       -7.7311193232       -2.1254671492  SOLV      2396            0.0000000000
      7307      2407  TIP3      H1             21.9657950248       -8.1491593232       -1.2937171492  SOLV      2396            0.0000000000
      7308      2407  TIP3      H2             21.1409450248       -8.3436193232       -2.5481871492  SOLV      2396            0.0000000000
      7309      2408  TIP3      OH2            28.7594250248       -8.2141293232        0.0875028508  SOLV      2397            0.0000000000
      7310      2408  TIP3      H1             28.4635050248       -8.3798293232       -0.8075871492  SOLV      2397            0.0000000000
      7311      2408  TIP3      H2             29.6909450248       -8.4340993232        0.0768928508  SOLV      2397            0.0000000000
      7312      2409  TIP3      OH2            33.3797050248       -2.8409293232       -2.0226971492  SOLV      2398            0.0000000000
      7313      2409  TIP3      H1             32.4791350248       -2.6576693232       -2.2903071492  SOLV      2398            0.0000000000
      7314      2409  TIP3      H2             33.4138150248       -2.5819993232       -1.1018171492  SOLV      2398            0.0000000000
      7315      2410  TIP3      OH2            27.1099050248       -2.6739893232      -10.0361671492  SOLV      2399            0.0000000000
      7316      2410  TIP3      H1             27.6371250248       -1.9005493232      -10.2362871492  SOLV      2399            0.0000000000
      7317      2410  TIP3      H2             26.2297550248       -2.4490693232      -10.3377671492  SOLV      2399            0.0000000000
      7318      2411  TIP3      OH2            22.8646750248       -7.8115793232      -15.4489271492  SOLV      2400            0.0000000000
      7319      2411  TIP3      H1             23.4806650248       -7.1848593232      -15.0694471492  SOLV      2400            0.0000000000
      7320      2411  TIP3      H2             22.0029350248       -7.4955993232      -15.1772771492  SOLV      2400            0.0000000000
      7321      2412  TIP3      OH2            28.5371350248       -5.0109993232      -10.4597371492  SOLV      2401            0.0000000000
      7322      2412  TIP3      H1             28.2961350248       -4.0855593232      -10.4182071492  SOLV      2401            0.0000000000
      7323      2412  TIP3      H2             27.7964950248       -5.4698693232      -10.0633471492  SOLV      2401            0.0000000000
      7324      2413  TIP3      OH2            29.0517950248       -0.8616393232       -4.1446271492  SOLV      2402            0.0000000000
      7325      2413  TIP3      H1             29.4142650248       -0.0070793232       -4.3781871492  SOLV      2402            0.0000000000
      7326      2413  TIP3      H2             29.5833150248       -1.1534793232       -3.4039971492  SOLV      2402            0.0000000000
      7327      2414  TIP3      OH2            27.2202150248        0.0107606768      -10.9145171492  SOLV      2403            0.0000000000
      7328      2414  TIP3      H1             26.2702650248        0.1165006768      -10.8631871492  SOLV      2403            0.0000000000
      7329      2414  TIP3      H2             27.5720250248        0.8315006768      -10.5697671492  SOLV      2403            0.0000000000
      7330      2415  TIP3      OH2            23.3768850248      -12.9778493232       -2.5673271492  SOLV      2404            0.0000000000
      7331      2415  TIP3      H1             22.4841150248      -12.6393093232       -2.6349271492  SOLV      2404            0.0000000000
      7332      2415  TIP3      H2             23.2781650248      -13.8332393232       -2.1492471492  SOLV      2404            0.0000000000
      7333      2416  TIP3      OH2            23.0280850248       -1.1734093232       -4.1323871492  SOLV      2405            0.0000000000
      7334      2416  TIP3      H1             23.2451150248       -2.1051693232       -4.1634171492  SOLV      2405            0.0000000000
      7335      2416  TIP3      H2             23.2744350248       -0.8989093232       -3.2491071492  SOLV      2405            0.0000000000
      7336      2417  TIP3      OH2            28.8895450248       -2.7219093232      -16.9231671492  SOLV      2406            0.0000000000
      7337      2417  TIP3      H1             29.1285250248       -3.4700993232      -17.4702771492  SOLV      2406            0.0000000000
      7338      2417  TIP3      H2             28.6206750248       -3.1097393232      -16.0903871492  SOLV      2406            0.0000000000
      7339      2418  TIP3      OH2            27.8266050248       -3.1515293232      -14.4669071492  SOLV      2407            0.0000000000
      7340      2418  TIP3      H1             27.9734050248       -3.6715493232      -13.6768171492  SOLV      2407            0.0000000000
      7341      2418  TIP3      H2             27.8237750248       -2.2447693232      -14.1603171492  SOLV      2407            0.0000000000
      7342      2419  TIP3      OH2            24.2797150248       -5.8991993232      -13.9563671492  SOLV      2408            0.0000000000
      7343      2419  TIP3      H1             23.5936450248       -5.5469493232      -13.3893971492  SOLV      2408            0.0000000000
      7344      2419  TIP3      H2             24.8025050248       -5.1362393232      -14.2029371492  SOLV      2408            0.0000000000
      7345      2420  TIP3      OH2            30.5643250248       -1.4541693232      -13.7174871492  SOLV      2409            0.0000000000
      7346      2420  TIP3      H1             29.7479350248       -0.9571993232      -13.6650571492  SOLV      2409            0.0000000000
      7347      2420  TIP3      H2             31.0939550248       -0.9788193232      -14.3576071492  SOLV      2409            0.0000000000
      7348      2421  TIP3      OH2            27.9026350248       -0.4104493232      -13.7357971492  SOLV      2410            0.0000000000
      7349      2421  TIP3      H1             28.0635050248        0.3893006768      -14.2365371492  SOLV      2410            0.0000000000
      7350      2421  TIP3      H2             27.7054150248       -0.1038493232      -12.8507371492  SOLV      2410            0.0000000000
      7351      2422  TIP3      OH2            26.6370750248      -13.7125293232      -14.1200371492  SOLV      2411            0.0000000000
      7352      2422  TIP3      H1             26.5535550248      -12.8242193232      -13.7733971492  SOLV      2411            0.0000000000
      7353      2422  TIP3      H2             27.5271050248      -13.9778593232      -13.8883571492  SOLV      2411            0.0000000000
      7354      2423  TIP3      OH2            24.8956050248       -3.2853093232      -15.0595871492  SOLV      2412            0.0000000000
      7355      2423  TIP3      H1             25.4877550248       -2.5858293232      -14.7833471492  SOLV      2412            0.0000000000
      7356      2423  TIP3      H2             25.3549050248       -3.7183593232      -15.7791271492  SOLV      2412            0.0000000000
      7357      2424  TIP3      OH2            23.2115250248      -10.6210093232      -15.9436471492  SOLV      2413            0.0000000000
      7358      2424  TIP3      H1             23.1667850248       -9.6816993232      -15.7649471492  SOLV      2413            0.0000000000
      7359      2424  TIP3      H2             22.3238450248      -10.8565193232      -16.2134371492  SOLV      2413            0.0000000000
      7360      2425  TIP3      OH2            24.0197250248      -15.8393493232       -7.2705471492  SOLV      2414            0.0000000000
      7361      2425  TIP3      H1             23.7907050248      -15.7800993232       -8.1980471492  SOLV      2414            0.0000000000
      7362      2425  TIP3      H2             23.5770650248      -16.6307993232       -6.9641371492  SOLV      2414            0.0000000000
      7363      2426  TIP3      OH2            22.9500550248       -1.8986393232      -11.1099671492  SOLV      2415            0.0000000000
      7364      2426  TIP3      H1             22.1179150248       -1.4263693232      -11.0828271492  SOLV      2415            0.0000000000
      7365      2426  TIP3      H2             23.4958850248       -1.3888793232      -11.7086571492  SOLV      2415            0.0000000000
      7366      2427  TIP3      OH2            22.2384250248        0.7137306768        0.2198328508  SOLV      2416            0.0000000000
      7367      2427  TIP3      H1             22.7786450248        0.4971306768        0.9797528508  SOLV      2416            0.0000000000
      7368      2427  TIP3      H2             21.7572250248       -0.0916693232        0.0300828508  SOLV      2416            0.0000000000
      7369      2428  TIP3      OH2            26.8357650248       -0.3668293232        1.8402528508  SOLV      2417            0.0000000000
      7370      2428  TIP3      H1             27.6034850248       -0.8257493232        2.1811728508  SOLV      2417            0.0000000000
      7371      2428  TIP3      H2             26.8143850248       -0.5928493232        0.9103728508  SOLV      2417            0.0000000000
      7372      2429  TIP3      OH2            30.9277250248       -0.8587693232      -16.7845671492  SOLV      2418            0.0000000000
      7373      2429  TIP3      H1             30.2838250248       -1.4899093232      -16.4631971492  SOLV      2418            0.0000000000
      7374      2429  TIP3      H2             31.6895550248       -1.3899693232      -17.0162171492  SOLV      2418            0.0000000000
      7375      2430  TIP3      OH2            33.4126350248       -1.9867193232        0.5694028508  SOLV      2419            0.0000000000
      7376      2430  TIP3      H1             33.0615850248       -2.8434193232        0.8124428508  SOLV      2419            0.0000000000
      7377      2430  TIP3      H2             34.1389550248       -1.8440493232        1.1763028508  SOLV      2419            0.0000000000
      7378      2431  TIP3      OH2            22.1453750248       -5.4758593232        1.1742628508  SOLV      2420            0.0000000000
      7379      2431  TIP3      H1             22.2894250248       -6.3777893232        0.8879328508  SOLV      2420            0.0000000000
      7380      2431  TIP3      H2             21.3731150248       -5.1896493232        0.6864928508  SOLV      2420            0.0000000000
      7381      2432  TIP3      OH2            26.4867450248       -5.1322893232      -16.6932771492  SOLV      2421            0.0000000000
      7382      2432  TIP3      H1             26.5511550248       -5.9263293232      -16.1626371492  SOLV      2421            0.0000000000
      7383      2432  TIP3      H2             27.1396650248       -5.2510093232      -17.3830771492  SOLV      2421            0.0000000000
      7384      2433  TIP3      OH2            28.8009850248       -5.5060493232        0.6069028508  SOLV      2422            0.0000000000
      7385      2433  TIP3      H1             28.4723650248       -5.2352393232       -0.2503571492  SOLV      2422            0.0000000000
      7386      2433  TIP3      H2             28.9528050248       -6.4470693232        0.5194028508  SOLV      2422            0.0000000000
      7387      2434  TIP3      OH2            31.8390850248       -4.0851193232      -16.9574771492  SOLV      2423            0.0000000000
      7388      2434  TIP3      H1             31.5704950248       -3.9049093232      -16.0565871492  SOLV      2423            0.0000000000
      7389      2434  TIP3      H2             31.6326450248       -5.0104993232      -17.0888971492  SOLV      2423            0.0000000000
      7390      2435  TIP3      OH2            22.9780250248       -8.2755293232        0.5941928508  SOLV      2424            0.0000000000
      7391      2435  TIP3      H1             23.3861450248       -9.1328693232        0.4732528508  SOLV      2424            0.0000000000
      7392      2435  TIP3      H2             22.7177850248       -8.2613993232        1.5152228508  SOLV      2424            0.0000000000
      7393      2436  TIP3      OH2            27.6361250248       -7.1596693232      -14.3874771492  SOLV      2425            0.0000000000
      7394      2436  TIP3      H1             27.1763250248       -7.6438393232      -13.7016271492  SOLV      2425            0.0000000000
      7395      2436  TIP3      H2             27.8909950248       -7.8281293232      -15.0234271492  SOLV      2425            0.0000000000
      7396      2437  TIP3      OH2            26.9250550248       -9.2669593232       -2.0315171492  SOLV      2426            0.0000000000
      7397      2437  TIP3      H1             26.3066650248       -8.5922993232       -1.7510471492  SOLV      2426            0.0000000000
      7398      2437  TIP3      H2             27.2691750248       -8.9455693232       -2.8648971492  SOLV      2426            0.0000000000
      7399      2438  TIP3      OH2            28.7071650248       -8.9164893232      -16.1251571492  SOLV      2427            0.0000000000
      7400      2438  TIP3      H1             28.5266650248       -9.0713693232      -17.0523271492  SOLV      2427            0.0000000000
      7401      2438  TIP3      H2             29.6572150248       -8.8086193232      -16.0803671492  SOLV      2427            0.0000000000
      7402      2439  TIP3      OH2            27.2644250248      -11.9118793232       -0.9492071492  SOLV      2428            0.0000000000
      7403      2439  TIP3      H1             27.4145150248      -12.6407493232       -1.5512371492  SOLV      2428            0.0000000000
      7404      2439  TIP3      H2             27.2666650248      -11.1347093232       -1.5079871492  SOLV      2428            0.0000000000
      7405      2440  TIP3      OH2            27.6769950248      -13.5422993232       -3.4564671492  SOLV      2429            0.0000000000
      7406      2440  TIP3      H1             28.2127450248      -13.0906293232       -4.1085371492  SOLV      2429            0.0000000000
      7407      2440  TIP3      H2             26.8249550248      -13.6503193232       -3.8790571492  SOLV      2429            0.0000000000
      7408      2441  TIP3      OH2            29.2588350248       -8.1026793232       -3.2169471492  SOLV      2430            0.0000000000
      7409      2441  TIP3      H1             30.0093150248       -8.2589293232       -3.7901671492  SOLV      2430            0.0000000000
      7410      2441  TIP3      H2             28.9196650248       -7.2510193232       -3.4923971492  SOLV      2430            0.0000000000
      7411      2442  TIP3      OH2            25.7430550248      -10.7135293232        0.9623528508  SOLV      2431            0.0000000000
      7412      2442  TIP3      H1             24.9759550248      -11.2460493232        0.7521128508  SOLV      2431            0.0000000000
      7413      2442  TIP3      H2             26.4219550248      -11.0234893232        0.3629828508  SOLV      2431            0.0000000000
      7414      2443  TIP3      OH2            28.4825450248      -16.0857293232       -3.0251071492  SOLV      2432            0.0000000000
      7415      2443  TIP3      H1             28.3845050248      -15.1394093232       -3.1304871492  SOLV      2432            0.0000000000
      7416      2443  TIP3      H2             27.7401650248      -16.4583493232       -3.5007571492  SOLV      2432            0.0000000000
      7417      2444  TIP3      OH2            29.7465950248      -11.7641893232        0.5387328508  SOLV      2433            0.0000000000
      7418      2444  TIP3      H1             29.5111350248      -11.9835193232        1.4402228508  SOLV      2433            0.0000000000
      7419      2444  TIP3      H2             28.9632850248      -11.9710693232        0.0289828508  SOLV      2433            0.0000000000
      7420      2445  TIP3      OH2            23.9233350248      -12.7931493232        0.6668228508  SOLV      2434            0.0000000000
      7421      2445  TIP3      H1             24.1350750248      -13.4995393232        0.0565728508  SOLV      2434            0.0000000000
      7422      2445  TIP3      H2             23.8120850248      -13.2305493232        1.5109428508  SOLV      2434            0.0000000000
      7423      2446  TIP3      OH2            29.0581050248      -15.1091493232        1.6998028508  SOLV      2435            0.0000000000
      7424      2446  TIP3      H1             28.9263250248      -15.5847693232        0.8796528508  SOLV      2435            0.0000000000
      7425      2446  TIP3      H2             28.4588450248      -14.3647893232        1.6445128508  SOLV      2435            0.0000000000
      7426      2447  TIP3      OH2            28.6043350248        1.7738806768      -15.1237971492  SOLV      2436            0.0000000000
      7427      2447  TIP3      H1             29.5374050248        1.9317506768      -14.9799571492  SOLV      2436            0.0000000000
      7428      2447  TIP3      H2             28.3402150248        2.4491806768      -15.7486471492  SOLV      2436            0.0000000000
      7429      2448  TIP3      OH2            22.1728250248       -3.5897393232      -15.6409871492  SOLV      2437            0.0000000000
      7430      2448  TIP3      H1             23.0867450248       -3.5108493232      -15.3675971492  SOLV      2437            0.0000000000
      7431      2448  TIP3      H2             22.1801350248       -4.2767793232      -16.3074271492  SOLV      2437            0.0000000000
      7432      2449  TIP3      OH2            20.8218850248        1.8031106768      -10.5635971492  SOLV      2438            0.0000000000
      7433      2449  TIP3      H1             20.1745950248        1.3412806768      -11.0964771492  SOLV      2438            0.0000000000
      7434      2449  TIP3      H2             21.1763450248        1.1314406768       -9.9809771492  SOLV      2438            0.0000000000
      7435      2450  TIP3      OH2            21.6918050248       -0.1161893232       -8.7589771492  SOLV      2439            0.0000000000
      7436      2450  TIP3      H1             21.3574850248       -0.9964593232       -8.5869571492  SOLV      2439            0.0000000000
      7437      2450  TIP3      H2             21.9140450248        0.2293106768       -7.8944171492  SOLV      2439            0.0000000000
      7438      2451  TIP3      OH2            21.7717550248       -7.0406493232       -6.3074871492  SOLV      2440            0.0000000000
      7439      2451  TIP3      H1             21.9560450248       -7.1224793232       -7.2431971492  SOLV      2440            0.0000000000
      7440      2451  TIP3      H2             22.6210450248       -7.1649493232       -5.8838471492  SOLV      2440            0.0000000000
      7441      2452  TIP3      OH2            21.3692350248      -11.7701493232       -0.1666071492  SOLV      2441            0.0000000000
      7442      2452  TIP3      H1             22.2887250248      -11.8923193232        0.0697028508  SOLV      2441            0.0000000000
      7443      2452  TIP3      H2             20.9196850248      -12.5201793232        0.2227428508  SOLV      2441            0.0000000000
      7444      2453  TIP3      OH2            22.5904850248      -13.4579893232       -7.2753171492  SOLV      2442            0.0000000000
      7445      2453  TIP3      H1             23.0356450248      -14.2497393232       -6.9733471492  SOLV      2442            0.0000000000
      7446      2453  TIP3      H2             23.0567850248      -12.7414693232       -6.8447571492  SOLV      2442            0.0000000000
      7447      2454  TIP3      OH2            20.8945150248      -10.4586893232       -6.2062971492  SOLV      2443            0.0000000000
      7448      2454  TIP3      H1             21.3864950248      -10.6796393232       -6.9970971492  SOLV      2443            0.0000000000
      7449      2454  TIP3      H2             21.2566050248       -9.6183493232       -5.9253471492  SOLV      2443            0.0000000000
      7450      2455  TIP3      OH2            21.2081650248      -14.2007793232      -12.1520571492  SOLV      2444            0.0000000000
      7451      2455  TIP3      H1             20.2830050248      -13.9921193232      -12.2815071492  SOLV      2444            0.0000000000
      7452      2455  TIP3      H2             21.6621550248      -13.7166993232      -12.8418271492  SOLV      2444            0.0000000000
      7453      2456  TIP3      OH2            21.1717050248      -15.4628793232       -3.8078071492  SOLV      2445            0.0000000000
      7454      2456  TIP3      H1             20.5067550248      -15.7088493232       -3.1647171492  SOLV      2445            0.0000000000
      7455      2456  TIP3      H2             20.7288350248      -14.8408393232       -4.3850071492  SOLV      2445            0.0000000000
      7456      2457  TIP3      OH2            23.3636350248       -2.2874693232        0.3367728508  SOLV      2446            0.0000000000
      7457      2457  TIP3      H1             22.5428850248       -2.1128193232       -0.1237571492  SOLV      2446            0.0000000000
      7458      2457  TIP3      H2             23.1114150248       -2.3609993232        1.2572128508  SOLV      2446            0.0000000000
      7459      2458  TIP3      OH2            26.3179250248       -1.3133493232       -3.4048271492  SOLV      2447            0.0000000000
      7460      2458  TIP3      H1             25.8930350248       -0.5034993232       -3.6873671492  SOLV      2447            0.0000000000
      7461      2458  TIP3      H2             27.2222050248       -1.2279393232       -3.7068471492  SOLV      2447            0.0000000000
      7462      2459  TIP3      OH2            30.6290650248        0.0856506768       -0.4454571492  SOLV      2448            0.0000000000
      7463      2459  TIP3      H1             30.8138150248       -0.2477393232        0.4325728508  SOLV      2448            0.0000000000
      7464      2459  TIP3      H2             31.4755150248        0.3955106768       -0.7675371492  SOLV      2448            0.0000000000
      7465      2460  TIP3      OH2            32.9741050248        1.3715406768       -1.2013171492  SOLV      2449            0.0000000000
      7466      2460  TIP3      H1             33.6509950248        0.7387706768       -1.4413971492  SOLV      2449            0.0000000000
      7467      2460  TIP3      H2             33.2959850248        1.7725906768       -0.3939871492  SOLV      2449            0.0000000000
      7468      2461  TIP3      OH2            23.7195950248        1.9430406768       -3.3572971492  SOLV      2450            0.0000000000
      7469      2461  TIP3      H1             22.9992350248        2.3831406768       -3.8085271492  SOLV      2450            0.0000000000
      7470      2461  TIP3      H2             23.3539950248        1.6925106768       -2.5088971492  SOLV      2450            0.0000000000
      7471      2462  TIP3      OH2            26.1868550248        1.5434306768       -4.3275771492  SOLV      2451            0.0000000000
      7472      2462  TIP3      H1             25.3220750248        1.6152806768       -3.9235671492  SOLV      2451            0.0000000000
      7473      2462  TIP3      H2             26.1317550248        2.0901606768       -5.1113271492  SOLV      2451            0.0000000000
      7474      2463  TIP3      OH2            30.8974150248        1.4313206768       -5.1519771492  SOLV      2452            0.0000000000
      7475      2463  TIP3      H1             30.4408150248        1.9602906768       -5.8061371492  SOLV      2452            0.0000000000
      7476      2463  TIP3      H2             31.0602150248        2.0344606768       -4.4267471492  SOLV      2452            0.0000000000
      7477      2464  TIP3      OH2            33.2250450248        0.3092806768       -4.2069471492  SOLV      2453            0.0000000000
      7478      2464  TIP3      H1             32.3204150248        0.4743006768       -4.4727371492  SOLV      2453            0.0000000000
      7479      2464  TIP3      H2             33.6539050248        1.1625006768       -4.2726071492  SOLV      2453            0.0000000000
      7480      2465  TIP3      OH2            23.1344050248        0.5662906768       -6.4471171492  SOLV      2454            0.0000000000
      7481      2465  TIP3      H1             23.1160050248        0.1408006768       -5.5898871492  SOLV      2454            0.0000000000
      7482      2465  TIP3      H2             23.9391950248        0.2477906768       -6.8558971492  SOLV      2454            0.0000000000
      7483      2466  TIP3      OH2            25.2757150248       -0.7238393232       -7.7921271492  SOLV      2455            0.0000000000
      7484      2466  TIP3      H1             25.0567850248       -1.6400993232       -7.6225271492  SOLV      2455            0.0000000000
      7485      2466  TIP3      H2             26.0999350248       -0.5837993232       -7.3259871492  SOLV      2455            0.0000000000
      7486      2467  TIP3      OH2            27.8129650248       -0.2539093232       -6.9433271492  SOLV      2456            0.0000000000
      7487      2467  TIP3      H1             28.0255350248       -1.1420093232       -7.2302371492  SOLV      2456            0.0000000000
      7488      2467  TIP3      H2             27.8774750248       -0.2881393232       -5.9889271492  SOLV      2456            0.0000000000
      7489      2468  TIP3      OH2            23.6480850248      -15.9558193232       -9.9770071492  SOLV      2457            0.0000000000
      7490      2468  TIP3      H1             22.8710650248      -16.1903293232      -10.4844171492  SOLV      2457            0.0000000000
      7491      2468  TIP3      H2             24.1784450248      -16.7526093232       -9.9682071492  SOLV      2457            0.0000000000
      7492      2469  TIP3      OH2            22.4844250248      -16.1580093232      -14.1733971492  SOLV      2458            0.0000000000
      7493      2469  TIP3      H1             22.9234950248      -15.5469593232      -14.7650471492  SOLV      2458            0.0000000000
      7494      2469  TIP3      H2             21.8506650248      -15.6195993232      -13.6993971492  SOLV      2458            0.0000000000
      7495      2470  TIP3      OH2            28.2273450248      -16.0291093232      -10.1636971492  SOLV      2459            0.0000000000
      7496      2470  TIP3      H1             29.1016850248      -15.6406793232      -10.1932671492  SOLV      2459            0.0000000000
      7497      2470  TIP3      H2             28.0914250248      -16.2443293232       -9.2409771492  SOLV      2459            0.0000000000
      7498      2471  TIP3      OH2            22.3853750248       -0.2097893232      -13.2758871492  SOLV      2460            0.0000000000
      7499      2471  TIP3      H1             21.7003650248       -0.2478993232      -13.9433771492  SOLV      2460            0.0000000000
      7500      2471  TIP3      H2             22.3890950248        0.7029706768      -12.9876771492  SOLV      2460            0.0000000000
      7501      2472  TIP3      OH2            24.3453350248      -14.2418593232      -15.7309871492  SOLV      2461            0.0000000000
      7502      2472  TIP3      H1             24.8366750248      -14.8716193232      -16.2584371492  SOLV      2461            0.0000000000
      7503      2472  TIP3      H2             24.9689650248      -13.9459193232      -15.0678671492  SOLV      2461            0.0000000000
      7504      2473  TIP3      OH2            29.3713450248      -13.9487093232      -13.2739371492  SOLV      2462            0.0000000000
      7505      2473  TIP3      H1             29.5494750248      -14.5953893232      -12.5910771492  SOLV      2462            0.0000000000
      7506      2473  TIP3      H2             29.3179650248      -13.1149393232      -12.8068271492  SOLV      2462            0.0000000000
      7507      2474  TIP3      OH2            31.2497250248        0.9997006768      -14.8782671492  SOLV      2463            0.0000000000
      7508      2474  TIP3      H1             32.1157450248        1.3664406768      -15.0564471492  SOLV      2463            0.0000000000
      7509      2474  TIP3      H2             31.0030050248        0.5605006768      -15.6921871492  SOLV      2463            0.0000000000
      7510      2475  TIP3      OH2            23.6058850248      -15.4416293232       -0.4593871492  SOLV      2464            0.0000000000
      7511      2475  TIP3      H1             23.2397050248      -16.2073693232       -0.0169171492  SOLV      2464            0.0000000000
      7512      2475  TIP3      H2             24.5187350248      -15.4126093232       -0.1728771492  SOLV      2464            0.0000000000
      7513      2476  TIP3      OH2            25.5789650248      -16.0911893232        1.0763228508  SOLV      2465            0.0000000000
      7514      2476  TIP3      H1             26.4773250248      -16.3651693232        0.8916628508  SOLV      2465            0.0000000000
      7515      2476  TIP3      H2             25.1922750248      -16.8335893232        1.5405828508  SOLV      2465            0.0000000000
      7516      2477  TIP3      OH2            24.2034950248        0.7102906768      -16.2506771492  SOLV      2466            0.0000000000
      7517      2477  TIP3      H1             23.9359550248        0.9965806768      -15.3773671492  SOLV      2466            0.0000000000
      7518      2477  TIP3      H2             24.9747550248        0.1642106768      -16.0984271492  SOLV      2466            0.0000000000
      7519      2478  TIP3      OH2           -23.8416549752       12.0564106768      -10.0182571492  SOLV      2467            0.0000000000
      7520      2478  TIP3      H1            -23.7525449752       13.0002306768      -10.1505471492  SOLV      2467            0.0000000000
      7521      2478  TIP3      H2            -24.4798949752       11.7810506768      -10.6763171492  SOLV      2467            0.0000000000
      7522      2479  TIP3      OH2           -24.9085249752       11.3114806768       -6.5994371492  SOLV      2468            0.0000000000
      7523      2479  TIP3      H1            -24.9467749752       10.6651106768       -5.8944771492  SOLV      2468            0.0000000000
      7524      2479  TIP3      H2            -25.2308749752       10.8449206768       -7.3705671492  SOLV      2468            0.0000000000
      7525      2480  TIP3      OH2           -21.2025049752       14.2505206768       -8.2979271492  SOLV      2469            0.0000000000
      7526      2480  TIP3      H1            -21.6432349752       13.5301206768       -7.8473671492  SOLV      2469            0.0000000000
      7527      2480  TIP3      H2            -21.2155349752       14.9712406768       -7.6681571492  SOLV      2469            0.0000000000
      7528      2481  TIP3      OH2           -24.0909549752       19.3546906768       -8.0858871492  SOLV      2470            0.0000000000
      7529      2481  TIP3      H1            -23.4713149752       18.6781606768       -8.3589671492  SOLV      2470            0.0000000000
      7530      2481  TIP3      H2            -24.2992149752       19.1367706768       -7.1773971492  SOLV      2470            0.0000000000
      7531      2482  TIP3      OH2           -26.5190849752       13.7436206768       -6.1933371492  SOLV      2471            0.0000000000
      7532      2482  TIP3      H1            -26.2152949752       13.0577606768       -6.7879271492  SOLV      2471            0.0000000000
      7533      2482  TIP3      H2            -25.7976849752       13.8624906768       -5.5755371492  SOLV      2471            0.0000000000
      7534      2483  TIP3      OH2           -17.8561049752        5.3451506768       -5.3327171492  SOLV      2472            0.0000000000
      7535      2483  TIP3      H1            -17.8068849752        5.9552706768       -4.5968071492  SOLV      2472            0.0000000000
      7536      2483  TIP3      H2            -17.4305949752        5.8062406768       -6.0556071492  SOLV      2472            0.0000000000
      7537      2484  TIP3      OH2           -23.3783849752        8.1378606768       -5.8658571492  SOLV      2473            0.0000000000
      7538      2484  TIP3      H1            -23.2357949752        7.1915606768       -5.8456971492  SOLV      2473            0.0000000000
      7539      2484  TIP3      H2            -23.4844849752        8.3448406768       -6.7943671492  SOLV      2473            0.0000000000
      7540      2485  TIP3      OH2           -30.2235549752        6.2395006768       -8.5933771492  SOLV      2474            0.0000000000
      7541      2485  TIP3      H1            -30.1804449752        7.0993506768       -9.0117471492  SOLV      2474            0.0000000000
      7542      2485  TIP3      H2            -30.6811449752        5.6869706768       -9.2270571492  SOLV      2474            0.0000000000
      7543      2486  TIP3      OH2           -22.5012849752        6.3700606768      -10.1925471492  SOLV      2475            0.0000000000
      7544      2486  TIP3      H1            -21.8548549752        6.0413806768       -9.5677871492  SOLV      2475            0.0000000000
      7545      2486  TIP3      H2            -21.9913449752        6.8879606768      -10.8154071492  SOLV      2475            0.0000000000
      7546      2487  TIP3      OH2           -28.4469549752       10.1862106768       -8.6160871492  SOLV      2476            0.0000000000
      7547      2487  TIP3      H1            -27.8308549752        9.6597506768       -8.1066871492  SOLV      2476            0.0000000000
      7548      2487  TIP3      H2            -29.0330749752        9.5460806768       -9.0197271492  SOLV      2476            0.0000000000
      7549      2488  TIP3      OH2           -17.4646449752        6.8230706768       -3.0967371492  SOLV      2477            0.0000000000
      7550      2488  TIP3      H1            -18.1531849752        7.4811406768       -3.1920771492  SOLV      2477            0.0000000000
      7551      2488  TIP3      H2            -17.4491849752        6.6258606768       -2.1601971492  SOLV      2477            0.0000000000
      7552      2489  TIP3      OH2           -31.4133649752        5.1573406768       -4.5192971492  SOLV      2478            0.0000000000
      7553      2489  TIP3      H1            -31.6321949752        5.6874006768       -5.2856971492  SOLV      2478            0.0000000000
      7554      2489  TIP3      H2            -32.0812749752        5.3838906768       -3.8721571492  SOLV      2478            0.0000000000
      7555      2490  TIP3      OH2           -24.0443849752       14.6574506768      -10.9753871492  SOLV      2479            0.0000000000
      7556      2490  TIP3      H1            -24.3398749752       14.3346806768      -11.8266971492  SOLV      2479            0.0000000000
      7557      2490  TIP3      H2            -24.3686049752       15.5571206768      -10.9341271492  SOLV      2479            0.0000000000
      7558      2491  TIP3      OH2           -28.8442249752       12.8329106768       -4.2319271492  SOLV      2480            0.0000000000
      7559      2491  TIP3      H1            -29.5843149752       13.4310606768       -4.1284071492  SOLV      2480            0.0000000000
      7560      2491  TIP3      H2            -28.1302749752       13.3868706768       -4.5475671492  SOLV      2480            0.0000000000
      7561      2492  TIP3      OH2           -20.7374449752        5.6609906768       -8.2119571492  SOLV      2481            0.0000000000
      7562      2492  TIP3      H1            -20.9526449752        4.8953306768       -7.6793571492  SOLV      2481            0.0000000000
      7563      2492  TIP3      H2            -20.0817049752        6.1334506768       -7.6991071492  SOLV      2481            0.0000000000
      7564      2493  TIP3      OH2           -31.8196349752        7.0495206768       -6.5670771492  SOLV      2482            0.0000000000
      7565      2493  TIP3      H1            -31.2060049752        7.6822806768       -6.1938371492  SOLV      2482            0.0000000000
      7566      2493  TIP3      H2            -31.3075649752        6.5770206768       -7.2233871492  SOLV      2482            0.0000000000
      7567      2494  TIP3      OH2           -20.6907349752       16.0895906768       -5.9499971492  SOLV      2483            0.0000000000
      7568      2494  TIP3      H1            -21.6323649752       16.1479806768       -5.7883071492  SOLV      2483            0.0000000000
      7569      2494  TIP3      H2            -20.4141249752       16.9956406768       -6.0870271492  SOLV      2483            0.0000000000
      7570      2495  TIP3      OH2           -20.3900349752        4.3761206768       -4.5326071492  SOLV      2484            0.0000000000
      7571      2495  TIP3      H1            -21.1261149752        4.9868306768       -4.5704771492  SOLV      2484            0.0000000000
      7572      2495  TIP3      H2            -19.7066349752        4.7910206768       -5.0589671492  SOLV      2484            0.0000000000
      7573      2496  TIP3      OH2           -27.3868949752        2.4628506768       -7.0668071492  SOLV      2485            0.0000000000
      7574      2496  TIP3      H1            -27.5044749752        1.5144506768       -7.1209771492  SOLV      2485            0.0000000000
      7575      2496  TIP3      H2            -28.2418849752        2.7954606768       -6.7936971492  SOLV      2485            0.0000000000
      7576      2497  TIP3      OH2           -22.4386149752       17.8709406768       -9.3248371492  SOLV      2486            0.0000000000
      7577      2497  TIP3      H1            -22.0133849752       17.1637306768       -9.8098771492  SOLV      2486            0.0000000000
      7578      2497  TIP3      H2            -22.1216149752       18.6722106768       -9.7416171492  SOLV      2486            0.0000000000
      7579      2498  TIP3      OH2           -21.2789649752       15.7717906768      -10.8161771492  SOLV      2487            0.0000000000
      7580      2498  TIP3      H1            -21.5364849752       15.0818006768      -11.4275871492  SOLV      2487            0.0000000000
      7581      2498  TIP3      H2            -21.2078849752       15.3289106768       -9.9705871492  SOLV      2487            0.0000000000
      7582      2499  TIP3      OH2           -19.5929449752       14.3384606768       -2.3388271492  SOLV      2488            0.0000000000
      7583      2499  TIP3      H1            -19.4533149752       13.7467106768       -3.0781271492  SOLV      2488            0.0000000000
      7584      2499  TIP3      H2            -19.4256649752       15.2110506768       -2.6949471492  SOLV      2488            0.0000000000
      7585      2500  TIP3      OH2           -25.1204049752       11.3004106768      -12.5662271492  SOLV      2489            0.0000000000
      7586      2500  TIP3      H1            -25.8318549752       11.8353806768      -12.9181771492  SOLV      2489            0.0000000000
      7587      2500  TIP3      H2            -24.4294449752       11.3556206768      -13.2263371492  SOLV      2489            0.0000000000
      7588      2501  TIP3      OH2           -25.0664849752        9.7578406768      -15.5277271492  SOLV      2490            0.0000000000
      7589      2501  TIP3      H1            -24.3654949752        9.7805306768      -14.8763271492  SOLV      2490            0.0000000000
      7590      2501  TIP3      H2            -24.7641949752        9.1298106768      -16.1837971492  SOLV      2490            0.0000000000
      7591      2502  TIP3      OH2           -17.7510149752       10.6782606768       -4.2727871492  SOLV      2491            0.0000000000
      7592      2502  TIP3      H1            -18.4036049752       11.3728206768       -4.1836971492  SOLV      2491            0.0000000000
      7593      2502  TIP3      H2            -17.2859849752       10.8883506768       -5.0826271492  SOLV      2491            0.0000000000
      7594      2503  TIP3      OH2           -21.7146349752       11.5097406768      -11.6146371492  SOLV      2492            0.0000000000
      7595      2503  TIP3      H1            -22.4465349752       11.7381106768      -11.0415771492  SOLV      2492            0.0000000000
      7596      2503  TIP3      H2            -21.2674149752       10.7960106768      -11.1598871492  SOLV      2492            0.0000000000
      7597      2504  TIP3      OH2           -21.8172849752        9.6840006768       -2.5469371492  SOLV      2493            0.0000000000
      7598      2504  TIP3      H1            -21.7373749752       10.4474406768       -1.9750871492  SOLV      2493            0.0000000000
      7599      2504  TIP3      H2            -22.4185149752        9.9632406768       -3.2374271492  SOLV      2493            0.0000000000
      7600      2505  TIP3      OH2           -30.0692649752       12.1403606768       -9.7321371492  SOLV      2494            0.0000000000
      7601      2505  TIP3      H1            -30.3997449752       11.7697006768      -10.5504371492  SOLV      2494            0.0000000000
      7602      2505  TIP3      H2            -29.4808549752       11.4697606768       -9.3853071492  SOLV      2494            0.0000000000
      7603      2506  TIP3      OH2           -28.7025149752       15.5684206768       -7.0509171492  SOLV      2495            0.0000000000
      7604      2506  TIP3      H1            -28.7973849752       14.9897306768       -7.8074571492  SOLV      2495            0.0000000000
      7605      2506  TIP3      H2            -27.9731549752       15.1969906768       -6.5546371492  SOLV      2495            0.0000000000
      7606      2507  TIP3      OH2           -29.7027149752       10.9089206768       -6.0986371492  SOLV      2496            0.0000000000
      7607      2507  TIP3      H1            -29.1374649752       11.0303406768       -6.8615171492  SOLV      2496            0.0000000000
      7608      2507  TIP3      H2            -29.3838249752       11.5464206768       -5.4597871492  SOLV      2496            0.0000000000
      7609      2508  TIP3      OH2           -23.3934949752       16.4121106768       -5.3645871492  SOLV      2497            0.0000000000
      7610      2508  TIP3      H1            -23.6338349752       17.0744206768       -4.7166671492  SOLV      2497            0.0000000000
      7611      2508  TIP3      H2            -23.5916749752       15.5776306768       -4.9396271492  SOLV      2497            0.0000000000
      7612      2509  TIP3      OH2           -22.8436849752       10.6720306768      -13.9295171492  SOLV      2498            0.0000000000
      7613      2509  TIP3      H1            -22.2641349752       10.8220606768      -13.1826271492  SOLV      2498            0.0000000000
      7614      2509  TIP3      H2            -22.4296849752       11.1427706768      -14.6528771492  SOLV      2498            0.0000000000
      7615      2510  TIP3      OH2           -25.1171949752       17.4088806768      -10.4942071492  SOLV      2499            0.0000000000
      7616      2510  TIP3      H1            -24.6434349752       17.7045106768       -9.7167871492  SOLV      2499            0.0000000000
      7617      2510  TIP3      H2            -25.6802649752       18.1470406768      -10.7272471492  SOLV      2499            0.0000000000
      7618      2511  TIP3      OH2           -19.1448449752        2.4220706768      -14.1165471492  SOLV      2500            0.0000000000
      7619      2511  TIP3      H1            -20.0447749752        2.5609706768      -13.8214871492  SOLV      2500            0.0000000000
      7620      2511  TIP3      H2            -18.8930049752        3.2535306768      -14.5183771492  SOLV      2500            0.0000000000
      7621      2512  TIP3      OH2           -17.9557049752       16.7883106768      -15.7401571492  SOLV      2501            0.0000000000
      7622      2512  TIP3      H1            -17.8823549752       17.7273306768      -15.5696271492  SOLV      2501            0.0000000000
      7623      2512  TIP3      H2            -17.0501949752       16.4831706768      -15.7964271492  SOLV      2501            0.0000000000
      7624      2513  TIP3      OH2           -17.0378649752       17.0190606768       -0.7614871492  SOLV      2502            0.0000000000
      7625      2513  TIP3      H1            -17.0871849752       16.0638706768       -0.7987271492  SOLV      2502            0.0000000000
      7626      2513  TIP3      H2            -17.8646349752       17.2865906768       -0.3601071492  SOLV      2502            0.0000000000
      7627      2514  TIP3      OH2           -26.0594649752       16.5929806768       -1.8853471492  SOLV      2503            0.0000000000
      7628      2514  TIP3      H1            -25.9720049752       17.4194406768       -1.4104371492  SOLV      2503            0.0000000000
      7629      2514  TIP3      H2            -26.9229549752       16.2633606768       -1.6364171492  SOLV      2503            0.0000000000
      7630      2515  TIP3      OH2           -25.6448849752       20.3653506768      -12.0792871492  SOLV      2504            0.0000000000
      7631      2515  TIP3      H1            -25.7202849752       20.2440706768      -13.0257671492  SOLV      2504            0.0000000000
      7632      2515  TIP3      H2            -25.6120149752       21.3146206768      -11.9608271492  SOLV      2504            0.0000000000
      7633      2516  TIP3      OH2           -22.5432849752       19.5193706768      -15.0770471492  SOLV      2505            0.0000000000
      7634      2516  TIP3      H1            -22.1684449752       18.7749806768      -15.5477871492  SOLV      2505            0.0000000000
      7635      2516  TIP3      H2            -22.5389149752       19.2494306768      -14.1587171492  SOLV      2505            0.0000000000
      7636      2517  TIP3      OH2           -22.8744749752       19.4450806768      -12.3278271492  SOLV      2506            0.0000000000
      7637      2517  TIP3      H1            -23.8094949752       19.5452706768      -12.1491271492  SOLV      2506            0.0000000000
      7638      2517  TIP3      H2            -22.5942849752       18.7356806768      -11.7495071492  SOLV      2506            0.0000000000
      7639      2518  TIP3      OH2           -19.8858849752        8.5123106768       -0.2812671492  SOLV      2507            0.0000000000
      7640      2518  TIP3      H1            -20.2932049752        8.9928706768       -1.0019371492  SOLV      2507            0.0000000000
      7641      2518  TIP3      H2            -19.8453149752        7.6069106768       -0.5891871492  SOLV      2507            0.0000000000
      7642      2519  TIP3      OH2           -30.1181349752        3.3663006768       -6.2891771492  SOLV      2508            0.0000000000
      7643      2519  TIP3      H1            -30.9797649752        3.2791206768       -6.6968871492  SOLV      2508            0.0000000000
      7644      2519  TIP3      H2            -30.1405649752        4.2223106768       -5.8614171492  SOLV      2508            0.0000000000
      7645      2520  TIP3      OH2           -25.4553549752        3.0883406768       -2.9144771492  SOLV      2509            0.0000000000
      7646      2520  TIP3      H1            -25.0350449752        2.6730506768       -2.1614171492  SOLV      2509            0.0000000000
      7647      2520  TIP3      H2            -26.3883949752        2.9096706768       -2.7972771492  SOLV      2509            0.0000000000
      7648      2521  TIP3      OH2           -22.1288649752        6.8438606768       -2.0610271492  SOLV      2510            0.0000000000
      7649      2521  TIP3      H1            -22.6429149752        6.7180806768       -1.2634271492  SOLV      2510            0.0000000000
      7650      2521  TIP3      H2            -22.2843949752        7.7561706768       -2.3054071492  SOLV      2510            0.0000000000
      7651      2522  TIP3      OH2           -21.3663749752       11.7048606768      -16.2997271492  SOLV      2511            0.0000000000
      7652      2522  TIP3      H1            -21.3242949752       11.4822506768      -17.2297271492  SOLV      2511            0.0000000000
      7653      2522  TIP3      H2            -20.5171649752       12.1035706768      -16.1097371492  SOLV      2511            0.0000000000
      7654      2523  TIP3      OH2           -25.7936249752        5.5806806768      -15.6293971492  SOLV      2512            0.0000000000
      7655      2523  TIP3      H1            -26.0471449752        5.5998406768      -14.7065871492  SOLV      2512            0.0000000000
      7656      2523  TIP3      H2            -26.0504149752        4.7092206768      -15.9307771492  SOLV      2512            0.0000000000
      7657      2524  TIP3      OH2           -30.0271249752        8.3317506768       -5.1941571492  SOLV      2513            0.0000000000
      7658      2524  TIP3      H1            -30.6689149752        8.2914806768       -4.4851471492  SOLV      2513            0.0000000000
      7659      2524  TIP3      H2            -29.9899249752        9.2582206768       -5.4318571492  SOLV      2513            0.0000000000
      7660      2525  TIP3      OH2           -30.0302149752        8.5527606768      -10.2821571492  SOLV      2514            0.0000000000
      7661      2525  TIP3      H1            -30.9229249752        8.2123706768      -10.3407771492  SOLV      2514            0.0000000000
      7662      2525  TIP3      H2            -29.5795549752        8.1758506768      -11.0378371492  SOLV      2514            0.0000000000
      7663      2526  TIP3      OH2           -24.4946649752        8.9687906768      -11.4650771492  SOLV      2515            0.0000000000
      7664      2526  TIP3      H1            -24.9036349752        9.7836506768      -11.7565971492  SOLV      2515            0.0000000000
      7665      2526  TIP3      H2            -23.7740449752        8.8288006768      -12.0793671492  SOLV      2515            0.0000000000
      7666      2527  TIP3      OH2           -25.3925049752        9.1444306768        0.0229928508  SOLV      2516            0.0000000000
      7667      2527  TIP3      H1            -25.9551249752        8.4395906768        0.3437728508  SOLV      2516            0.0000000000
      7668      2527  TIP3      H2            -24.5661649752        9.0236206768        0.4907528508  SOLV      2516            0.0000000000
      7669      2528  TIP3      OH2           -23.4898949752        8.4148306768       -8.6511071492  SOLV      2517            0.0000000000
      7670      2528  TIP3      H1            -23.6854449752        9.0205106768       -9.3660471492  SOLV      2517            0.0000000000
      7671      2528  TIP3      H2            -23.3086349752        7.5813506768       -9.0854771492  SOLV      2517            0.0000000000
      7672      2529  TIP3      OH2           -28.9113349752        6.0263306768      -16.5283571492  SOLV      2518            0.0000000000
      7673      2529  TIP3      H1            -29.3422649752        5.5813406768      -15.7986171492  SOLV      2518            0.0000000000
      7674      2529  TIP3      H2            -29.6294649752        6.3979606768      -17.0406071492  SOLV      2518            0.0000000000
      7675      2530  TIP3      OH2           -24.2259749752       10.0529606768       -3.9798671492  SOLV      2519            0.0000000000
      7676      2530  TIP3      H1            -23.9024949752        9.4219306768       -4.6228171492  SOLV      2519            0.0000000000
      7677      2530  TIP3      H2            -24.6660449752        9.5181806768       -3.3191271492  SOLV      2519            0.0000000000
      7678      2531  TIP3      OH2           -27.4486849752        5.9805106768       -9.1957471492  SOLV      2520            0.0000000000
      7679      2531  TIP3      H1            -28.3595749752        6.0371906768       -8.9071471492  SOLV      2520            0.0000000000
      7680      2531  TIP3      H2            -26.9433949752        5.9200606768       -8.3850271492  SOLV      2520            0.0000000000
      7681      2532  TIP3      OH2           -28.9671649752        7.6094006768      -12.7125271492  SOLV      2521            0.0000000000
      7682      2532  TIP3      H1            -28.0356149752        7.7384006768      -12.5342171492  SOLV      2521            0.0000000000
      7683      2532  TIP3      H2            -29.1821349752        8.2788306768      -13.3620571492  SOLV      2521            0.0000000000
      7684      2533  TIP3      OH2           -23.0434949752        5.2151406768       -5.9315671492  SOLV      2522            0.0000000000
      7685      2533  TIP3      H1            -23.7203349752        5.3464506768       -5.2675971492  SOLV      2522            0.0000000000
      7686      2533  TIP3      H2            -23.5290049752        5.0600906768       -6.7417971492  SOLV      2522            0.0000000000
      7687      2534  TIP3      OH2           -30.2931449752        8.8036206768      -15.1459171492  SOLV      2523            0.0000000000
      7688      2534  TIP3      H1            -30.8356349752        8.4240006768      -15.8371571492  SOLV      2523            0.0000000000
      7689      2534  TIP3      H2            -29.4596549752        8.9980906768      -15.5745071492  SOLV      2523            0.0000000000
      7690      2535  TIP3      OH2           -19.7559849752       20.8866806768        0.3451928508  SOLV      2524            0.0000000000
      7691      2535  TIP3      H1            -19.5561149752       21.3108706768       -0.4892771492  SOLV      2524            0.0000000000
      7692      2535  TIP3      H2            -19.1006149752       21.2305006768        0.9522328508  SOLV      2524            0.0000000000
      7693      2536  TIP3      OH2           -26.1287149752        8.7678106768       -7.3087871492  SOLV      2525            0.0000000000
      7694      2536  TIP3      H1            -25.5643749752        8.2214706768       -7.8558271492  SOLV      2525            0.0000000000
      7695      2536  TIP3      H2            -26.2763749752        8.2460006768       -6.5200271492  SOLV      2525            0.0000000000
      7696      2537  TIP3      OH2           -31.1267449752        4.9044206768      -10.8903071492  SOLV      2526            0.0000000000
      7697      2537  TIP3      H1            -31.4437949752        4.0019506768      -10.9257671492  SOLV      2526            0.0000000000
      7698      2537  TIP3      H2            -30.3453349752        4.9061606768      -11.4431471492  SOLV      2526            0.0000000000
      7699      2538  TIP3      OH2           -27.5021249752        7.1564206768       -4.8947471492  SOLV      2527            0.0000000000
      7700      2538  TIP3      H1            -28.3375949752        7.6103706768       -4.7845071492  SOLV      2527            0.0000000000
      7701      2538  TIP3      H2            -26.9780649752        7.4322706768       -4.1427571492  SOLV      2527            0.0000000000
      7702      2539  TIP3      OH2           -26.9578649752       13.3691906768      -13.2101071492  SOLV      2528            0.0000000000
      7703      2539  TIP3      H1            -27.7027649752       12.8617206768      -13.5323171492  SOLV      2528            0.0000000000
      7704      2539  TIP3      H2            -27.0921449752       13.4179906768      -12.2636271492  SOLV      2528            0.0000000000
      7705      2540  TIP3      OH2           -19.8079749752       12.5020106768       -4.4233471492  SOLV      2529            0.0000000000
      7706      2540  TIP3      H1            -19.1660949752       12.9586406768       -4.9671271492  SOLV      2529            0.0000000000
      7707      2540  TIP3      H2            -20.6382849752       12.6152506768       -4.8859371492  SOLV      2529            0.0000000000
      7708      2541  TIP3      OH2           -23.0601849752        6.1831806768      -15.0108471492  SOLV      2530            0.0000000000
      7709      2541  TIP3      H1            -23.9987649752        6.2947406768      -15.1619671492  SOLV      2530            0.0000000000
      7710      2541  TIP3      H2            -22.7629749752        7.0398706768      -14.7042771492  SOLV      2530            0.0000000000
      7711      2542  TIP3      OH2           -25.4386549752       13.5535206768       -1.9731971492  SOLV      2531            0.0000000000
      7712      2542  TIP3      H1            -25.7840449752       13.1717606768       -1.1662371492  SOLV      2531            0.0000000000
      7713      2542  TIP3      H2            -25.6386449752       14.4868806768       -1.9019071492  SOLV      2531            0.0000000000
      7714      2543  TIP3      OH2           -22.3418349752        8.0504506768      -13.3501071492  SOLV      2532            0.0000000000
      7715      2543  TIP3      H1            -21.4499349752        7.9129506768      -13.0309871492  SOLV      2532            0.0000000000
      7716      2543  TIP3      H2            -22.2854749752        8.8410606768      -13.8867571492  SOLV      2532            0.0000000000
      7717      2544  TIP3      OH2           -24.8324549752       14.8276206768      -14.1846471492  SOLV      2533            0.0000000000
      7718      2544  TIP3      H1            -25.1276149752       15.6544106768      -13.8031671492  SOLV      2533            0.0000000000
      7719      2544  TIP3      H2            -25.5354549752       14.2083106768      -13.9885071492  SOLV      2533            0.0000000000
      7720      2545  TIP3      OH2           -27.8085749752       10.6418706768        0.0875028508  SOLV      2534            0.0000000000
      7721      2545  TIP3      H1            -28.1044949752       10.4761706768       -0.8075871492  SOLV      2534            0.0000000000
      7722      2545  TIP3      H2            -26.8770549752       10.4219006768        0.0768928508  SOLV      2534            0.0000000000
      7723      2546  TIP3      OH2           -23.1882949752       16.0150706768       -2.0226971492  SOLV      2535            0.0000000000
      7724      2546  TIP3      H1            -24.0888649752       16.1983306768       -2.2903071492  SOLV      2535            0.0000000000
      7725      2546  TIP3      H2            -23.1541849752       16.2740006768       -1.1018171492  SOLV      2535            0.0000000000
      7726      2547  TIP3      OH2           -17.4569649752        8.2598606768      -13.6554371492  SOLV      2536            0.0000000000
      7727      2547  TIP3      H1            -18.0113349752        7.8636606768      -14.3276871492  SOLV      2536            0.0000000000
      7728      2547  TIP3      H2            -17.3566049752        9.1703806768      -13.9331071492  SOLV      2536            0.0000000000
      7729      2548  TIP3      OH2           -17.4937649752       14.0600306768       -0.8182871492  SOLV      2537            0.0000000000
      7730      2548  TIP3      H1            -18.3449149752       14.2984106768       -1.1856471492  SOLV      2537            0.0000000000
      7731      2548  TIP3      H2            -16.9034249752       14.0433506768       -1.5715771492  SOLV      2537            0.0000000000
      7732      2549  TIP3      OH2           -19.1617949752       17.0459006768      -13.1902271492  SOLV      2538            0.0000000000
      7733      2549  TIP3      H1            -19.5346849752       16.2202806768      -12.8811671492  SOLV      2538            0.0000000000
      7734      2549  TIP3      H2            -18.8844449752       16.8628406768      -14.0878871492  SOLV      2538            0.0000000000
      7735      2550  TIP3      OH2           -22.0014049752       11.8538506768       -6.1690371492  SOLV      2539            0.0000000000
      7736      2550  TIP3      H1            -22.9297149752       11.6220406768       -6.1961071492  SOLV      2539            0.0000000000
      7737      2550  TIP3      H2            -21.5502949752       11.0768306768       -6.4991571492  SOLV      2539            0.0000000000
      7738      2551  TIP3      OH2           -28.0308649752       13.8450006768      -10.4597371492  SOLV      2540            0.0000000000
      7739      2551  TIP3      H1            -28.2718649752       14.7704406768      -10.4182071492  SOLV      2540            0.0000000000
      7740      2551  TIP3      H2            -28.7715049752       13.3861306768      -10.0633471492  SOLV      2540            0.0000000000
      7741      2552  TIP3      OH2           -27.5162049752       17.9943606768       -4.1446271492  SOLV      2541            0.0000000000
      7742      2552  TIP3      H1            -27.1537349752       18.8489206768       -4.3781871492  SOLV      2541            0.0000000000
      7743      2552  TIP3      H2            -26.9846849752       17.7025206768       -3.4039971492  SOLV      2541            0.0000000000
      7744      2553  TIP3      OH2           -23.9721249752       14.0934306768       -4.4440671492  SOLV      2542            0.0000000000
      7745      2553  TIP3      H1            -24.3979949752       13.8656006768       -3.6176671492  SOLV      2542            0.0000000000
      7746      2553  TIP3      H2            -23.3915449752       13.3546106768       -4.6265371492  SOLV      2542            0.0000000000
      7747      2554  TIP3      OH2           -21.7692349752       15.0224806768      -15.3701671492  SOLV      2543            0.0000000000
      7748      2554  TIP3      H1            -21.4159249752       14.6424606768      -14.5658171492  SOLV      2543            0.0000000000
      7749      2554  TIP3      H2            -22.7178849752       14.9289606768      -15.2832371492  SOLV      2543            0.0000000000
      7750      2555  TIP3      OH2           -21.3137049752       18.6453806768       -1.9745871492  SOLV      2544            0.0000000000
      7751      2555  TIP3      H1            -21.9153849752       18.0896706768       -2.4699571492  SOLV      2544            0.0000000000
      7752      2555  TIP3      H2            -21.0323349752       19.3123606768       -2.6008471492  SOLV      2544            0.0000000000
      7753      2556  TIP3      OH2           -17.2657949752       19.5017306768      -15.1691471492  SOLV      2545            0.0000000000
      7754      2556  TIP3      H1            -16.5220049752       20.0877806768      -15.3089871492  SOLV      2545            0.0000000000
      7755      2556  TIP3      H2            -17.9599849752       20.0703106768      -14.8359071492  SOLV      2545            0.0000000000
      7756      2557  TIP3      OH2           -20.9033049752       13.6946806768      -13.1433771492  SOLV      2546            0.0000000000
      7757      2557  TIP3      H1            -21.1805449752       12.9666106768      -12.5872671492  SOLV      2546            0.0000000000
      7758      2557  TIP3      H2            -19.9760049752       13.8138806768      -12.9381171492  SOLV      2546            0.0000000000
      7759      2558  TIP3      OH2           -27.6784549752       16.1340906768      -16.9231671492  SOLV      2547            0.0000000000
      7760      2558  TIP3      H1            -27.4394749752       15.3859006768      -17.4702771492  SOLV      2547            0.0000000000
      7761      2558  TIP3      H2            -27.9473249752       15.7462606768      -16.0903871492  SOLV      2547            0.0000000000
      7762      2559  TIP3      OH2           -28.7413949752       15.7044706768      -14.4669071492  SOLV      2548            0.0000000000
      7763      2559  TIP3      H1            -28.5945949752       15.1844506768      -13.6768171492  SOLV      2548            0.0000000000
      7764      2559  TIP3      H2            -28.7442249752       16.6112306768      -14.1603171492  SOLV      2548            0.0000000000
      7765      2560  TIP3      OH2           -24.4567749752        5.6191806768       -3.6774671492  SOLV      2549            0.0000000000
      7766      2560  TIP3      H1            -23.7579849752        5.6930506768       -3.0274971492  SOLV      2549            0.0000000000
      7767      2560  TIP3      H2            -24.8376349752        4.7546806768       -3.5231771492  SOLV      2549            0.0000000000
      7768      2561  TIP3      OH2           -23.6722849752        5.2713506768      -12.5802371492  SOLV      2550            0.0000000000
      7769      2561  TIP3      H1            -23.4524549752        5.7428906768      -13.3836971492  SOLV      2550            0.0000000000
      7770      2561  TIP3      H2            -23.1138849752        5.6656106768      -11.9101771492  SOLV      2550            0.0000000000
      7771      2562  TIP3      OH2           -26.0036749752       17.4018306768      -13.7174871492  SOLV      2551            0.0000000000
      7772      2562  TIP3      H1            -26.8200649752       17.8988006768      -13.6650571492  SOLV      2551            0.0000000000
      7773      2562  TIP3      H2            -25.4740449752       17.8771806768      -14.3576071492  SOLV      2551            0.0000000000
      7774      2563  TIP3      OH2           -26.4722949752        6.9992306768      -11.7453971492  SOLV      2552            0.0000000000
      7775      2563  TIP3      H1            -25.6600349752        7.5035506768      -11.6992271492  SOLV      2552            0.0000000000
      7776      2563  TIP3      H2            -26.7169949752        6.8542006768      -10.8314371492  SOLV      2552            0.0000000000
      7777      2564  TIP3      OH2           -25.9366549752        7.9855006768       -2.5607371492  SOLV      2553            0.0000000000
      7778      2564  TIP3      H1            -25.8176249752        8.5590406768       -1.8036971492  SOLV      2553            0.0000000000
      7779      2564  TIP3      H2            -25.2811949752        7.2974406768       -2.4459571492  SOLV      2553            0.0000000000
      7780      2565  TIP3      OH2           -25.5886249752        4.0805306768      -10.8072871492  SOLV      2554            0.0000000000
      7781      2565  TIP3      H1            -25.9352749752        4.6975906768      -10.1628571492  SOLV      2554            0.0000000000
      7782      2565  TIP3      H2            -24.9299349752        4.5811006768      -11.2887371492  SOLV      2554            0.0000000000
      7783      2566  TIP3      OH2           -29.9309249752        5.1434706768      -14.1200371492  SOLV      2555            0.0000000000
      7784      2566  TIP3      H1            -30.0144449752        6.0317806768      -13.7733971492  SOLV      2555            0.0000000000
      7785      2566  TIP3      H2            -29.0408949752        4.8781406768      -13.8883571492  SOLV      2555            0.0000000000
      7786      2567  TIP3      OH2           -19.7320749752        5.8925306768       -1.7257671492  SOLV      2556            0.0000000000
      7787      2567  TIP3      H1            -20.6484949752        6.1547006768       -1.8133971492  SOLV      2556            0.0000000000
      7788      2567  TIP3      H2            -19.3965749752        5.8894306768       -2.6222371492  SOLV      2556            0.0000000000
      7789      2568  TIP3      OH2           -21.1299749752        9.6426306768       -7.6300371492  SOLV      2557            0.0000000000
      7790      2568  TIP3      H1            -21.9275349752        9.2276506768       -7.9585371492  SOLV      2557            0.0000000000
      7791      2568  TIP3      H2            -20.6848649752        8.9520006768       -7.1389871492  SOLV      2557            0.0000000000
      7792      2569  TIP3      OH2           -20.0435149752       18.8988806768       -6.0076871492  SOLV      2558            0.0000000000
      7793      2569  TIP3      H1            -20.1990849752       19.5773206768       -6.6647571492  SOLV      2558            0.0000000000
      7794      2569  TIP3      H2            -19.1108749752       18.9708106768       -5.8046271492  SOLV      2558            0.0000000000
      7795      2570  TIP3      OH2           -32.5482749752        3.0166506768       -7.2705471492  SOLV      2559            0.0000000000
      7796      2570  TIP3      H1            -32.7772949752        3.0759006768       -8.1980471492  SOLV      2559            0.0000000000
      7797      2570  TIP3      H2            -32.9909349752        2.2252006768       -6.9641371492  SOLV      2559            0.0000000000
      7798      2571  TIP3      OH2           -25.6402749752       17.9972306768      -16.7845671492  SOLV      2560            0.0000000000
      7799      2571  TIP3      H1            -26.2841749752       17.3660906768      -16.4631971492  SOLV      2560            0.0000000000
      7800      2571  TIP3      H2            -24.8784449752       17.4660306768      -17.0162171492  SOLV      2560            0.0000000000
      7801      2572  TIP3      OH2           -23.1553649752       16.8692806768        0.5694028508  SOLV      2561            0.0000000000
      7802      2572  TIP3      H1            -23.5064149752       16.0125806768        0.8124428508  SOLV      2561            0.0000000000
      7803      2572  TIP3      H2            -22.4290449752       17.0119506768        1.1763028508  SOLV      2561            0.0000000000
      7804      2573  TIP3      OH2           -21.0359849752       17.8142206768      -16.5507671492  SOLV      2562            0.0000000000
      7805      2573  TIP3      H1            -20.7529449752       17.0197406768      -16.0980771492  SOLV      2562            0.0000000000
      7806      2573  TIP3      H2            -20.2961949752       18.0473206768      -17.1116571492  SOLV      2562            0.0000000000
      7807      2574  TIP3      OH2           -27.7670149752       13.3499506768        0.6069028508  SOLV      2563            0.0000000000
      7808      2574  TIP3      H1            -28.0956349752       13.6207606768       -0.2503571492  SOLV      2563            0.0000000000
      7809      2574  TIP3      H2            -27.6151949752       12.4089306768        0.5194028508  SOLV      2563            0.0000000000
      7810      2575  TIP3      OH2           -24.7289149752       14.7708806768      -16.9574771492  SOLV      2564            0.0000000000
      7811      2575  TIP3      H1            -24.9975049752       14.9510906768      -16.0565871492  SOLV      2564            0.0000000000
      7812      2575  TIP3      H2            -24.9353549752       13.8455006768      -17.0888971492  SOLV      2564            0.0000000000
      7813      2576  TIP3      OH2           -22.0324949752       13.2656806768       -2.0098671492  SOLV      2565            0.0000000000
      7814      2576  TIP3      H1            -21.2870149752       13.8540506768       -2.1294671492  SOLV      2565            0.0000000000
      7815      2576  TIP3      H2            -22.7898149752       13.8476506768       -1.9465571492  SOLV      2565            0.0000000000
      7816      2577  TIP3      OH2           -28.9318749752       11.6963306768      -14.3874771492  SOLV      2566            0.0000000000
      7817      2577  TIP3      H1            -29.3916749752       11.2121606768      -13.7016271492  SOLV      2566            0.0000000000
      7818      2577  TIP3      H2            -28.6770049752       11.0278706768      -15.0234271492  SOLV      2566            0.0000000000
      7819      2578  TIP3      OH2           -29.6429449752        9.5890406768       -2.0315171492  SOLV      2567            0.0000000000
      7820      2578  TIP3      H1            -30.2613349752       10.2637006768       -1.7510471492  SOLV      2567            0.0000000000
      7821      2578  TIP3      H2            -29.2988249752        9.9104306768       -2.8648971492  SOLV      2567            0.0000000000
      7822      2579  TIP3      OH2           -27.8608349752        9.9395106768      -16.1251571492  SOLV      2568            0.0000000000
      7823      2579  TIP3      H1            -28.0413349752        9.7846306768      -17.0523271492  SOLV      2568            0.0000000000
      7824      2579  TIP3      H2            -26.9107849752       10.0473806768      -16.0803671492  SOLV      2568            0.0000000000
      7825      2580  TIP3      OH2           -24.6231249752       12.0605706768        1.2459628508  SOLV      2569            0.0000000000
      7826      2580  TIP3      H1            -23.6700049752       12.1444806768        1.2185628508  SOLV      2569            0.0000000000
      7827      2580  TIP3      H2            -24.7836649752       11.3487506768        1.8654528508  SOLV      2569            0.0000000000
      7828      2581  TIP3      OH2           -18.4710049752       12.2939306768      -16.6793471492  SOLV      2570            0.0000000000
      7829      2581  TIP3      H1            -18.7445249752       11.8694806768      -17.4925171492  SOLV      2570            0.0000000000
      7830      2581  TIP3      H2            -18.4315949752       13.2253806768      -16.8963071492  SOLV      2570            0.0000000000
      7831      2582  TIP3      OH2           -29.3035749752        6.9441206768       -0.9492071492  SOLV      2571            0.0000000000
      7832      2582  TIP3      H1            -29.1534849752        6.2152506768       -1.5512371492  SOLV      2571            0.0000000000
      7833      2582  TIP3      H2            -29.3013349752        7.7212906768       -1.5079871492  SOLV      2571            0.0000000000
      7834      2583  TIP3      OH2           -28.8910049752        5.3137006768       -3.4564671492  SOLV      2572            0.0000000000
      7835      2583  TIP3      H1            -28.3552549752        5.7653706768       -4.1085371492  SOLV      2572            0.0000000000
      7836      2583  TIP3      H2            -29.7430449752        5.2056806768       -3.8790571492  SOLV      2572            0.0000000000
      7837      2584  TIP3      OH2           -27.3091649752       10.7533206768       -3.2169471492  SOLV      2573            0.0000000000
      7838      2584  TIP3      H1            -26.5586849752       10.5970706768       -3.7901671492  SOLV      2573            0.0000000000
      7839      2584  TIP3      H2            -27.6483349752       11.6049806768       -3.4923971492  SOLV      2573            0.0000000000
      7840      2585  TIP3      OH2           -22.8935449752        8.5685006768        1.8115828508  SOLV      2574            0.0000000000
      7841      2585  TIP3      H1            -22.7014149752        7.6374406768        1.7000328508  SOLV      2574            0.0000000000
      7842      2585  TIP3      H2            -22.0359149752        8.9934506768        1.8011228508  SOLV      2574            0.0000000000
      7843      2586  TIP3      OH2           -21.5768249752       11.3570206768       -0.1111471492  SOLV      2575            0.0000000000
      7844      2586  TIP3      H1            -21.8583249752       12.0664806768       -0.6887671492  SOLV      2575            0.0000000000
      7845      2586  TIP3      H2            -20.6343949752       11.2843206768       -0.2620271492  SOLV      2575            0.0000000000
      7846      2587  TIP3      OH2           -30.8249449752        8.1424706768        0.9623528508  SOLV      2576            0.0000000000
      7847      2587  TIP3      H1            -31.5920449752        7.6099506768        0.7521128508  SOLV      2576            0.0000000000
      7848      2587  TIP3      H2            -30.1460449752        7.8325106768        0.3629828508  SOLV      2576            0.0000000000
      7849      2588  TIP3      OH2           -28.0854549752        2.7702706768       -3.0251071492  SOLV      2577            0.0000000000
      7850      2588  TIP3      H1            -28.1834949752        3.7165906768       -3.1304871492  SOLV      2577            0.0000000000
      7851      2588  TIP3      H2            -28.8278349752        2.3976506768       -3.5007571492  SOLV      2577            0.0000000000
      7852      2589  TIP3      OH2           -26.8214049752        7.0918106768        0.5387328508  SOLV      2578            0.0000000000
      7853      2589  TIP3      H1            -27.0568649752        6.8724806768        1.4402228508  SOLV      2578            0.0000000000
      7854      2589  TIP3      H2            -27.6047149752        6.8849306768        0.0289828508  SOLV      2578            0.0000000000
      7855      2590  TIP3      OH2           -24.1057449752        6.2191606768       -0.3859171492  SOLV      2579            0.0000000000
      7856      2590  TIP3      H1            -25.0532049752        6.2511306768       -0.2535871492  SOLV      2579            0.0000000000
      7857      2590  TIP3      H2            -23.7930749752        5.5938706768        0.2679028508  SOLV      2579            0.0000000000
      7858      2591  TIP3      OH2           -22.4715949752        4.8532706768        1.6192728508  SOLV      2580            0.0000000000
      7859      2591  TIP3      H1            -22.5684149752        3.9010006768        1.6134628508  SOLV      2580            0.0000000000
      7860      2591  TIP3      H2            -22.7932849752        5.1219506768        2.4798228508  SOLV      2580            0.0000000000
      7861      2592  TIP3      OH2           -27.8636449752        2.0640106768       -0.3538271492  SOLV      2581            0.0000000000
      7862      2592  TIP3      H1            -27.1518049752        1.4242306768       -0.3679171492  SOLV      2581            0.0000000000
      7863      2592  TIP3      H2            -27.9646049752        2.3308406768       -1.2675171492  SOLV      2581            0.0000000000
      7864      2593  TIP3      OH2           -27.5098949752        3.7468506768        1.6998028508  SOLV      2582            0.0000000000
      7865      2593  TIP3      H1            -27.6416749752        3.2712306768        0.8796528508  SOLV      2582            0.0000000000
      7866      2593  TIP3      H2            -28.1091549752        4.4912106768        1.6445128508  SOLV      2582            0.0000000000
      7867      2594  TIP3      OH2           -17.3277149752       19.5494506768       -5.7784971492  SOLV      2583            0.0000000000
      7868      2594  TIP3      H1            -17.3490449752       19.7342906768       -4.8395571492  SOLV      2583            0.0000000000
      7869      2594  TIP3      H2            -16.6370949752       20.1178506768       -6.1193571492  SOLV      2583            0.0000000000
      7870      2595  TIP3      OH2           -17.7644249752       19.1165606768       -2.8565871492  SOLV      2584            0.0000000000
      7871      2595  TIP3      H1            -18.2515549752       18.3809706768       -3.2278471492  SOLV      2584            0.0000000000
      7872      2595  TIP3      H2            -17.2151549752       18.7229506768       -2.1786471492  SOLV      2584            0.0000000000
      7873      2596  TIP3      OH2           -19.3136949752       14.9063706768        1.7814428508  SOLV      2585            0.0000000000
      7874      2596  TIP3      H1            -20.1795849752       14.8013406768        2.1756728508  SOLV      2585            0.0000000000
      7875      2596  TIP3      H2            -18.9371049752       15.6647006768        2.2279128508  SOLV      2585            0.0000000000
      7876      2597  TIP3      OH2           -18.0127249752       13.1627406768      -12.7043071492  SOLV      2586            0.0000000000
      7877      2597  TIP3      H1            -17.1625849752       13.5838306768      -12.5771471492  SOLV      2586            0.0000000000
      7878      2597  TIP3      H2            -18.0072149752       12.4227506768      -12.0971671492  SOLV      2586            0.0000000000
      7879      2598  TIP3      OH2           -17.6181649752       11.2164806768      -10.8807371492  SOLV      2587            0.0000000000
      7880      2598  TIP3      H1            -18.3447049752       10.7367406768      -10.4829771492  SOLV      2587            0.0000000000
      7881      2598  TIP3      H2            -17.0368349752       11.4219506768      -10.1485771492  SOLV      2587            0.0000000000
      7882      2599  TIP3      OH2           -17.8590449752       14.0012306768       -5.9329771492  SOLV      2588            0.0000000000
      7883      2599  TIP3      H1            -17.0256249752       13.6232306768       -6.2136171492  SOLV      2588            0.0000000000
      7884      2599  TIP3      H2            -17.7470149752       14.9443506768       -6.0520671492  SOLV      2588            0.0000000000
      7885      2600  TIP3      OH2           -19.3728149752       16.8789806768       -3.6261371492  SOLV      2589            0.0000000000
      7886      2600  TIP3      H1            -20.0202849752       17.2041306768       -3.0006171492  SOLV      2589            0.0000000000
      7887      2600  TIP3      H2            -19.8904149752       16.4387506768       -4.3003071492  SOLV      2589            0.0000000000
      7888      2601  TIP3      OH2           -17.3498549752       11.1173306768      -14.4896071492  SOLV      2590            0.0000000000
      7889      2601  TIP3      H1            -17.8717449752       11.4737406768      -15.2085171492  SOLV      2590            0.0000000000
      7890      2601  TIP3      H2            -17.3829349752       11.7921106768      -13.8115171492  SOLV      2590            0.0000000000
      7891      2602  TIP3      OH2           -19.0009549752        8.3568906768      -15.9388971492  SOLV      2591            0.0000000000
      7892      2602  TIP3      H1            -18.9045149752        9.0235906768      -16.6189271492  SOLV      2591            0.0000000000
      7893      2602  TIP3      H2            -19.1409949752        7.5415206768      -16.4203471492  SOLV      2591            0.0000000000
      7894      2603  TIP3      OH2           -19.8314849752        9.7371306768      -10.3178671492  SOLV      2592            0.0000000000
      7895      2603  TIP3      H1            -19.9816049752        8.7919906768      -10.3380871492  SOLV      2592            0.0000000000
      7896      2603  TIP3      H2            -20.1850349752       10.0182706768       -9.4739571492  SOLV      2592            0.0000000000
      7897      2604  TIP3      OH2           -18.9751949752       11.7074606768       -0.6790371492  SOLV      2593            0.0000000000
      7898      2604  TIP3      H1            -18.3924649752       10.9726906768       -0.4873171492  SOLV      2593            0.0000000000
      7899      2604  TIP3      H2            -18.4112649752       12.4794906768       -0.6324571492  SOLV      2593            0.0000000000
      7900      2605  TIP3      OH2           -17.4784849752        9.6100406768        0.0055028508  SOLV      2594            0.0000000000
      7901      2605  TIP3      H1            -18.3418149752        9.2312506768       -0.1600271492  SOLV      2594            0.0000000000
      7902      2605  TIP3      H2            -16.8741149752        8.8715206768       -0.0689171492  SOLV      2594            0.0000000000
      7903      2606  TIP3      OH2           -19.7535749752        5.7648706768      -16.8213471492  SOLV      2595            0.0000000000
      7904      2606  TIP3      H1            -19.1429949752        5.3935506768      -16.1845271492  SOLV      2595            0.0000000000
      7905      2606  TIP3      H2            -20.5904249752        5.3435606768      -16.6253471492  SOLV      2595            0.0000000000
      7906      2607  TIP3      OH2           -20.1210049752        7.3197106768      -11.8553571492  SOLV      2596            0.0000000000
      7907      2607  TIP3      H1            -19.8412949752        6.4127506768      -11.7311871492  SOLV      2596            0.0000000000
      7908      2607  TIP3      H2            -19.3618349752        7.7538606768      -12.2444371492  SOLV      2596            0.0000000000
      7909      2608  TIP3      OH2           -19.5091749752        7.9014506768       -6.4194671492  SOLV      2597            0.0000000000
      7910      2608  TIP3      H1            -18.5763749752        8.1134406768       -6.4538671492  SOLV      2597            0.0000000000
      7911      2608  TIP3      H2            -19.7444249752        8.0026606768       -5.4971671492  SOLV      2597            0.0000000000
      7912      2609  TIP3      OH2           -19.4799849752        8.6379806768       -3.6435271492  SOLV      2598            0.0000000000
      7913      2609  TIP3      H1            -20.3228549752        8.9060206768       -3.2775471492  SOLV      2598            0.0000000000
      7914      2609  TIP3      H2            -19.0375549752        9.4601706768       -3.8544171492  SOLV      2598            0.0000000000
      7915      2610  TIP3      OH2           -17.1968249752        2.6180006768        1.7099728508  SOLV      2599            0.0000000000
      7916      2610  TIP3      H1            -16.8471249752        1.9643506768        1.1044428508  SOLV      2599            0.0000000000
      7917      2610  TIP3      H2            -17.0498749752        3.4554106768        1.2702328508  SOLV      2599            0.0000000000
      7918      2611  TIP3      OH2           -19.5075249752        4.5826406768      -11.8071571492  SOLV      2600            0.0000000000
      7919      2611  TIP3      H1            -19.3250249752        4.1337906768      -10.9816571492  SOLV      2600            0.0000000000
      7920      2611  TIP3      H2            -20.1072349752        3.9980806768      -12.2706971492  SOLV      2600            0.0000000000
      7921      2612  TIP3      OH2           -17.6771049752        4.7274606768        0.0591028508  SOLV      2601            0.0000000000
      7922      2612  TIP3      H1            -18.5945349752        4.9981706768        0.0234528508  SOLV      2601            0.0000000000
      7923      2612  TIP3      H2            -17.5541649752        4.1923006768       -0.7249271492  SOLV      2601            0.0000000000
      7924      2613  TIP3      OH2           -17.6409049752        4.6504506768      -15.2791271492  SOLV      2602            0.0000000000
      7925      2613  TIP3      H1            -17.2286449752        3.9290206768      -15.7543271492  SOLV      2602            0.0000000000
      7926      2613  TIP3      H2            -16.9592549752        5.3199106768      -15.2206971492  SOLV      2602            0.0000000000
      7927      2614  TIP3      OH2           -20.5891149752       19.6393906768      -10.2063171492  SOLV      2603            0.0000000000
      7928      2614  TIP3      H1            -19.9368249752       19.2916006768      -10.8144071492  SOLV      2603            0.0000000000
      7929      2614  TIP3      H2            -20.0787349752       20.1277106768       -9.5603471492  SOLV      2603            0.0000000000
      7930      2615  TIP3      OH2           -25.9389349752       18.9416506768       -0.4454571492  SOLV      2604            0.0000000000
      7931      2615  TIP3      H1            -25.7541849752       18.6082606768        0.4325728508  SOLV      2604            0.0000000000
      7932      2615  TIP3      H2            -25.0924849752       19.2515106768       -0.7675371492  SOLV      2604            0.0000000000
      7933      2616  TIP3      OH2           -23.5938949752       20.2275406768       -1.2013171492  SOLV      2605            0.0000000000
      7934      2616  TIP3      H1            -22.9170049752       19.5947706768       -1.4413971492  SOLV      2605            0.0000000000
      7935      2616  TIP3      H2            -23.2720149752       20.6285906768       -0.3939871492  SOLV      2605            0.0000000000
      7936      2617  TIP3      OH2           -18.6765149752        2.8170906768       -2.1218171492  SOLV      2606            0.0000000000
      7937      2617  TIP3      H1            -19.4891649752        3.1421206768       -2.5093471492  SOLV      2606            0.0000000000
      7938      2617  TIP3      H2            -18.4436649752        2.0569406768       -2.6549071492  SOLV      2606            0.0000000000
      7939      2618  TIP3      OH2           -25.6705849752       20.2873206768       -5.1519771492  SOLV      2607            0.0000000000
      7940      2618  TIP3      H1            -26.1271849752       20.8162906768       -5.8061371492  SOLV      2607            0.0000000000
      7941      2618  TIP3      H2            -25.5077849752       20.8904606768       -4.4267471492  SOLV      2607            0.0000000000
      7942      2619  TIP3      OH2           -23.3429549752       19.1652806768       -4.2069471492  SOLV      2608            0.0000000000
      7943      2619  TIP3      H1            -24.2475849752       19.3303006768       -4.4727371492  SOLV      2608            0.0000000000
      7944      2619  TIP3      H2            -22.9140949752       20.0185006768       -4.2726071492  SOLV      2608            0.0000000000
      7945      2620  TIP3      OH2           -20.7387649752       20.7351906768       -3.9121671492  SOLV      2609            0.0000000000
      7946      2620  TIP3      H1            -20.9205649752       21.6510806768       -4.1226771492  SOLV      2609            0.0000000000
      7947      2620  TIP3      H2            -20.5619849752       20.3249006768       -4.7587071492  SOLV      2609            0.0000000000
      7948      2621  TIP3      OH2           -25.2466649752        4.2661506768       -7.7989971492  SOLV      2610            0.0000000000
      7949      2621  TIP3      H1            -25.9209849752        3.6367106768       -7.5434171492  SOLV      2610            0.0000000000
      7950      2621  TIP3      H2            -24.6827449752        3.7820406768       -8.4022071492  SOLV      2610            0.0000000000
      7951      2622  TIP3      OH2           -20.1039449752        2.3735506768       -7.6862871492  SOLV      2611            0.0000000000
      7952      2622  TIP3      H1            -19.5001849752        2.9210906768       -8.1881871492  SOLV      2611            0.0000000000
      7953      2622  TIP3      H2            -20.9737449752        2.6925906768       -7.9268771492  SOLV      2611            0.0000000000
      7954      2623  TIP3      OH2           -18.3769049752        3.5124206768       -9.3531971492  SOLV      2612            0.0000000000
      7955      2623  TIP3      H1            -17.7651549752        2.9979906768       -9.8798371492  SOLV      2612            0.0000000000
      7956      2623  TIP3      H2            -17.9945649752        4.3896306768       -9.3297571492  SOLV      2612            0.0000000000
      7957      2624  TIP3      OH2           -32.9199149752        2.9001806768       -9.9770071492  SOLV      2613            0.0000000000
      7958      2624  TIP3      H1            -33.6969349752        2.6656706768      -10.4844171492  SOLV      2613            0.0000000000
      7959      2624  TIP3      H2            -32.3895549752        2.1033906768       -9.9682071492  SOLV      2613            0.0000000000
      7960      2625  TIP3      OH2           -28.3406549752        2.8268906768      -10.1636971492  SOLV      2614            0.0000000000
      7961      2625  TIP3      H1            -27.4663149752        3.2153206768      -10.1932671492  SOLV      2614            0.0000000000
      7962      2625  TIP3      H2            -28.4765749752        2.6116706768       -9.2409771492  SOLV      2614            0.0000000000
      7963      2626  TIP3      OH2           -22.7838149752        2.8568706768       -8.5145271492  SOLV      2615            0.0000000000
      7964      2626  TIP3      H1            -22.7076549752        2.9520306768       -9.4639271492  SOLV      2615            0.0000000000
      7965      2626  TIP3      H2            -23.0588949752        1.9491606768       -8.3856171492  SOLV      2615            0.0000000000
      7966      2627  TIP3      OH2           -21.4305549752        2.8826506768      -12.8220271492  SOLV      2616            0.0000000000
      7967      2627  TIP3      H1            -22.1334449752        3.4975706768      -13.0318871492  SOLV      2616            0.0000000000
      7968      2627  TIP3      H2            -21.8754149752        2.0453206768      -12.6909371492  SOLV      2616            0.0000000000
      7969      2628  TIP3      OH2           -32.2226649752        4.6141406768      -15.7309871492  SOLV      2617            0.0000000000
      7970      2628  TIP3      H1            -31.7313249752        3.9843806768      -16.2584371492  SOLV      2617            0.0000000000
      7971      2628  TIP3      H2            -31.5990349752        4.9100806768      -15.0678671492  SOLV      2617            0.0000000000
      7972      2629  TIP3      OH2           -27.1966549752        4.9072906768      -13.2739371492  SOLV      2618            0.0000000000
      7973      2629  TIP3      H1            -27.0185249752        4.2606106768      -12.5910771492  SOLV      2618            0.0000000000
      7974      2629  TIP3      H2            -27.2500349752        5.7410606768      -12.8068271492  SOLV      2618            0.0000000000
      7975      2630  TIP3      OH2           -25.3182749752       19.8557006768      -14.8782671492  SOLV      2619            0.0000000000
      7976      2630  TIP3      H1            -24.4522549752       20.2224406768      -15.0564471492  SOLV      2619            0.0000000000
      7977      2630  TIP3      H2            -25.5649949752       19.4165006768      -15.6921871492  SOLV      2619            0.0000000000
      7978      2631  TIP3      OH2           -18.6093149752       19.4187306768      -12.1991571492  SOLV      2620            0.0000000000
      7979      2631  TIP3      H1            -18.8036049752       18.6709406768      -12.7641971492  SOLV      2620            0.0000000000
      7980      2631  TIP3      H2            -18.6483049752       20.1767406768      -12.7823671492  SOLV      2620            0.0000000000
      7981      2632  TIP3      OH2           -32.9621149752        3.4143706768       -0.4593871492  SOLV      2621            0.0000000000
      7982      2632  TIP3      H1            -33.3282949752        2.6486306768       -0.0169171492  SOLV      2621            0.0000000000
      7983      2632  TIP3      H2            -32.0492649752        3.4433906768       -0.1728771492  SOLV      2621            0.0000000000
      7984      2633  TIP3      OH2           -30.9890349752        2.7648106768        1.0763228508  SOLV      2622            0.0000000000
      7985      2633  TIP3      H1            -30.0906749752        2.4908306768        0.8916628508  SOLV      2622            0.0000000000
      7986      2633  TIP3      H2            -31.3757249752        2.0224106768        1.5405828508  SOLV      2622            0.0000000000
      7987      2634  TIP3      OH2           -19.3916949752       18.1699706768       -0.0489771492  SOLV      2623            0.0000000000
      7988      2634  TIP3      H1            -20.1735049752       17.9837706768       -0.5689171492  SOLV      2623            0.0000000000
      7989      2634  TIP3      H2            -19.4637049752       19.0994006768        0.1682728508  SOLV      2623            0.0000000000
      7990      2635  TIP3      OH2            -4.9856549752       12.0564106768      -10.0182571492  SOLV      2624            0.0000000000
      7991      2635  TIP3      H1             -4.8965449752       13.0002306768      -10.1505471492  SOLV      2624            0.0000000000
      7992      2635  TIP3      H2             -5.6238949752       11.7810506768      -10.6763171492  SOLV      2624            0.0000000000
      7993      2636  TIP3      OH2            -6.0525249752       11.3114806768       -6.5994371492  SOLV      2625            0.0000000000
      7994      2636  TIP3      H1             -6.0907749752       10.6651106768       -5.8944771492  SOLV      2625            0.0000000000
      7995      2636  TIP3      H2             -6.3748749752       10.8449206768       -7.3705671492  SOLV      2625            0.0000000000
      7996      2637  TIP3      OH2           -13.6840249752       10.9256906768       -5.0064471492  SOLV      2626            0.0000000000
      7997      2637  TIP3      H1            -13.6428149752       10.3000206768       -4.2832071492  SOLV      2626            0.0000000000
      7998      2637  TIP3      H2            -12.9812549752       11.5495506768       -4.8244071492  SOLV      2626            0.0000000000
      7999      2638  TIP3      OH2            -2.3465049752       14.2505206768       -8.2979271492  SOLV      2627            0.0000000000
      8000      2638  TIP3      H1             -2.7872349752       13.5301206768       -7.8473671492  SOLV      2627            0.0000000000
      8001      2638  TIP3      H2             -2.3595349752       14.9712406768       -7.6681571492  SOLV      2627            0.0000000000
      8002      2639  TIP3      OH2           -12.7607149752       15.3755806768       -6.4715371492  SOLV      2628            0.0000000000
      8003      2639  TIP3      H1            -13.1301949752       14.5736306768       -6.8411071492  SOLV      2628            0.0000000000
      8004      2639  TIP3      H2            -11.8196049752       15.2070706768       -6.4251971492  SOLV      2628            0.0000000000
      8005      2640  TIP3      OH2           -16.1506649752        9.0358406768      -11.0786571492  SOLV      2629            0.0000000000
      8006      2640  TIP3      H1            -16.5983249752        9.8817106768      -11.0970071492  SOLV      2629            0.0000000000
      8007      2640  TIP3      H2            -16.7115449752        8.4562606768      -11.5941471492  SOLV      2629            0.0000000000
      8008      2641  TIP3      OH2           -15.4400549752       11.1978006768       -8.9528571492  SOLV      2630            0.0000000000
      8009      2641  TIP3      H1            -15.2267049752       10.4279606768       -8.4255571492  SOLV      2630            0.0000000000
      8010      2641  TIP3      H2            -14.7022949752       11.2874706768       -9.5560971492  SOLV      2630            0.0000000000
      8011      2642  TIP3      OH2            -5.2349549752       19.3546906768       -8.0858871492  SOLV      2631            0.0000000000
      8012      2642  TIP3      H1             -4.6153149752       18.6781606768       -8.3589671492  SOLV      2631            0.0000000000
      8013      2642  TIP3      H2             -5.4432149752       19.1367706768       -7.1773971492  SOLV      2631            0.0000000000
      8014      2643  TIP3      OH2            -7.6630849752       13.7436206768       -6.1933371492  SOLV      2632            0.0000000000
      8015      2643  TIP3      H1             -7.3592949752       13.0577606768       -6.7879271492  SOLV      2632            0.0000000000
      8016      2643  TIP3      H2             -6.9416849752       13.8624906768       -5.5755371492  SOLV      2632            0.0000000000
      8017      2644  TIP3      OH2             0.9998950248        5.3451506768       -5.3327171492  SOLV      2633            0.0000000000
      8018      2644  TIP3      H1              1.0491150248        5.9552706768       -4.5968071492  SOLV      2633            0.0000000000
      8019      2644  TIP3      H2              1.4254050248        5.8062406768       -6.0556071492  SOLV      2633            0.0000000000
      8020      2645  TIP3      OH2            -4.5223849752        8.1378606768       -5.8658571492  SOLV      2634            0.0000000000
      8021      2645  TIP3      H1             -4.3797949752        7.1915606768       -5.8456971492  SOLV      2634            0.0000000000
      8022      2645  TIP3      H2             -4.6284849752        8.3448406768       -6.7943671492  SOLV      2634            0.0000000000
      8023      2646  TIP3      OH2           -11.3675549752        6.2395006768       -8.5933771492  SOLV      2635            0.0000000000
      8024      2646  TIP3      H1            -11.3244449752        7.0993506768       -9.0117471492  SOLV      2635            0.0000000000
      8025      2646  TIP3      H2            -11.8251449752        5.6869706768       -9.2270571492  SOLV      2635            0.0000000000
      8026      2647  TIP3      OH2            -3.6452849752        6.3700606768      -10.1925471492  SOLV      2636            0.0000000000
      8027      2647  TIP3      H1             -2.9988549752        6.0413806768       -9.5677871492  SOLV      2636            0.0000000000
      8028      2647  TIP3      H2             -3.1353449752        6.8879606768      -10.8154071492  SOLV      2636            0.0000000000
      8029      2648  TIP3      OH2           -14.7474049752        8.6360806768       -7.8312371492  SOLV      2637            0.0000000000
      8030      2648  TIP3      H1            -14.0937449752        8.0862506768       -7.3992271492  SOLV      2637            0.0000000000
      8031      2648  TIP3      H2            -14.7234749752        8.3619806768       -8.7480371492  SOLV      2637            0.0000000000
      8032      2649  TIP3      OH2            -9.5909549752       10.1862106768       -8.6160871492  SOLV      2638            0.0000000000
      8033      2649  TIP3      H1             -8.9748549752        9.6597506768       -8.1066871492  SOLV      2638            0.0000000000
      8034      2649  TIP3      H2            -10.1770749752        9.5460806768       -9.0197271492  SOLV      2638            0.0000000000
      8035      2650  TIP3      OH2             1.3913550248        6.8230706768       -3.0967371492  SOLV      2639            0.0000000000
      8036      2650  TIP3      H1              0.7028150248        7.4811406768       -3.1920771492  SOLV      2639            0.0000000000
      8037      2650  TIP3      H2              1.4068150248        6.6258606768       -2.1601971492  SOLV      2639            0.0000000000
      8038      2651  TIP3      OH2           -12.5573649752        5.1573406768       -4.5192971492  SOLV      2640            0.0000000000
      8039      2651  TIP3      H1            -12.7761949752        5.6874006768       -5.2856971492  SOLV      2640            0.0000000000
      8040      2651  TIP3      H2            -13.2252749752        5.3838906768       -3.8721571492  SOLV      2640            0.0000000000
      8041      2652  TIP3      OH2            -5.1883849752       14.6574506768      -10.9753871492  SOLV      2641            0.0000000000
      8042      2652  TIP3      H1             -5.4838749752       14.3346806768      -11.8266971492  SOLV      2641            0.0000000000
      8043      2652  TIP3      H2             -5.5126049752       15.5571206768      -10.9341271492  SOLV      2641            0.0000000000
      8044      2653  TIP3      OH2            -9.9882249752       12.8329106768       -4.2319271492  SOLV      2642            0.0000000000
      8045      2653  TIP3      H1            -10.7283149752       13.4310606768       -4.1284071492  SOLV      2642            0.0000000000
      8046      2653  TIP3      H2             -9.2742749752       13.3868706768       -4.5475671492  SOLV      2642            0.0000000000
      8047      2654  TIP3      OH2            -1.8814449752        5.6609906768       -8.2119571492  SOLV      2643            0.0000000000
      8048      2654  TIP3      H1             -2.0966449752        4.8953306768       -7.6793571492  SOLV      2643            0.0000000000
      8049      2654  TIP3      H2             -1.2257049752        6.1334506768       -7.6991071492  SOLV      2643            0.0000000000
      8050      2655  TIP3      OH2           -12.9636349752        7.0495206768       -6.5670771492  SOLV      2644            0.0000000000
      8051      2655  TIP3      H1            -12.3500049752        7.6822806768       -6.1938371492  SOLV      2644            0.0000000000
      8052      2655  TIP3      H2            -12.4515649752        6.5770206768       -7.2233871492  SOLV      2644            0.0000000000
      8053      2656  TIP3      OH2           -11.5807949752       14.7972106768       -3.4447771492  SOLV      2645            0.0000000000
      8054      2656  TIP3      H1            -11.5860349752       15.6765606768       -3.8228471492  SOLV      2645            0.0000000000
      8055      2656  TIP3      H2            -12.4343849752       14.7136206768       -3.0197871492  SOLV      2645            0.0000000000
      8056      2657  TIP3      OH2           -15.4597049752       14.4680006768      -12.6628471492  SOLV      2646            0.0000000000
      8057      2657  TIP3      H1            -15.7316149752       14.6971006768      -13.5515571492  SOLV      2646            0.0000000000
      8058      2657  TIP3      H2            -15.4141349752       15.3058806768      -12.2023171492  SOLV      2646            0.0000000000
      8059      2658  TIP3      OH2            -1.8347349752       16.0895906768       -5.9499971492  SOLV      2647            0.0000000000
      8060      2658  TIP3      H1             -2.7763649752       16.1479806768       -5.7883071492  SOLV      2647            0.0000000000
      8061      2658  TIP3      H2             -1.5581249752       16.9956406768       -6.0870271492  SOLV      2647            0.0000000000
      8062      2659  TIP3      OH2            -1.5340349752        4.3761206768       -4.5326071492  SOLV      2648            0.0000000000
      8063      2659  TIP3      H1             -2.2701149752        4.9868306768       -4.5704771492  SOLV      2648            0.0000000000
      8064      2659  TIP3      H2             -0.8506349752        4.7910206768       -5.0589671492  SOLV      2648            0.0000000000
      8065      2660  TIP3      OH2            -8.5308949752        2.4628506768       -7.0668071492  SOLV      2649            0.0000000000
      8066      2660  TIP3      H1             -8.6484749752        1.5144506768       -7.1209771492  SOLV      2649            0.0000000000
      8067      2660  TIP3      H2             -9.3858849752        2.7954606768       -6.7936971492  SOLV      2649            0.0000000000
      8068      2661  TIP3      OH2            -3.5826149752       17.8709406768       -9.3248371492  SOLV      2650            0.0000000000
      8069      2661  TIP3      H1             -3.1573849752       17.1637306768       -9.8098771492  SOLV      2650            0.0000000000
      8070      2661  TIP3      H2             -3.2656149752       18.6722106768       -9.7416171492  SOLV      2650            0.0000000000
      8071      2662  TIP3      OH2            -2.4229649752       15.7717906768      -10.8161771492  SOLV      2651            0.0000000000
      8072      2662  TIP3      H1             -2.6804849752       15.0818006768      -11.4275871492  SOLV      2651            0.0000000000
      8073      2662  TIP3      H2             -2.3518849752       15.3289106768       -9.9705871492  SOLV      2651            0.0000000000
      8074      2663  TIP3      OH2            -0.7369449752       14.3384606768       -2.3388271492  SOLV      2652            0.0000000000
      8075      2663  TIP3      H1             -0.5973149752       13.7467106768       -3.0781271492  SOLV      2652            0.0000000000
      8076      2663  TIP3      H2             -0.5696649752       15.2110506768       -2.6949471492  SOLV      2652            0.0000000000
      8077      2664  TIP3      OH2            -6.2644049752       11.3004106768      -12.5662271492  SOLV      2653            0.0000000000
      8078      2664  TIP3      H1             -6.9758549752       11.8353806768      -12.9181771492  SOLV      2653            0.0000000000
      8079      2664  TIP3      H2             -5.5734449752       11.3556206768      -13.2263371492  SOLV      2653            0.0000000000
      8080      2665  TIP3      OH2            -6.2104849752        9.7578406768      -15.5277271492  SOLV      2654            0.0000000000
      8081      2665  TIP3      H1             -5.5094949752        9.7805306768      -14.8763271492  SOLV      2654            0.0000000000
      8082      2665  TIP3      H2             -5.9081949752        9.1298106768      -16.1837971492  SOLV      2654            0.0000000000
      8083      2666  TIP3      OH2             1.1049850248       10.6782606768       -4.2727871492  SOLV      2655            0.0000000000
      8084      2666  TIP3      H1              0.4523950248       11.3728206768       -4.1836971492  SOLV      2655            0.0000000000
      8085      2666  TIP3      H2              1.5700150248       10.8883506768       -5.0826271492  SOLV      2655            0.0000000000
      8086      2667  TIP3      OH2            -2.8586349752       11.5097406768      -11.6146371492  SOLV      2656            0.0000000000
      8087      2667  TIP3      H1             -3.5905349752       11.7381106768      -11.0415771492  SOLV      2656            0.0000000000
      8088      2667  TIP3      H2             -2.4114149752       10.7960106768      -11.1598871492  SOLV      2656            0.0000000000
      8089      2668  TIP3      OH2            -2.9612849752        9.6840006768       -2.5469371492  SOLV      2657            0.0000000000
      8090      2668  TIP3      H1             -2.8813749752       10.4474406768       -1.9750871492  SOLV      2657            0.0000000000
      8091      2668  TIP3      H2             -3.5625149752        9.9632406768       -3.2374271492  SOLV      2657            0.0000000000
      8092      2669  TIP3      OH2           -11.2132649752       12.1403606768       -9.7321371492  SOLV      2658            0.0000000000
      8093      2669  TIP3      H1            -11.5437449752       11.7697006768      -10.5504371492  SOLV      2658            0.0000000000
      8094      2669  TIP3      H2            -10.6248549752       11.4697606768       -9.3853071492  SOLV      2658            0.0000000000
      8095      2670  TIP3      OH2            -9.8465149752       15.5684206768       -7.0509171492  SOLV      2659            0.0000000000
      8096      2670  TIP3      H1             -9.9413849752       14.9897306768       -7.8074571492  SOLV      2659            0.0000000000
      8097      2670  TIP3      H2             -9.1171549752       15.1969906768       -6.5546371492  SOLV      2659            0.0000000000
      8098      2671  TIP3      OH2           -10.8467149752       10.9089206768       -6.0986371492  SOLV      2660            0.0000000000
      8099      2671  TIP3      H1            -10.2814649752       11.0303406768       -6.8615171492  SOLV      2660            0.0000000000
      8100      2671  TIP3      H2            -10.5278249752       11.5464206768       -5.4597871492  SOLV      2660            0.0000000000
      8101      2672  TIP3      OH2            -4.5374949752       16.4121106768       -5.3645871492  SOLV      2661            0.0000000000
      8102      2672  TIP3      H1             -4.7778349752       17.0744206768       -4.7166671492  SOLV      2661            0.0000000000
      8103      2672  TIP3      H2             -4.7356749752       15.5776306768       -4.9396271492  SOLV      2661            0.0000000000
      8104      2673  TIP3      OH2            -9.9666449752       15.3081906768       -1.3814471492  SOLV      2662            0.0000000000
      8105      2673  TIP3      H1            -10.2778949752       16.0905106768       -0.9261271492  SOLV      2662            0.0000000000
      8106      2673  TIP3      H2            -10.6166249752       15.1551006768       -2.0672471492  SOLV      2662            0.0000000000
      8107      2674  TIP3      OH2            -3.9876849752       10.6720306768      -13.9295171492  SOLV      2663            0.0000000000
      8108      2674  TIP3      H1             -3.4081349752       10.8220606768      -13.1826271492  SOLV      2663            0.0000000000
      8109      2674  TIP3      H2             -3.5736849752       11.1427706768      -14.6528771492  SOLV      2663            0.0000000000
      8110      2675  TIP3      OH2           -13.0466549752       11.5063006768       -2.1528771492  SOLV      2664            0.0000000000
      8111      2675  TIP3      H1            -12.9763349752       12.1569806768       -1.4543771492  SOLV      2664            0.0000000000
      8112      2675  TIP3      H2            -13.9374349752       11.6090506768       -2.4877871492  SOLV      2664            0.0000000000
      8113      2676  TIP3      OH2            -6.2611949752       17.4088806768      -10.4942071492  SOLV      2665            0.0000000000
      8114      2676  TIP3      H1             -5.7874349752       17.7045106768       -9.7167871492  SOLV      2665            0.0000000000
      8115      2676  TIP3      H2             -6.8242649752       18.1470406768      -10.7272471492  SOLV      2665            0.0000000000
      8116      2677  TIP3      OH2           -11.7270549752       17.3796906768       -0.6180671492  SOLV      2666            0.0000000000
      8117      2677  TIP3      H1            -11.7195249752       17.2436606768       -1.5655171492  SOLV      2666            0.0000000000
      8118      2677  TIP3      H2            -12.6430149752       17.2625006768       -0.3660671492  SOLV      2666            0.0000000000
      8119      2678  TIP3      OH2            -0.2888449752        2.4220706768      -14.1165471492  SOLV      2667            0.0000000000
      8120      2678  TIP3      H1             -1.1887749752        2.5609706768      -13.8214871492  SOLV      2667            0.0000000000
      8121      2678  TIP3      H2             -0.0370049752        3.2535306768      -14.5183771492  SOLV      2667            0.0000000000
      8122      2679  TIP3      OH2           -12.2229949752       11.2097906768      -12.1428571492  SOLV      2668            0.0000000000
      8123      2679  TIP3      H1            -12.5148649752       11.9779606768      -12.6337271492  SOLV      2668            0.0000000000
      8124      2679  TIP3      H2            -12.8974749752       10.5504106768      -12.3057171492  SOLV      2668            0.0000000000
      8125      2680  TIP3      OH2             0.9002950248       16.7883106768      -15.7401571492  SOLV      2669            0.0000000000
      8126      2680  TIP3      H1              0.9736450248       17.7273306768      -15.5696271492  SOLV      2669            0.0000000000
      8127      2680  TIP3      H2              1.8058050248       16.4831706768      -15.7964271492  SOLV      2669            0.0000000000
      8128      2681  TIP3      OH2           -16.1299849752       13.5727106768       -3.3278771492  SOLV      2670            0.0000000000
      8129      2681  TIP3      H1            -16.6311449752       13.5446506768       -4.1429071492  SOLV      2670            0.0000000000
      8130      2681  TIP3      H2            -16.1246149752       12.6670306768       -3.0181471492  SOLV      2670            0.0000000000
      8131      2682  TIP3      OH2           -16.3797149752       16.3530906768       -6.4438571492  SOLV      2671            0.0000000000
      8132      2682  TIP3      H1            -15.4336549752       16.2087906768       -6.4629071492  SOLV      2671            0.0000000000
      8133      2682  TIP3      H2            -16.4920849752       17.1373706768       -5.9067371492  SOLV      2671            0.0000000000
      8134      2683  TIP3      OH2             1.8181350248       17.0190606768       -0.7614871492  SOLV      2672            0.0000000000
      8135      2683  TIP3      H1              1.7688150248       16.0638706768       -0.7987271492  SOLV      2672            0.0000000000
      8136      2683  TIP3      H2              0.9913650248       17.2865906768       -0.3601071492  SOLV      2672            0.0000000000
      8137      2684  TIP3      OH2            -7.2034649752       16.5929806768       -1.8853471492  SOLV      2673            0.0000000000
      8138      2684  TIP3      H1             -7.1160049752       17.4194406768       -1.4104371492  SOLV      2673            0.0000000000
      8139      2684  TIP3      H2             -8.0669549752       16.2633606768       -1.6364171492  SOLV      2673            0.0000000000
      8140      2685  TIP3      OH2            -6.7888849752       20.3653506768      -12.0792871492  SOLV      2674            0.0000000000
      8141      2685  TIP3      H1             -6.8642849752       20.2440706768      -13.0257671492  SOLV      2674            0.0000000000
      8142      2685  TIP3      H2             -6.7560149752       21.3146206768      -11.9608271492  SOLV      2674            0.0000000000
      8143      2686  TIP3      OH2           -13.1355049752       19.1540506768      -10.2983871492  SOLV      2675            0.0000000000
      8144      2686  TIP3      H1            -12.9834649752       18.8060906768       -9.4197371492  SOLV      2675            0.0000000000
      8145      2686  TIP3      H2            -13.9864649752       18.7977806768      -10.5536671492  SOLV      2675            0.0000000000
      8146      2687  TIP3      OH2            -3.6872849752       19.5193706768      -15.0770471492  SOLV      2676            0.0000000000
      8147      2687  TIP3      H1             -3.3124449752       18.7749806768      -15.5477871492  SOLV      2676            0.0000000000
      8148      2687  TIP3      H2             -3.6829149752       19.2494306768      -14.1587171492  SOLV      2676            0.0000000000
      8149      2688  TIP3      OH2            -4.0184749752       19.4450806768      -12.3278271492  SOLV      2677            0.0000000000
      8150      2688  TIP3      H1             -4.9534949752       19.5452706768      -12.1491271492  SOLV      2677            0.0000000000
      8151      2688  TIP3      H2             -3.7382849752       18.7356806768      -11.7495071492  SOLV      2677            0.0000000000
      8152      2689  TIP3      OH2            -1.0298849752        8.5123106768       -0.2812671492  SOLV      2678            0.0000000000
      8153      2689  TIP3      H1             -1.4372049752        8.9928706768       -1.0019371492  SOLV      2678            0.0000000000
      8154      2689  TIP3      H2             -0.9893149752        7.6069106768       -0.5891871492  SOLV      2678            0.0000000000
      8155      2690  TIP3      OH2           -13.8809349752       14.8962506768       -2.2845971492  SOLV      2679            0.0000000000
      8156      2690  TIP3      H1            -13.6648049752       14.5348106768       -1.4250171492  SOLV      2679            0.0000000000
      8157      2690  TIP3      H2            -14.7364649752       14.5216306768       -2.4942471492  SOLV      2679            0.0000000000
      8158      2691  TIP3      OH2           -11.2621349752        3.3663006768       -6.2891771492  SOLV      2680            0.0000000000
      8159      2691  TIP3      H1            -12.1237649752        3.2791206768       -6.6968871492  SOLV      2680            0.0000000000
      8160      2691  TIP3      H2            -11.2845649752        4.2223106768       -5.8614171492  SOLV      2680            0.0000000000
      8161      2692  TIP3      OH2            -3.2728649752        6.8438606768       -2.0610271492  SOLV      2681            0.0000000000
      8162      2692  TIP3      H1             -3.7869149752        6.7180806768       -1.2634271492  SOLV      2681            0.0000000000
      8163      2692  TIP3      H2             -3.4283949752        7.7561706768       -2.3054071492  SOLV      2681            0.0000000000
      8164      2693  TIP3      OH2            -2.5103749752       11.7048606768      -16.2997271492  SOLV      2682            0.0000000000
      8165      2693  TIP3      H1             -2.4682949752       11.4822506768      -17.2297271492  SOLV      2682            0.0000000000
      8166      2693  TIP3      H2             -1.6611649752       12.1035706768      -16.1097371492  SOLV      2682            0.0000000000
      8167      2694  TIP3      OH2            -6.9376249752        5.5806806768      -15.6293971492  SOLV      2683            0.0000000000
      8168      2694  TIP3      H1             -7.1911449752        5.5998406768      -14.7065871492  SOLV      2683            0.0000000000
      8169      2694  TIP3      H2             -7.1944149752        4.7092206768      -15.9307771492  SOLV      2683            0.0000000000
      8170      2695  TIP3      OH2           -11.1711249752        8.3317506768       -5.1941571492  SOLV      2684            0.0000000000
      8171      2695  TIP3      H1            -11.8129149752        8.2914806768       -4.4851471492  SOLV      2684            0.0000000000
      8172      2695  TIP3      H2            -11.1339249752        9.2582206768       -5.4318571492  SOLV      2684            0.0000000000
      8173      2696  TIP3      OH2           -11.1742149752        8.5527606768      -10.2821571492  SOLV      2685            0.0000000000
      8174      2696  TIP3      H1            -12.0669249752        8.2123706768      -10.3407771492  SOLV      2685            0.0000000000
      8175      2696  TIP3      H2            -10.7235549752        8.1758506768      -11.0378371492  SOLV      2685            0.0000000000
      8176      2697  TIP3      OH2            -5.6386649752        8.9687906768      -11.4650771492  SOLV      2686            0.0000000000
      8177      2697  TIP3      H1             -6.0476349752        9.7836506768      -11.7565971492  SOLV      2686            0.0000000000
      8178      2697  TIP3      H2             -4.9180449752        8.8288006768      -12.0793671492  SOLV      2686            0.0000000000
      8179      2698  TIP3      OH2            -6.5365049752        9.1444306768        0.0229928508  SOLV      2687            0.0000000000
      8180      2698  TIP3      H1             -7.0991249752        8.4395906768        0.3437728508  SOLV      2687            0.0000000000
      8181      2698  TIP3      H2             -5.7101649752        9.0236206768        0.4907528508  SOLV      2687            0.0000000000
      8182      2699  TIP3      OH2            -4.6338949752        8.4148306768       -8.6511071492  SOLV      2688            0.0000000000
      8183      2699  TIP3      H1             -4.8294449752        9.0205106768       -9.3660471492  SOLV      2688            0.0000000000
      8184      2699  TIP3      H2             -4.4526349752        7.5813506768       -9.0854771492  SOLV      2688            0.0000000000
      8185      2700  TIP3      OH2           -13.4210749752        8.6521006768       -3.3269571492  SOLV      2689            0.0000000000
      8186      2700  TIP3      H1            -13.4591349752        9.0522606768       -2.4582471492  SOLV      2689            0.0000000000
      8187      2700  TIP3      H2            -13.9119649752        7.8353406768       -3.2366671492  SOLV      2689            0.0000000000
      8188      2701  TIP3      OH2           -10.0553349752        6.0263306768      -16.5283571492  SOLV      2690            0.0000000000
      8189      2701  TIP3      H1            -10.4862649752        5.5813406768      -15.7986171492  SOLV      2690            0.0000000000
      8190      2701  TIP3      H2            -10.7734649752        6.3979606768      -17.0406071492  SOLV      2690            0.0000000000
      8191      2702  TIP3      OH2           -16.8129949752        5.7682806768       -9.4764871492  SOLV      2691            0.0000000000
      8192      2702  TIP3      H1            -16.1822249752        5.7394906768       -8.7570971492  SOLV      2691            0.0000000000
      8193      2702  TIP3      H2            -16.3635649752        5.3431506768      -10.2068971492  SOLV      2691            0.0000000000
      8194      2703  TIP3      OH2           -15.5387849752        6.5144806768      -14.0524471492  SOLV      2692            0.0000000000
      8195      2703  TIP3      H1            -15.0646149752        7.1054706768      -14.6373571492  SOLV      2692            0.0000000000
      8196      2703  TIP3      H2            -16.2561449752        7.0447706768      -13.7054371492  SOLV      2692            0.0000000000
      8197      2704  TIP3      OH2            -5.3699749752       10.0529606768       -3.9798671492  SOLV      2693            0.0000000000
      8198      2704  TIP3      H1             -5.0464949752        9.4219306768       -4.6228171492  SOLV      2693            0.0000000000
      8199      2704  TIP3      H2             -5.8100449752        9.5181806768       -3.3191271492  SOLV      2693            0.0000000000
      8200      2705  TIP3      OH2            -8.5926849752        5.9805106768       -9.1957471492  SOLV      2694            0.0000000000
      8201      2705  TIP3      H1             -9.5035749752        6.0371906768       -8.9071471492  SOLV      2694            0.0000000000
      8202      2705  TIP3      H2             -8.0873949752        5.9200606768       -8.3850271492  SOLV      2694            0.0000000000
      8203      2706  TIP3      OH2           -13.7643449752        7.6091406768      -10.3689871492  SOLV      2695            0.0000000000
      8204      2706  TIP3      H1            -14.6535449752        7.7086906768      -10.7090271492  SOLV      2695            0.0000000000
      8205      2706  TIP3      H2            -13.4678549752        6.7674406768      -10.7151971492  SOLV      2695            0.0000000000
      8206      2707  TIP3      OH2           -10.1111649752        7.6094006768      -12.7125271492  SOLV      2696            0.0000000000
      8207      2707  TIP3      H1             -9.1796149752        7.7384006768      -12.5342171492  SOLV      2696            0.0000000000
      8208      2707  TIP3      H2            -10.3261349752        8.2788306768      -13.3620571492  SOLV      2696            0.0000000000
      8209      2708  TIP3      OH2            -4.1874949752        5.2151406768       -5.9315671492  SOLV      2697            0.0000000000
      8210      2708  TIP3      H1             -4.8643349752        5.3464506768       -5.2675971492  SOLV      2697            0.0000000000
      8211      2708  TIP3      H2             -4.6730049752        5.0600906768       -6.7417971492  SOLV      2697            0.0000000000
      8212      2709  TIP3      OH2           -11.4371449752        8.8036206768      -15.1459171492  SOLV      2698            0.0000000000
      8213      2709  TIP3      H1            -11.9796349752        8.4240006768      -15.8371571492  SOLV      2698            0.0000000000
      8214      2709  TIP3      H2            -10.6036549752        8.9980906768      -15.5745071492  SOLV      2698            0.0000000000
      8215      2710  TIP3      OH2            -0.8999849752       20.8866806768        0.3451928508  SOLV      2699            0.0000000000
      8216      2710  TIP3      H1             -0.7001149752       21.3108706768       -0.4892771492  SOLV      2699            0.0000000000
      8217      2710  TIP3      H2             -0.2446149752       21.2305006768        0.9522328508  SOLV      2699            0.0000000000
      8218      2711  TIP3      OH2           -13.3020049752       13.3608106768       -0.0467571492  SOLV      2700            0.0000000000
      8219      2711  TIP3      H1            -12.5697649752       13.6154006768        0.5146928508  SOLV      2700            0.0000000000
      8220      2711  TIP3      H2            -14.0821349752       13.5653506768        0.4687828508  SOLV      2700            0.0000000000
      8221      2712  TIP3      OH2            -7.2727149752        8.7678106768       -7.3087871492  SOLV      2701            0.0000000000
      8222      2712  TIP3      H1             -6.7083749752        8.2214706768       -7.8558271492  SOLV      2701            0.0000000000
      8223      2712  TIP3      H2             -7.4203749752        8.2460006768       -6.5200271492  SOLV      2701            0.0000000000
      8224      2713  TIP3      OH2           -12.2707449752        4.9044206768      -10.8903071492  SOLV      2702            0.0000000000
      8225      2713  TIP3      H1            -12.5877949752        4.0019506768      -10.9257671492  SOLV      2702            0.0000000000
      8226      2713  TIP3      H2            -11.4893349752        4.9061606768      -11.4431471492  SOLV      2702            0.0000000000
      8227      2714  TIP3      OH2            -8.6461249752        7.1564206768       -4.8947471492  SOLV      2703            0.0000000000
      8228      2714  TIP3      H1             -9.4815949752        7.6103706768       -4.7845071492  SOLV      2703            0.0000000000
      8229      2714  TIP3      H2             -8.1220649752        7.4322706768       -4.1427571492  SOLV      2703            0.0000000000
      8230      2715  TIP3      OH2            -8.1018649752       13.3691906768      -13.2101071492  SOLV      2704            0.0000000000
      8231      2715  TIP3      H1             -8.8467649752       12.8617206768      -13.5323171492  SOLV      2704            0.0000000000
      8232      2715  TIP3      H2             -8.2361449752       13.4179906768      -12.2636271492  SOLV      2704            0.0000000000
      8233      2716  TIP3      OH2            -0.9519749752       12.5020106768       -4.4233471492  SOLV      2705            0.0000000000
      8234      2716  TIP3      H1             -0.3100949752       12.9586406768       -4.9671271492  SOLV      2705            0.0000000000
      8235      2716  TIP3      H2             -1.7822849752       12.6152506768       -4.8859371492  SOLV      2705            0.0000000000
      8236      2717  TIP3      OH2            -4.2041849752        6.1831806768      -15.0108471492  SOLV      2706            0.0000000000
      8237      2717  TIP3      H1             -5.1427649752        6.2947406768      -15.1619671492  SOLV      2706            0.0000000000
      8238      2717  TIP3      H2             -3.9069749752        7.0398706768      -14.7042771492  SOLV      2706            0.0000000000
      8239      2718  TIP3      OH2            -6.5826549752       13.5535206768       -1.9731971492  SOLV      2707            0.0000000000
      8240      2718  TIP3      H1             -6.9280449752       13.1717606768       -1.1662371492  SOLV      2707            0.0000000000
      8241      2718  TIP3      H2             -6.7826449752       14.4868806768       -1.9019071492  SOLV      2707            0.0000000000
      8242      2719  TIP3      OH2            -3.4858349752        8.0504506768      -13.3501071492  SOLV      2708            0.0000000000
      8243      2719  TIP3      H1             -2.5939349752        7.9129506768      -13.0309871492  SOLV      2708            0.0000000000
      8244      2719  TIP3      H2             -3.4294749752        8.8410606768      -13.8867571492  SOLV      2708            0.0000000000
      8245      2720  TIP3      OH2           -12.9770349752       12.6641906768       -7.4403171492  SOLV      2709            0.0000000000
      8246      2720  TIP3      H1            -12.2323149752       12.6617606768       -8.0416671492  SOLV      2709            0.0000000000
      8247      2720  TIP3      H2            -12.8993749752       11.8405706768       -6.9588071492  SOLV      2709            0.0000000000
      8248      2721  TIP3      OH2            -5.9764549752       14.8276206768      -14.1846471492  SOLV      2710            0.0000000000
      8249      2721  TIP3      H1             -6.2716149752       15.6544106768      -13.8031671492  SOLV      2710            0.0000000000
      8250      2721  TIP3      H2             -6.6794549752       14.2083106768      -13.9885071492  SOLV      2710            0.0000000000
      8251      2722  TIP3      OH2           -15.9690649752       11.1248806768       -2.1254671492  SOLV      2711            0.0000000000
      8252      2722  TIP3      H1            -15.7462049752       10.7068406768       -1.2937171492  SOLV      2711            0.0000000000
      8253      2722  TIP3      H2            -16.5710549752       10.5123806768       -2.5481871492  SOLV      2711            0.0000000000
      8254      2723  TIP3      OH2            -8.9525749752       10.6418706768        0.0875028508  SOLV      2712            0.0000000000
      8255      2723  TIP3      H1             -9.2484949752       10.4761706768       -0.8075871492  SOLV      2712            0.0000000000
      8256      2723  TIP3      H2             -8.0210549752       10.4219006768        0.0768928508  SOLV      2712            0.0000000000
      8257      2724  TIP3      OH2            -4.3322949752       16.0150706768       -2.0226971492  SOLV      2713            0.0000000000
      8258      2724  TIP3      H1             -5.2328649752       16.1983306768       -2.2903071492  SOLV      2713            0.0000000000
      8259      2724  TIP3      H2             -4.2981849752       16.2740006768       -1.1018171492  SOLV      2713            0.0000000000
      8260      2725  TIP3      OH2             1.3990350248        8.2598606768      -13.6554371492  SOLV      2714            0.0000000000
      8261      2725  TIP3      H1              0.8446650248        7.8636606768      -14.3276871492  SOLV      2714            0.0000000000
      8262      2725  TIP3      H2              1.4993950248        9.1703806768      -13.9331071492  SOLV      2714            0.0000000000
      8263      2726  TIP3      OH2             1.3622350248       14.0600306768       -0.8182871492  SOLV      2715            0.0000000000
      8264      2726  TIP3      H1              0.5110850248       14.2984106768       -1.1856471492  SOLV      2715            0.0000000000
      8265      2726  TIP3      H2              1.9525750248       14.0433506768       -1.5715771492  SOLV      2715            0.0000000000
      8266      2727  TIP3      OH2            -0.3057949752       17.0459006768      -13.1902271492  SOLV      2716            0.0000000000
      8267      2727  TIP3      H1             -0.6786849752       16.2202806768      -12.8811671492  SOLV      2716            0.0000000000
      8268      2727  TIP3      H2             -0.0284449752       16.8628406768      -14.0878871492  SOLV      2716            0.0000000000
      8269      2728  TIP3      OH2            -3.1454049752       11.8538506768       -6.1690371492  SOLV      2717            0.0000000000
      8270      2728  TIP3      H1             -4.0737149752       11.6220406768       -6.1961071492  SOLV      2717            0.0000000000
      8271      2728  TIP3      H2             -2.6942949752       11.0768306768       -6.4991571492  SOLV      2717            0.0000000000
      8272      2729  TIP3      OH2           -10.6020949752       16.1820106768      -10.0361671492  SOLV      2718            0.0000000000
      8273      2729  TIP3      H1            -10.0748749752       16.9554506768      -10.2362871492  SOLV      2718            0.0000000000
      8274      2729  TIP3      H2            -11.4822449752       16.4069306768      -10.3377671492  SOLV      2718            0.0000000000
      8275      2730  TIP3      OH2           -14.8473249752       11.0444206768      -15.4489271492  SOLV      2719            0.0000000000
      8276      2730  TIP3      H1            -14.2313349752       11.6711406768      -15.0694471492  SOLV      2719            0.0000000000
      8277      2730  TIP3      H2            -15.7090649752       11.3604006768      -15.1772771492  SOLV      2719            0.0000000000
      8278      2731  TIP3      OH2            -9.1748649752       13.8450006768      -10.4597371492  SOLV      2720            0.0000000000
      8279      2731  TIP3      H1             -9.4158649752       14.7704406768      -10.4182071492  SOLV      2720            0.0000000000
      8280      2731  TIP3      H2             -9.9155049752       13.3861306768      -10.0633471492  SOLV      2720            0.0000000000
      8281      2732  TIP3      OH2            -8.6602049752       17.9943606768       -4.1446271492  SOLV      2721            0.0000000000
      8282      2732  TIP3      H1             -8.2977349752       18.8489206768       -4.3781871492  SOLV      2721            0.0000000000
      8283      2732  TIP3      H2             -8.1286849752       17.7025206768       -3.4039971492  SOLV      2721            0.0000000000
      8284      2733  TIP3      OH2           -10.4917849752       18.8667606768      -10.9145171492  SOLV      2722            0.0000000000
      8285      2733  TIP3      H1            -11.4417349752       18.9725006768      -10.8631871492  SOLV      2722            0.0000000000
      8286      2733  TIP3      H2            -10.1399749752       19.6875006768      -10.5697671492  SOLV      2722            0.0000000000
      8287      2734  TIP3      OH2            -5.1161249752       14.0934306768       -4.4440671492  SOLV      2723            0.0000000000
      8288      2734  TIP3      H1             -5.5419949752       13.8656006768       -3.6176671492  SOLV      2723            0.0000000000
      8289      2734  TIP3      H2             -4.5355449752       13.3546106768       -4.6265371492  SOLV      2723            0.0000000000
      8290      2735  TIP3      OH2            -2.9132349752       15.0224806768      -15.3701671492  SOLV      2724            0.0000000000
      8291      2735  TIP3      H1             -2.5599249752       14.6424606768      -14.5658171492  SOLV      2724            0.0000000000
      8292      2735  TIP3      H2             -3.8618849752       14.9289606768      -15.2832371492  SOLV      2724            0.0000000000
      8293      2736  TIP3      OH2            -2.4577049752       18.6453806768       -1.9745871492  SOLV      2725            0.0000000000
      8294      2736  TIP3      H1             -3.0593849752       18.0896706768       -2.4699571492  SOLV      2725            0.0000000000
      8295      2736  TIP3      H2             -2.1763349752       19.3123606768       -2.6008471492  SOLV      2725            0.0000000000
      8296      2737  TIP3      OH2             1.5902050248       19.5017306768      -15.1691471492  SOLV      2726            0.0000000000
      8297      2737  TIP3      H1              2.3339950248       20.0877806768      -15.3089871492  SOLV      2726            0.0000000000
      8298      2737  TIP3      H2              0.8960150248       20.0703106768      -14.8359071492  SOLV      2726            0.0000000000
      8299      2738  TIP3      OH2           -14.3351149752        5.8781506768       -2.5673271492  SOLV      2727            0.0000000000
      8300      2738  TIP3      H1            -15.2278849752        6.2166906768       -2.6349271492  SOLV      2727            0.0000000000
      8301      2738  TIP3      H2            -14.4338349752        5.0227606768       -2.1492471492  SOLV      2727            0.0000000000
      8302      2739  TIP3      OH2            -2.0473049752       13.6946806768      -13.1433771492  SOLV      2728            0.0000000000
      8303      2739  TIP3      H1             -2.3245449752       12.9666106768      -12.5872671492  SOLV      2728            0.0000000000
      8304      2739  TIP3      H2             -1.1200049752       13.8138806768      -12.9381171492  SOLV      2728            0.0000000000
      8305      2740  TIP3      OH2           -14.6839149752       17.6825906768       -4.1323871492  SOLV      2729            0.0000000000
      8306      2740  TIP3      H1            -14.4668849752       16.7508306768       -4.1634171492  SOLV      2729            0.0000000000
      8307      2740  TIP3      H2            -14.4375649752       17.9570906768       -3.2491071492  SOLV      2729            0.0000000000
      8308      2741  TIP3      OH2            -8.8224549752       16.1340906768      -16.9231671492  SOLV      2730            0.0000000000
      8309      2741  TIP3      H1             -8.5834749752       15.3859006768      -17.4702771492  SOLV      2730            0.0000000000
      8310      2741  TIP3      H2             -9.0913249752       15.7462606768      -16.0903871492  SOLV      2730            0.0000000000
      8311      2742  TIP3      OH2            -9.8853949752       15.7044706768      -14.4669071492  SOLV      2731            0.0000000000
      8312      2742  TIP3      H1             -9.7385949752       15.1844506768      -13.6768171492  SOLV      2731            0.0000000000
      8313      2742  TIP3      H2             -9.8882249752       16.6112306768      -14.1603171492  SOLV      2731            0.0000000000
      8314      2743  TIP3      OH2           -13.4322849752       12.9568006768      -13.9563671492  SOLV      2732            0.0000000000
      8315      2743  TIP3      H1            -14.1183549752       13.3090506768      -13.3893971492  SOLV      2732            0.0000000000
      8316      2743  TIP3      H2            -12.9094949752       13.7197606768      -14.2029371492  SOLV      2732            0.0000000000
      8317      2744  TIP3      OH2            -5.6007749752        5.6191806768       -3.6774671492  SOLV      2733            0.0000000000
      8318      2744  TIP3      H1             -4.9019849752        5.6930506768       -3.0274971492  SOLV      2733            0.0000000000
      8319      2744  TIP3      H2             -5.9816349752        4.7546806768       -3.5231771492  SOLV      2733            0.0000000000
      8320      2745  TIP3      OH2            -4.8162849752        5.2713506768      -12.5802371492  SOLV      2734            0.0000000000
      8321      2745  TIP3      H1             -4.5964549752        5.7428906768      -13.3836971492  SOLV      2734            0.0000000000
      8322      2745  TIP3      H2             -4.2578849752        5.6656106768      -11.9101771492  SOLV      2734            0.0000000000
      8323      2746  TIP3      OH2            -7.1476749752       17.4018306768      -13.7174871492  SOLV      2735            0.0000000000
      8324      2746  TIP3      H1             -7.9640649752       17.8988006768      -13.6650571492  SOLV      2735            0.0000000000
      8325      2746  TIP3      H2             -6.6180449752       17.8771806768      -14.3576071492  SOLV      2735            0.0000000000
      8326      2747  TIP3      OH2            -7.6162949752        6.9992306768      -11.7453971492  SOLV      2736            0.0000000000
      8327      2747  TIP3      H1             -6.8040349752        7.5035506768      -11.6992271492  SOLV      2736            0.0000000000
      8328      2747  TIP3      H2             -7.8609949752        6.8542006768      -10.8314371492  SOLV      2736            0.0000000000
      8329      2748  TIP3      OH2            -7.0806549752        7.9855006768       -2.5607371492  SOLV      2737            0.0000000000
      8330      2748  TIP3      H1             -6.9616249752        8.5590406768       -1.8036971492  SOLV      2737            0.0000000000
      8331      2748  TIP3      H2             -6.4251949752        7.2974406768       -2.4459571492  SOLV      2737            0.0000000000
      8332      2749  TIP3      OH2            -6.7326249752        4.0805306768      -10.8072871492  SOLV      2738            0.0000000000
      8333      2749  TIP3      H1             -7.0792749752        4.6975906768      -10.1628571492  SOLV      2738            0.0000000000
      8334      2749  TIP3      H2             -6.0739349752        4.5811006768      -11.2887371492  SOLV      2738            0.0000000000
      8335      2750  TIP3      OH2            -9.8093649752       18.4455506768      -13.7357971492  SOLV      2739            0.0000000000
      8336      2750  TIP3      H1             -9.6484949752       19.2453006768      -14.2365371492  SOLV      2739            0.0000000000
      8337      2750  TIP3      H2            -10.0065849752       18.7521506768      -12.8507371492  SOLV      2739            0.0000000000
      8338      2751  TIP3      OH2           -11.0749249752        5.1434706768      -14.1200371492  SOLV      2740            0.0000000000
      8339      2751  TIP3      H1            -11.1584449752        6.0317806768      -13.7733971492  SOLV      2740            0.0000000000
      8340      2751  TIP3      H2            -10.1848949752        4.8781406768      -13.8883571492  SOLV      2740            0.0000000000
      8341      2752  TIP3      OH2            -0.8760749752        5.8925306768       -1.7257671492  SOLV      2741            0.0000000000
      8342      2752  TIP3      H1             -1.7924949752        6.1547006768       -1.8133971492  SOLV      2741            0.0000000000
      8343      2752  TIP3      H2             -0.5405749752        5.8894306768       -2.6222371492  SOLV      2741            0.0000000000
      8344      2753  TIP3      OH2            -2.2739749752        9.6426306768       -7.6300371492  SOLV      2742            0.0000000000
      8345      2753  TIP3      H1             -3.0715349752        9.2276506768       -7.9585371492  SOLV      2742            0.0000000000
      8346      2753  TIP3      H2             -1.8288649752        8.9520006768       -7.1389871492  SOLV      2742            0.0000000000
      8347      2754  TIP3      OH2           -12.8163949752       15.5706906768      -15.0595871492  SOLV      2743            0.0000000000
      8348      2754  TIP3      H1            -12.2242449752       16.2701706768      -14.7833471492  SOLV      2743            0.0000000000
      8349      2754  TIP3      H2            -12.3570949752       15.1376406768      -15.7791271492  SOLV      2743            0.0000000000
      8350      2755  TIP3      OH2           -14.5004749752        8.2349906768      -15.9436471492  SOLV      2744            0.0000000000
      8351      2755  TIP3      H1            -14.5452149752        9.1743006768      -15.7649471492  SOLV      2744            0.0000000000
      8352      2755  TIP3      H2            -15.3881549752        7.9994806768      -16.2134371492  SOLV      2744            0.0000000000
      8353      2756  TIP3      OH2            -1.1875149752       18.8988806768       -6.0076871492  SOLV      2745            0.0000000000
      8354      2756  TIP3      H1             -1.3430849752       19.5773206768       -6.6647571492  SOLV      2745            0.0000000000
      8355      2756  TIP3      H2             -0.2548749752       18.9708106768       -5.8046271492  SOLV      2745            0.0000000000
      8356      2757  TIP3      OH2           -13.6922749752        3.0166506768       -7.2705471492  SOLV      2746            0.0000000000
      8357      2757  TIP3      H1            -13.9212949752        3.0759006768       -8.1980471492  SOLV      2746            0.0000000000
      8358      2757  TIP3      H2            -14.1349349752        2.2252006768       -6.9641371492  SOLV      2746            0.0000000000
      8359      2758  TIP3      OH2           -14.7619449752       16.9573606768      -11.1099671492  SOLV      2747            0.0000000000
      8360      2758  TIP3      H1            -15.5940849752       17.4296306768      -11.0828271492  SOLV      2747            0.0000000000
      8361      2758  TIP3      H2            -14.2161149752       17.4671206768      -11.7086571492  SOLV      2747            0.0000000000
      8362      2759  TIP3      OH2           -15.4735749752       19.5697306768        0.2198328508  SOLV      2748            0.0000000000
      8363      2759  TIP3      H1            -14.9333549752       19.3531306768        0.9797528508  SOLV      2748            0.0000000000
      8364      2759  TIP3      H2            -15.9547749752       18.7643306768        0.0300828508  SOLV      2748            0.0000000000
      8365      2760  TIP3      OH2           -10.8762349752       18.4891706768        1.8402528508  SOLV      2749            0.0000000000
      8366      2760  TIP3      H1            -10.1085149752       18.0302506768        2.1811728508  SOLV      2749            0.0000000000
      8367      2760  TIP3      H2            -10.8976149752       18.2631506768        0.9103728508  SOLV      2749            0.0000000000
      8368      2761  TIP3      OH2            -6.7842749752       17.9972306768      -16.7845671492  SOLV      2750            0.0000000000
      8369      2761  TIP3      H1             -7.4281749752       17.3660906768      -16.4631971492  SOLV      2750            0.0000000000
      8370      2761  TIP3      H2             -6.0224449752       17.4660306768      -17.0162171492  SOLV      2750            0.0000000000
      8371      2762  TIP3      OH2            -4.2993649752       16.8692806768        0.5694028508  SOLV      2751            0.0000000000
      8372      2762  TIP3      H1             -4.6504149752       16.0125806768        0.8124428508  SOLV      2751            0.0000000000
      8373      2762  TIP3      H2             -3.5730449752       17.0119506768        1.1763028508  SOLV      2751            0.0000000000
      8374      2763  TIP3      OH2            -2.1799849752       17.8142206768      -16.5507671492  SOLV      2752            0.0000000000
      8375      2763  TIP3      H1             -1.8969449752       17.0197406768      -16.0980771492  SOLV      2752            0.0000000000
      8376      2763  TIP3      H2             -1.4401949752       18.0473206768      -17.1116571492  SOLV      2752            0.0000000000
      8377      2764  TIP3      OH2           -15.5666249752       13.3801406768        1.1742628508  SOLV      2753            0.0000000000
      8378      2764  TIP3      H1            -15.4225749752       12.4782106768        0.8879328508  SOLV      2753            0.0000000000
      8379      2764  TIP3      H2            -16.3388849752       13.6663506768        0.6864928508  SOLV      2753            0.0000000000
      8380      2765  TIP3      OH2           -11.2252549752       13.7237106768      -16.6932771492  SOLV      2754            0.0000000000
      8381      2765  TIP3      H1            -11.1608449752       12.9296706768      -16.1626371492  SOLV      2754            0.0000000000
      8382      2765  TIP3      H2            -10.5723349752       13.6049906768      -17.3830771492  SOLV      2754            0.0000000000
      8383      2766  TIP3      OH2            -8.9110149752       13.3499506768        0.6069028508  SOLV      2755            0.0000000000
      8384      2766  TIP3      H1             -9.2396349752       13.6207606768       -0.2503571492  SOLV      2755            0.0000000000
      8385      2766  TIP3      H2             -8.7591949752       12.4089306768        0.5194028508  SOLV      2755            0.0000000000
      8386      2767  TIP3      OH2            -5.8729149752       14.7708806768      -16.9574771492  SOLV      2756            0.0000000000
      8387      2767  TIP3      H1             -6.1415049752       14.9510906768      -16.0565871492  SOLV      2756            0.0000000000
      8388      2767  TIP3      H2             -6.0793549752       13.8455006768      -17.0888971492  SOLV      2756            0.0000000000
      8389      2768  TIP3      OH2            -3.1764949752       13.2656806768       -2.0098671492  SOLV      2757            0.0000000000
      8390      2768  TIP3      H1             -2.4310149752       13.8540506768       -2.1294671492  SOLV      2757            0.0000000000
      8391      2768  TIP3      H2             -3.9338149752       13.8476506768       -1.9465571492  SOLV      2757            0.0000000000
      8392      2769  TIP3      OH2           -14.7339749752       10.5804706768        0.5941928508  SOLV      2758            0.0000000000
      8393      2769  TIP3      H1            -14.3258549752        9.7231306768        0.4732528508  SOLV      2758            0.0000000000
      8394      2769  TIP3      H2            -14.9942149752       10.5946006768        1.5152228508  SOLV      2758            0.0000000000
      8395      2770  TIP3      OH2           -10.0758749752       11.6963306768      -14.3874771492  SOLV      2759            0.0000000000
      8396      2770  TIP3      H1            -10.5356749752       11.2121606768      -13.7016271492  SOLV      2759            0.0000000000
      8397      2770  TIP3      H2             -9.8210049752       11.0278706768      -15.0234271492  SOLV      2759            0.0000000000
      8398      2771  TIP3      OH2           -10.7869449752        9.5890406768       -2.0315171492  SOLV      2760            0.0000000000
      8399      2771  TIP3      H1            -11.4053349752       10.2637006768       -1.7510471492  SOLV      2760            0.0000000000
      8400      2771  TIP3      H2            -10.4428249752        9.9104306768       -2.8648971492  SOLV      2760            0.0000000000
      8401      2772  TIP3      OH2            -9.0048349752        9.9395106768      -16.1251571492  SOLV      2761            0.0000000000
      8402      2772  TIP3      H1             -9.1853349752        9.7846306768      -17.0523271492  SOLV      2761            0.0000000000
      8403      2772  TIP3      H2             -8.0547849752       10.0473806768      -16.0803671492  SOLV      2761            0.0000000000
      8404      2773  TIP3      OH2            -5.7671249752       12.0605706768        1.2459628508  SOLV      2762            0.0000000000
      8405      2773  TIP3      H1             -4.8140049752       12.1444806768        1.2185628508  SOLV      2762            0.0000000000
      8406      2773  TIP3      H2             -5.9276649752       11.3487506768        1.8654528508  SOLV      2762            0.0000000000
      8407      2774  TIP3      OH2             0.3849950248       12.2939306768      -16.6793471492  SOLV      2763            0.0000000000
      8408      2774  TIP3      H1              0.1114750248       11.8694806768      -17.4925171492  SOLV      2763            0.0000000000
      8409      2774  TIP3      H2              0.4244050248       13.2253806768      -16.8963071492  SOLV      2763            0.0000000000
      8410      2775  TIP3      OH2           -10.4475749752        6.9441206768       -0.9492071492  SOLV      2764            0.0000000000
      8411      2775  TIP3      H1            -10.2974849752        6.2152506768       -1.5512371492  SOLV      2764            0.0000000000
      8412      2775  TIP3      H2            -10.4453349752        7.7212906768       -1.5079871492  SOLV      2764            0.0000000000
      8413      2776  TIP3      OH2            -8.4531649752       10.7533206768       -3.2169471492  SOLV      2765            0.0000000000
      8414      2776  TIP3      H1             -7.7026849752       10.5970706768       -3.7901671492  SOLV      2765            0.0000000000
      8415      2776  TIP3      H2             -8.7923349752       11.6049806768       -3.4923971492  SOLV      2765            0.0000000000
      8416      2777  TIP3      OH2            -4.0375449752        8.5685006768        1.8115828508  SOLV      2766            0.0000000000
      8417      2777  TIP3      H1             -3.8454149752        7.6374406768        1.7000328508  SOLV      2766            0.0000000000
      8418      2777  TIP3      H2             -3.1799149752        8.9934506768        1.8011228508  SOLV      2766            0.0000000000
      8419      2778  TIP3      OH2            -2.7208249752       11.3570206768       -0.1111471492  SOLV      2767            0.0000000000
      8420      2778  TIP3      H1             -3.0023249752       12.0664806768       -0.6887671492  SOLV      2767            0.0000000000
      8421      2778  TIP3      H2             -1.7783949752       11.2843206768       -0.2620271492  SOLV      2767            0.0000000000
      8422      2779  TIP3      OH2           -11.9689449752        8.1424706768        0.9623528508  SOLV      2768            0.0000000000
      8423      2779  TIP3      H1            -12.7360449752        7.6099506768        0.7521128508  SOLV      2768            0.0000000000
      8424      2779  TIP3      H2            -11.2900449752        7.8325106768        0.3629828508  SOLV      2768            0.0000000000
      8425      2780  TIP3      OH2            -7.9654049752        7.0918106768        0.5387328508  SOLV      2769            0.0000000000
      8426      2780  TIP3      H1             -8.2008649752        6.8724806768        1.4402228508  SOLV      2769            0.0000000000
      8427      2780  TIP3      H2             -8.7487149752        6.8849306768        0.0289828508  SOLV      2769            0.0000000000
      8428      2781  TIP3      OH2           -13.7886649752        6.0628506768        0.6668228508  SOLV      2770            0.0000000000
      8429      2781  TIP3      H1            -13.5769249752        5.3564606768        0.0565728508  SOLV      2770            0.0000000000
      8430      2781  TIP3      H2            -13.8999149752        5.6254506768        1.5109428508  SOLV      2770            0.0000000000
      8431      2782  TIP3      OH2           -15.5391749752       15.2662606768      -15.6409871492  SOLV      2771            0.0000000000
      8432      2782  TIP3      H1            -14.6252549752       15.3451506768      -15.3675971492  SOLV      2771            0.0000000000
      8433      2782  TIP3      H2            -15.5318649752       14.5792206768      -16.3074271492  SOLV      2771            0.0000000000
      8434      2783  TIP3      OH2           -16.8901149752       20.6591106768      -10.5635971492  SOLV      2772            0.0000000000
      8435      2783  TIP3      H1            -17.5374049752       20.1972806768      -11.0964771492  SOLV      2772            0.0000000000
      8436      2783  TIP3      H2            -16.5356549752       19.9874406768       -9.9809771492  SOLV      2772            0.0000000000
      8437      2784  TIP3      OH2           -16.0201949752       18.7398106768       -8.7589771492  SOLV      2773            0.0000000000
      8438      2784  TIP3      H1            -16.3545149752       17.8595406768       -8.5869571492  SOLV      2773            0.0000000000
      8439      2784  TIP3      H2            -15.7979549752       19.0853106768       -7.8944171492  SOLV      2773            0.0000000000
      8440      2785  TIP3      OH2             1.5282850248       19.5494506768       -5.7784971492  SOLV      2774            0.0000000000
      8441      2785  TIP3      H1              1.5069550248       19.7342906768       -4.8395571492  SOLV      2774            0.0000000000
      8442      2785  TIP3      H2              2.2189050248       20.1178506768       -6.1193571492  SOLV      2774            0.0000000000
      8443      2786  TIP3      OH2             1.0915750248       19.1165606768       -2.8565871492  SOLV      2775            0.0000000000
      8444      2786  TIP3      H1              0.6044450248       18.3809706768       -3.2278471492  SOLV      2775            0.0000000000
      8445      2786  TIP3      H2              1.6408450248       18.7229506768       -2.1786471492  SOLV      2775            0.0000000000
      8446      2787  TIP3      OH2            -0.4576949752       14.9063706768        1.7814428508  SOLV      2776            0.0000000000
      8447      2787  TIP3      H1             -1.3235849752       14.8013406768        2.1756728508  SOLV      2776            0.0000000000
      8448      2787  TIP3      H2             -0.0811049752       15.6647006768        2.2279128508  SOLV      2776            0.0000000000
      8449      2788  TIP3      OH2             0.8432750248       13.1627406768      -12.7043071492  SOLV      2777            0.0000000000
      8450      2788  TIP3      H1              1.6934150248       13.5838306768      -12.5771471492  SOLV      2777            0.0000000000
      8451      2788  TIP3      H2              0.8487850248       12.4227506768      -12.0971671492  SOLV      2777            0.0000000000
      8452      2789  TIP3      OH2             1.2378350248       11.2164806768      -10.8807371492  SOLV      2778            0.0000000000
      8453      2789  TIP3      H1              0.5112950248       10.7367406768      -10.4829771492  SOLV      2778            0.0000000000
      8454      2789  TIP3      H2              1.8191650248       11.4219506768      -10.1485771492  SOLV      2778            0.0000000000
      8455      2790  TIP3      OH2             0.9969550248       14.0012306768       -5.9329771492  SOLV      2779            0.0000000000
      8456      2790  TIP3      H1              1.8303750248       13.6232306768       -6.2136171492  SOLV      2779            0.0000000000
      8457      2790  TIP3      H2              1.1089850248       14.9443506768       -6.0520671492  SOLV      2779            0.0000000000
      8458      2791  TIP3      OH2            -0.5168149752       16.8789806768       -3.6261371492  SOLV      2780            0.0000000000
      8459      2791  TIP3      H1             -1.1642849752       17.2041306768       -3.0006171492  SOLV      2780            0.0000000000
      8460      2791  TIP3      H2             -1.0344149752       16.4387506768       -4.3003071492  SOLV      2780            0.0000000000
      8461      2792  TIP3      OH2             1.5061450248       11.1173306768      -14.4896071492  SOLV      2781            0.0000000000
      8462      2792  TIP3      H1              0.9842550248       11.4737406768      -15.2085171492  SOLV      2781            0.0000000000
      8463      2792  TIP3      H2              1.4730650248       11.7921106768      -13.8115171492  SOLV      2781            0.0000000000
      8464      2793  TIP3      OH2            -0.1449549752        8.3568906768      -15.9388971492  SOLV      2782            0.0000000000
      8465      2793  TIP3      H1             -0.0485149752        9.0235906768      -16.6189271492  SOLV      2782            0.0000000000
      8466      2793  TIP3      H2             -0.2849949752        7.5415206768      -16.4203471492  SOLV      2782            0.0000000000
      8467      2794  TIP3      OH2            -0.9754849752        9.7371306768      -10.3178671492  SOLV      2783            0.0000000000
      8468      2794  TIP3      H1             -1.1256049752        8.7919906768      -10.3380871492  SOLV      2783            0.0000000000
      8469      2794  TIP3      H2             -1.3290349752       10.0182706768       -9.4739571492  SOLV      2783            0.0000000000
      8470      2795  TIP3      OH2           -15.9402449752       11.8153506768       -6.3074871492  SOLV      2784            0.0000000000
      8471      2795  TIP3      H1            -15.7559549752       11.7335206768       -7.2431971492  SOLV      2784            0.0000000000
      8472      2795  TIP3      H2            -15.0909549752       11.6910506768       -5.8838471492  SOLV      2784            0.0000000000
      8473      2796  TIP3      OH2            -0.1191949752       11.7074606768       -0.6790371492  SOLV      2785            0.0000000000
      8474      2796  TIP3      H1              0.4635350248       10.9726906768       -0.4873171492  SOLV      2785            0.0000000000
      8475      2796  TIP3      H2              0.4447350248       12.4794906768       -0.6324571492  SOLV      2785            0.0000000000
      8476      2797  TIP3      OH2             1.3775150248        9.6100406768        0.0055028508  SOLV      2786            0.0000000000
      8477      2797  TIP3      H1              0.5141850248        9.2312506768       -0.1600271492  SOLV      2786            0.0000000000
      8478      2797  TIP3      H2              1.9818850248        8.8715206768       -0.0689171492  SOLV      2786            0.0000000000
      8479      2798  TIP3      OH2            -0.8975749752        5.7648706768      -16.8213471492  SOLV      2787            0.0000000000
      8480      2798  TIP3      H1             -0.2869949752        5.3935506768      -16.1845271492  SOLV      2787            0.0000000000
      8481      2798  TIP3      H2             -1.7344249752        5.3435606768      -16.6253471492  SOLV      2787            0.0000000000
      8482      2799  TIP3      OH2            -1.2650049752        7.3197106768      -11.8553571492  SOLV      2788            0.0000000000
      8483      2799  TIP3      H1             -0.9852949752        6.4127506768      -11.7311871492  SOLV      2788            0.0000000000
      8484      2799  TIP3      H2             -0.5058349752        7.7538606768      -12.2444371492  SOLV      2788            0.0000000000
      8485      2800  TIP3      OH2            -0.6531749752        7.9014506768       -6.4194671492  SOLV      2789            0.0000000000
      8486      2800  TIP3      H1              0.2796250248        8.1134406768       -6.4538671492  SOLV      2789            0.0000000000
      8487      2800  TIP3      H2             -0.8884249752        8.0026606768       -5.4971671492  SOLV      2789            0.0000000000
      8488      2801  TIP3      OH2            -0.6239849752        8.6379806768       -3.6435271492  SOLV      2790            0.0000000000
      8489      2801  TIP3      H1             -1.4668549752        8.9060206768       -3.2775471492  SOLV      2790            0.0000000000
      8490      2801  TIP3      H2             -0.1815549752        9.4601706768       -3.8544171492  SOLV      2790            0.0000000000
      8491      2802  TIP3      OH2           -16.3427649752        7.0858506768       -0.1666071492  SOLV      2791            0.0000000000
      8492      2802  TIP3      H1            -15.4232749752        6.9636806768        0.0697028508  SOLV      2791            0.0000000000
      8493      2802  TIP3      H2            -16.7923149752        6.3358206768        0.2227428508  SOLV      2791            0.0000000000
      8494      2803  TIP3      OH2            -0.6515249752        4.5826406768      -11.8071571492  SOLV      2792            0.0000000000
      8495      2803  TIP3      H1             -0.4690249752        4.1337906768      -10.9816571492  SOLV      2792            0.0000000000
      8496      2803  TIP3      H2             -1.2512349752        3.9980806768      -12.2706971492  SOLV      2792            0.0000000000
      8497      2804  TIP3      OH2           -15.1215149752        5.3980106768       -7.2753171492  SOLV      2793            0.0000000000
      8498      2804  TIP3      H1            -14.6763549752        4.6062606768       -6.9733471492  SOLV      2793            0.0000000000
      8499      2804  TIP3      H2            -14.6552149752        6.1145306768       -6.8447571492  SOLV      2793            0.0000000000
      8500      2805  TIP3      OH2           -16.8174849752        8.3973106768       -6.2062971492  SOLV      2794            0.0000000000
      8501      2805  TIP3      H1            -16.3255049752        8.1763606768       -6.9970971492  SOLV      2794            0.0000000000
      8502      2805  TIP3      H2            -16.4553949752        9.2376506768       -5.9253471492  SOLV      2794            0.0000000000
      8503      2806  TIP3      OH2             1.2150950248        4.6504506768      -15.2791271492  SOLV      2795            0.0000000000
      8504      2806  TIP3      H1              1.6273550248        3.9290206768      -15.7543271492  SOLV      2795            0.0000000000
      8505      2806  TIP3      H2              1.8967450248        5.3199106768      -15.2206971492  SOLV      2795            0.0000000000
      8506      2807  TIP3      OH2           -16.5038349752        4.6552206768      -12.1520571492  SOLV      2796            0.0000000000
      8507      2807  TIP3      H1            -17.4289949752        4.8638806768      -12.2815071492  SOLV      2796            0.0000000000
      8508      2807  TIP3      H2            -16.0498449752        5.1393006768      -12.8418271492  SOLV      2796            0.0000000000
      8509      2808  TIP3      OH2            -1.7331149752       19.6393906768      -10.2063171492  SOLV      2797            0.0000000000
      8510      2808  TIP3      H1             -1.0808249752       19.2916006768      -10.8144071492  SOLV      2797            0.0000000000
      8511      2808  TIP3      H2             -1.2227349752       20.1277106768       -9.5603471492  SOLV      2797            0.0000000000
      8512      2809  TIP3      OH2           -16.5402949752        3.3931206768       -3.8078071492  SOLV      2798            0.0000000000
      8513      2809  TIP3      H1            -17.2052449752        3.1471506768       -3.1647171492  SOLV      2798            0.0000000000
      8514      2809  TIP3      H2            -16.9831649752        4.0151606768       -4.3850071492  SOLV      2798            0.0000000000
      8515      2810  TIP3      OH2           -14.3483649752       16.5685306768        0.3367728508  SOLV      2799            0.0000000000
      8516      2810  TIP3      H1            -15.1691149752       16.7431806768       -0.1237571492  SOLV      2799            0.0000000000
      8517      2810  TIP3      H2            -14.6005849752       16.4950006768        1.2572128508  SOLV      2799            0.0000000000
      8518      2811  TIP3      OH2           -11.3940749752       17.5426506768       -3.4048271492  SOLV      2800            0.0000000000
      8519      2811  TIP3      H1            -11.8189649752       18.3525006768       -3.6873671492  SOLV      2800            0.0000000000
      8520      2811  TIP3      H2            -10.4897949752       17.6280606768       -3.7068471492  SOLV      2800            0.0000000000
      8521      2812  TIP3      OH2            -7.0829349752       18.9416506768       -0.4454571492  SOLV      2801            0.0000000000
      8522      2812  TIP3      H1             -6.8981849752       18.6082606768        0.4325728508  SOLV      2801            0.0000000000
      8523      2812  TIP3      H2             -6.2364849752       19.2515106768       -0.7675371492  SOLV      2801            0.0000000000
      8524      2813  TIP3      OH2            -4.7378949752       20.2275406768       -1.2013171492  SOLV      2802            0.0000000000
      8525      2813  TIP3      H1             -4.0610049752       19.5947706768       -1.4413971492  SOLV      2802            0.0000000000
      8526      2813  TIP3      H2             -4.4160149752       20.6285906768       -0.3939871492  SOLV      2802            0.0000000000
      8527      2814  TIP3      OH2           -13.9924049752       20.7990406768       -3.3572971492  SOLV      2803            0.0000000000
      8528      2814  TIP3      H1            -14.7127649752       21.2391406768       -3.8085271492  SOLV      2803            0.0000000000
      8529      2814  TIP3      H2            -14.3580049752       20.5485106768       -2.5088971492  SOLV      2803            0.0000000000
      8530      2815  TIP3      OH2           -11.5251449752       20.3994306768       -4.3275771492  SOLV      2804            0.0000000000
      8531      2815  TIP3      H1            -12.3899249752       20.4712806768       -3.9235671492  SOLV      2804            0.0000000000
      8532      2815  TIP3      H2            -11.5802449752       20.9461606768       -5.1113271492  SOLV      2804            0.0000000000
      8533      2816  TIP3      OH2            -6.8145849752       20.2873206768       -5.1519771492  SOLV      2805            0.0000000000
      8534      2816  TIP3      H1             -7.2711849752       20.8162906768       -5.8061371492  SOLV      2805            0.0000000000
      8535      2816  TIP3      H2             -6.6517849752       20.8904606768       -4.4267471492  SOLV      2805            0.0000000000
      8536      2817  TIP3      OH2            -4.4869549752       19.1652806768       -4.2069471492  SOLV      2806            0.0000000000
      8537      2817  TIP3      H1             -5.3915849752       19.3303006768       -4.4727371492  SOLV      2806            0.0000000000
      8538      2817  TIP3      H2             -4.0580949752       20.0185006768       -4.2726071492  SOLV      2806            0.0000000000
      8539      2818  TIP3      OH2            -1.8827649752       20.7351906768       -3.9121671492  SOLV      2807            0.0000000000
      8540      2818  TIP3      H1             -2.0645649752       21.6510806768       -4.1226771492  SOLV      2807            0.0000000000
      8541      2818  TIP3      H2             -1.7059849752       20.3249006768       -4.7587071492  SOLV      2807            0.0000000000
      8542      2819  TIP3      OH2           -14.5775949752       19.4222906768       -6.4471171492  SOLV      2808            0.0000000000
      8543      2819  TIP3      H1            -14.5959949752       18.9968006768       -5.5898871492  SOLV      2808            0.0000000000
      8544      2819  TIP3      H2            -13.7728049752       19.1037906768       -6.8558971492  SOLV      2808            0.0000000000
      8545      2820  TIP3      OH2           -12.4362849752       18.1321606768       -7.7921271492  SOLV      2809            0.0000000000
      8546      2820  TIP3      H1            -12.6552149752       17.2159006768       -7.6225271492  SOLV      2809            0.0000000000
      8547      2820  TIP3      H2            -11.6120649752       18.2722006768       -7.3259871492  SOLV      2809            0.0000000000
      8548      2821  TIP3      OH2            -9.8990349752       18.6020906768       -6.9433271492  SOLV      2810            0.0000000000
      8549      2821  TIP3      H1             -9.6864649752       17.7139906768       -7.2302371492  SOLV      2810            0.0000000000
      8550      2821  TIP3      H2             -9.8345249752       18.5678606768       -5.9889271492  SOLV      2810            0.0000000000
      8551      2822  TIP3      OH2            -6.3906649752        4.2661506768       -7.7989971492  SOLV      2811            0.0000000000
      8552      2822  TIP3      H1             -7.0649849752        3.6367106768       -7.5434171492  SOLV      2811            0.0000000000
      8553      2822  TIP3      H2             -5.8267449752        3.7820406768       -8.4022071492  SOLV      2811            0.0000000000
      8554      2823  TIP3      OH2            -1.2479449752        2.3735506768       -7.6862871492  SOLV      2812            0.0000000000
      8555      2823  TIP3      H1             -0.6441849752        2.9210906768       -8.1881871492  SOLV      2812            0.0000000000
      8556      2823  TIP3      H2             -2.1177449752        2.6925906768       -7.9268771492  SOLV      2812            0.0000000000
      8557      2824  TIP3      OH2             0.4790950248        3.5124206768       -9.3531971492  SOLV      2813            0.0000000000
      8558      2824  TIP3      H1              1.0908450248        2.9979906768       -9.8798371492  SOLV      2813            0.0000000000
      8559      2824  TIP3      H2              0.8614350248        4.3896306768       -9.3297571492  SOLV      2813            0.0000000000
      8560      2825  TIP3      OH2           -14.0639149752        2.9001806768       -9.9770071492  SOLV      2814            0.0000000000
      8561      2825  TIP3      H1            -14.8409349752        2.6656706768      -10.4844171492  SOLV      2814            0.0000000000
      8562      2825  TIP3      H2            -13.5335549752        2.1033906768       -9.9682071492  SOLV      2814            0.0000000000
      8563      2826  TIP3      OH2           -15.2275749752        2.6979906768      -14.1733971492  SOLV      2815            0.0000000000
      8564      2826  TIP3      H1            -14.7885049752        3.3090406768      -14.7650471492  SOLV      2815            0.0000000000
      8565      2826  TIP3      H2            -15.8613349752        3.2364006768      -13.6993971492  SOLV      2815            0.0000000000
      8566      2827  TIP3      OH2            -9.4846549752        2.8268906768      -10.1636971492  SOLV      2816            0.0000000000
      8567      2827  TIP3      H1             -8.6103149752        3.2153206768      -10.1932671492  SOLV      2816            0.0000000000
      8568      2827  TIP3      H2             -9.6205749752        2.6116706768       -9.2409771492  SOLV      2816            0.0000000000
      8569      2828  TIP3      OH2            -3.9278149752        2.8568706768       -8.5145271492  SOLV      2817            0.0000000000
      8570      2828  TIP3      H1             -3.8516549752        2.9520306768       -9.4639271492  SOLV      2817            0.0000000000
      8571      2828  TIP3      H2             -4.2028949752        1.9491606768       -8.3856171492  SOLV      2817            0.0000000000
      8572      2829  TIP3      OH2            -2.5745549752        2.8826506768      -12.8220271492  SOLV      2818            0.0000000000
      8573      2829  TIP3      H1             -3.2774449752        3.4975706768      -13.0318871492  SOLV      2818            0.0000000000
      8574      2829  TIP3      H2             -3.0194149752        2.0453206768      -12.6909371492  SOLV      2818            0.0000000000
      8575      2830  TIP3      OH2           -15.3266249752       18.6462106768      -13.2758871492  SOLV      2819            0.0000000000
      8576      2830  TIP3      H1            -16.0116349752       18.6081006768      -13.9433771492  SOLV      2819            0.0000000000
      8577      2830  TIP3      H2            -15.3229049752       19.5589706768      -12.9876771492  SOLV      2819            0.0000000000
      8578      2831  TIP3      OH2           -13.3666649752        4.6141406768      -15.7309871492  SOLV      2820            0.0000000000
      8579      2831  TIP3      H1            -12.8753249752        3.9843806768      -16.2584371492  SOLV      2820            0.0000000000
      8580      2831  TIP3      H2            -12.7430349752        4.9100806768      -15.0678671492  SOLV      2820            0.0000000000
      8581      2832  TIP3      OH2            -8.3406549752        4.9072906768      -13.2739371492  SOLV      2821            0.0000000000
      8582      2832  TIP3      H1             -8.1625249752        4.2606106768      -12.5910771492  SOLV      2821            0.0000000000
      8583      2832  TIP3      H2             -8.3940349752        5.7410606768      -12.8068271492  SOLV      2821            0.0000000000
      8584      2833  TIP3      OH2            -6.4622749752       19.8557006768      -14.8782671492  SOLV      2822            0.0000000000
      8585      2833  TIP3      H1             -5.5962549752       20.2224406768      -15.0564471492  SOLV      2822            0.0000000000
      8586      2833  TIP3      H2             -6.7089949752       19.4165006768      -15.6921871492  SOLV      2822            0.0000000000
      8587      2834  TIP3      OH2             0.2466850248       19.4187306768      -12.1991571492  SOLV      2823            0.0000000000
      8588      2834  TIP3      H1              0.0523950248       18.6709406768      -12.7641971492  SOLV      2823            0.0000000000
      8589      2834  TIP3      H2              0.2076950248       20.1767406768      -12.7823671492  SOLV      2823            0.0000000000
      8590      2835  TIP3      OH2           -14.1061149752        3.4143706768       -0.4593871492  SOLV      2824            0.0000000000
      8591      2835  TIP3      H1            -14.4722949752        2.6486306768       -0.0169171492  SOLV      2824            0.0000000000
      8592      2835  TIP3      H2            -13.1932649752        3.4433906768       -0.1728771492  SOLV      2824            0.0000000000
      8593      2836  TIP3      OH2           -12.1330349752        2.7648106768        1.0763228508  SOLV      2825            0.0000000000
      8594      2836  TIP3      H1            -11.2346749752        2.4908306768        0.8916628508  SOLV      2825            0.0000000000
      8595      2836  TIP3      H2            -12.5197249752        2.0224106768        1.5405828508  SOLV      2825            0.0000000000
      8596      2837  TIP3      OH2           -13.5085049752       19.5662906768      -16.2506771492  SOLV      2826            0.0000000000
      8597      2837  TIP3      H1            -13.7760449752       19.8525806768      -15.3773671492  SOLV      2826            0.0000000000
      8598      2837  TIP3      H2            -12.7372449752       19.0202106768      -16.0984271492  SOLV      2826            0.0000000000
      8599      2838  TIP3      OH2            -0.5356949752       18.1699706768       -0.0489771492  SOLV      2827            0.0000000000
      8600      2838  TIP3      H1             -1.3175049752       17.9837706768       -0.5689171492  SOLV      2827            0.0000000000
      8601      2838  TIP3      H2             -0.6077049752       19.0994006768        0.1682728508  SOLV      2827            0.0000000000
      8602      2839  TIP3      OH2            13.8703450248       12.0564106768      -10.0182571492  SOLV      2828            0.0000000000
      8603      2839  TIP3      H1             13.9594550248       13.0002306768      -10.1505471492  SOLV      2828            0.0000000000
      8604      2839  TIP3      H2             13.2321050248       11.7810506768      -10.6763171492  SOLV      2828            0.0000000000
      8605      2840  TIP3      OH2            12.8034750248       11.3114806768       -6.5994371492  SOLV      2829            0.0000000000
      8606      2840  TIP3      H1             12.7652250248       10.6651106768       -5.8944771492  SOLV      2829            0.0000000000
      8607      2840  TIP3      H2             12.4811250248       10.8449206768       -7.3705671492  SOLV      2829            0.0000000000
      8608      2841  TIP3      OH2             5.1719750248       10.9256906768       -5.0064471492  SOLV      2830            0.0000000000
      8609      2841  TIP3      H1              5.2131850248       10.3000206768       -4.2832071492  SOLV      2830            0.0000000000
      8610      2841  TIP3      H2              5.8747450248       11.5495506768       -4.8244071492  SOLV      2830            0.0000000000
      8611      2842  TIP3      OH2            16.5094950248       14.2505206768       -8.2979271492  SOLV      2831            0.0000000000
      8612      2842  TIP3      H1             16.0687650248       13.5301206768       -7.8473671492  SOLV      2831            0.0000000000
      8613      2842  TIP3      H2             16.4964650248       14.9712406768       -7.6681571492  SOLV      2831            0.0000000000
      8614      2843  TIP3      OH2             6.0952850248       15.3755806768       -6.4715371492  SOLV      2832            0.0000000000
      8615      2843  TIP3      H1              5.7258050248       14.5736306768       -6.8411071492  SOLV      2832            0.0000000000
      8616      2843  TIP3      H2              7.0363950248       15.2070706768       -6.4251971492  SOLV      2832            0.0000000000
      8617      2844  TIP3      OH2             2.7053350248        9.0358406768      -11.0786571492  SOLV      2833            0.0000000000
      8618      2844  TIP3      H1              2.2576750248        9.8817106768      -11.0970071492  SOLV      2833            0.0000000000
      8619      2844  TIP3      H2              2.1444550248        8.4562606768      -11.5941471492  SOLV      2833            0.0000000000
      8620      2845  TIP3      OH2             3.4159450248       11.1978006768       -8.9528571492  SOLV      2834            0.0000000000
      8621      2845  TIP3      H1              3.6292950248       10.4279606768       -8.4255571492  SOLV      2834            0.0000000000
      8622      2845  TIP3      H2              4.1537050248       11.2874706768       -9.5560971492  SOLV      2834            0.0000000000
      8623      2846  TIP3      OH2            13.6210450248       19.3546906768       -8.0858871492  SOLV      2835            0.0000000000
      8624      2846  TIP3      H1             14.2406850248       18.6781606768       -8.3589671492  SOLV      2835            0.0000000000
      8625      2846  TIP3      H2             13.4127850248       19.1367706768       -7.1773971492  SOLV      2835            0.0000000000
      8626      2847  TIP3      OH2            11.1929150248       13.7436206768       -6.1933371492  SOLV      2836            0.0000000000
      8627      2847  TIP3      H1             11.4967050248       13.0577606768       -6.7879271492  SOLV      2836            0.0000000000
      8628      2847  TIP3      H2             11.9143150248       13.8624906768       -5.5755371492  SOLV      2836            0.0000000000
      8629      2848  TIP3      OH2            19.8558950248        5.3451506768       -5.3327171492  SOLV      2837            0.0000000000
      8630      2848  TIP3      H1             19.9051150248        5.9552706768       -4.5968071492  SOLV      2837            0.0000000000
      8631      2848  TIP3      H2             20.2814050248        5.8062406768       -6.0556071492  SOLV      2837            0.0000000000
      8632      2849  TIP3      OH2            14.3336150248        8.1378606768       -5.8658571492  SOLV      2838            0.0000000000
      8633      2849  TIP3      H1             14.4762050248        7.1915606768       -5.8456971492  SOLV      2838            0.0000000000
      8634      2849  TIP3      H2             14.2275150248        8.3448406768       -6.7943671492  SOLV      2838            0.0000000000
      8635      2850  TIP3      OH2             7.4884450248        6.2395006768       -8.5933771492  SOLV      2839            0.0000000000
      8636      2850  TIP3      H1              7.5315550248        7.0993506768       -9.0117471492  SOLV      2839            0.0000000000
      8637      2850  TIP3      H2              7.0308550248        5.6869706768       -9.2270571492  SOLV      2839            0.0000000000
      8638      2851  TIP3      OH2            15.2107150248        6.3700606768      -10.1925471492  SOLV      2840            0.0000000000
      8639      2851  TIP3      H1             15.8571450248        6.0413806768       -9.5677871492  SOLV      2840            0.0000000000
      8640      2851  TIP3      H2             15.7206550248        6.8879606768      -10.8154071492  SOLV      2840            0.0000000000
      8641      2852  TIP3      OH2             4.1085950248        8.6360806768       -7.8312371492  SOLV      2841            0.0000000000
      8642      2852  TIP3      H1              4.7622550248        8.0862506768       -7.3992271492  SOLV      2841            0.0000000000
      8643      2852  TIP3      H2              4.1325250248        8.3619806768       -8.7480371492  SOLV      2841            0.0000000000
      8644      2853  TIP3      OH2             9.2650450248       10.1862106768       -8.6160871492  SOLV      2842            0.0000000000
      8645      2853  TIP3      H1              9.8811450248        9.6597506768       -8.1066871492  SOLV      2842            0.0000000000
      8646      2853  TIP3      H2              8.6789250248        9.5460806768       -9.0197271492  SOLV      2842            0.0000000000
      8647      2854  TIP3      OH2            20.2473550248        6.8230706768       -3.0967371492  SOLV      2843            0.0000000000
      8648      2854  TIP3      H1             19.5588150248        7.4811406768       -3.1920771492  SOLV      2843            0.0000000000
      8649      2854  TIP3      H2             20.2628150248        6.6258606768       -2.1601971492  SOLV      2843            0.0000000000
      8650      2855  TIP3      OH2             6.2986350248        5.1573406768       -4.5192971492  SOLV      2844            0.0000000000
      8651      2855  TIP3      H1              6.0798050248        5.6874006768       -5.2856971492  SOLV      2844            0.0000000000
      8652      2855  TIP3      H2              5.6307250248        5.3838906768       -3.8721571492  SOLV      2844            0.0000000000
      8653      2856  TIP3      OH2            13.6676150248       14.6574506768      -10.9753871492  SOLV      2845            0.0000000000
      8654      2856  TIP3      H1             13.3721250248       14.3346806768      -11.8266971492  SOLV      2845            0.0000000000
      8655      2856  TIP3      H2             13.3433950248       15.5571206768      -10.9341271492  SOLV      2845            0.0000000000
      8656      2857  TIP3      OH2             8.8677750248       12.8329106768       -4.2319271492  SOLV      2846            0.0000000000
      8657      2857  TIP3      H1              8.1276850248       13.4310606768       -4.1284071492  SOLV      2846            0.0000000000
      8658      2857  TIP3      H2              9.5817250248       13.3868706768       -4.5475671492  SOLV      2846            0.0000000000
      8659      2858  TIP3      OH2            16.9745550248        5.6609906768       -8.2119571492  SOLV      2847            0.0000000000
      8660      2858  TIP3      H1             16.7593550248        4.8953306768       -7.6793571492  SOLV      2847            0.0000000000
      8661      2858  TIP3      H2             17.6302950248        6.1334506768       -7.6991071492  SOLV      2847            0.0000000000
      8662      2859  TIP3      OH2             5.8923650248        7.0495206768       -6.5670771492  SOLV      2848            0.0000000000
      8663      2859  TIP3      H1              6.5059950248        7.6822806768       -6.1938371492  SOLV      2848            0.0000000000
      8664      2859  TIP3      H2              6.4044350248        6.5770206768       -7.2233871492  SOLV      2848            0.0000000000
      8665      2860  TIP3      OH2             7.2752050248       14.7972106768       -3.4447771492  SOLV      2849            0.0000000000
      8666      2860  TIP3      H1              7.2699650248       15.6765606768       -3.8228471492  SOLV      2849            0.0000000000
      8667      2860  TIP3      H2              6.4216150248       14.7136206768       -3.0197871492  SOLV      2849            0.0000000000
      8668      2861  TIP3      OH2             3.3962950248       14.4680006768      -12.6628471492  SOLV      2850            0.0000000000
      8669      2861  TIP3      H1              3.1243850248       14.6971006768      -13.5515571492  SOLV      2850            0.0000000000
      8670      2861  TIP3      H2              3.4418650248       15.3058806768      -12.2023171492  SOLV      2850            0.0000000000
      8671      2862  TIP3      OH2            17.0212650248       16.0895906768       -5.9499971492  SOLV      2851            0.0000000000
      8672      2862  TIP3      H1             16.0796350248       16.1479806768       -5.7883071492  SOLV      2851            0.0000000000
      8673      2862  TIP3      H2             17.2978750248       16.9956406768       -6.0870271492  SOLV      2851            0.0000000000
      8674      2863  TIP3      OH2            17.3219650248        4.3761206768       -4.5326071492  SOLV      2852            0.0000000000
      8675      2863  TIP3      H1             16.5858850248        4.9868306768       -4.5704771492  SOLV      2852            0.0000000000
      8676      2863  TIP3      H2             18.0053650248        4.7910206768       -5.0589671492  SOLV      2852            0.0000000000
      8677      2864  TIP3      OH2            10.3251050248        2.4628506768       -7.0668071492  SOLV      2853            0.0000000000
      8678      2864  TIP3      H1             10.2075250248        1.5144506768       -7.1209771492  SOLV      2853            0.0000000000
      8679      2864  TIP3      H2              9.4701150248        2.7954606768       -6.7936971492  SOLV      2853            0.0000000000
      8680      2865  TIP3      OH2            15.2733850248       17.8709406768       -9.3248371492  SOLV      2854            0.0000000000
      8681      2865  TIP3      H1             15.6986150248       17.1637306768       -9.8098771492  SOLV      2854            0.0000000000
      8682      2865  TIP3      H2             15.5903850248       18.6722106768       -9.7416171492  SOLV      2854            0.0000000000
      8683      2866  TIP3      OH2            16.4330350248       15.7717906768      -10.8161771492  SOLV      2855            0.0000000000
      8684      2866  TIP3      H1             16.1755150248       15.0818006768      -11.4275871492  SOLV      2855            0.0000000000
      8685      2866  TIP3      H2             16.5041150248       15.3289106768       -9.9705871492  SOLV      2855            0.0000000000
      8686      2867  TIP3      OH2            18.1190550248       14.3384606768       -2.3388271492  SOLV      2856            0.0000000000
      8687      2867  TIP3      H1             18.2586850248       13.7467106768       -3.0781271492  SOLV      2856            0.0000000000
      8688      2867  TIP3      H2             18.2863350248       15.2110506768       -2.6949471492  SOLV      2856            0.0000000000
      8689      2868  TIP3      OH2            12.5915950248       11.3004106768      -12.5662271492  SOLV      2857            0.0000000000
      8690      2868  TIP3      H1             11.8801450248       11.8353806768      -12.9181771492  SOLV      2857            0.0000000000
      8691      2868  TIP3      H2             13.2825550248       11.3556206768      -13.2263371492  SOLV      2857            0.0000000000
      8692      2869  TIP3      OH2            12.6455150248        9.7578406768      -15.5277271492  SOLV      2858            0.0000000000
      8693      2869  TIP3      H1             13.3465050248        9.7805306768      -14.8763271492  SOLV      2858            0.0000000000
      8694      2869  TIP3      H2             12.9478050248        9.1298106768      -16.1837971492  SOLV      2858            0.0000000000
      8695      2870  TIP3      OH2            19.9609850248       10.6782606768       -4.2727871492  SOLV      2859            0.0000000000
      8696      2870  TIP3      H1             19.3083950248       11.3728206768       -4.1836971492  SOLV      2859            0.0000000000
      8697      2870  TIP3      H2             20.4260150248       10.8883506768       -5.0826271492  SOLV      2859            0.0000000000
      8698      2871  TIP3      OH2            15.9973650248       11.5097406768      -11.6146371492  SOLV      2860            0.0000000000
      8699      2871  TIP3      H1             15.2654650248       11.7381106768      -11.0415771492  SOLV      2860            0.0000000000
      8700      2871  TIP3      H2             16.4445850248       10.7960106768      -11.1598871492  SOLV      2860            0.0000000000
      8701      2872  TIP3      OH2            15.8947150248        9.6840006768       -2.5469371492  SOLV      2861            0.0000000000
      8702      2872  TIP3      H1             15.9746250248       10.4474406768       -1.9750871492  SOLV      2861            0.0000000000
      8703      2872  TIP3      H2             15.2934850248        9.9632406768       -3.2374271492  SOLV      2861            0.0000000000
      8704      2873  TIP3      OH2             7.6427350248       12.1403606768       -9.7321371492  SOLV      2862            0.0000000000
      8705      2873  TIP3      H1              7.3122550248       11.7697006768      -10.5504371492  SOLV      2862            0.0000000000
      8706      2873  TIP3      H2              8.2311450248       11.4697606768       -9.3853071492  SOLV      2862            0.0000000000
      8707      2874  TIP3      OH2             9.0094850248       15.5684206768       -7.0509171492  SOLV      2863            0.0000000000
      8708      2874  TIP3      H1              8.9146150248       14.9897306768       -7.8074571492  SOLV      2863            0.0000000000
      8709      2874  TIP3      H2              9.7388450248       15.1969906768       -6.5546371492  SOLV      2863            0.0000000000
      8710      2875  TIP3      OH2             8.0092850248       10.9089206768       -6.0986371492  SOLV      2864            0.0000000000
      8711      2875  TIP3      H1              8.5745350248       11.0303406768       -6.8615171492  SOLV      2864            0.0000000000
      8712      2875  TIP3      H2              8.3281750248       11.5464206768       -5.4597871492  SOLV      2864            0.0000000000
      8713      2876  TIP3      OH2            14.3185050248       16.4121106768       -5.3645871492  SOLV      2865            0.0000000000
      8714      2876  TIP3      H1             14.0781650248       17.0744206768       -4.7166671492  SOLV      2865            0.0000000000
      8715      2876  TIP3      H2             14.1203250248       15.5776306768       -4.9396271492  SOLV      2865            0.0000000000
      8716      2877  TIP3      OH2             8.8893550248       15.3081906768       -1.3814471492  SOLV      2866            0.0000000000
      8717      2877  TIP3      H1              8.5781050248       16.0905106768       -0.9261271492  SOLV      2866            0.0000000000
      8718      2877  TIP3      H2              8.2393750248       15.1551006768       -2.0672471492  SOLV      2866            0.0000000000
      8719      2878  TIP3      OH2            14.8683150248       10.6720306768      -13.9295171492  SOLV      2867            0.0000000000
      8720      2878  TIP3      H1             15.4478650248       10.8220606768      -13.1826271492  SOLV      2867            0.0000000000
      8721      2878  TIP3      H2             15.2823150248       11.1427706768      -14.6528771492  SOLV      2867            0.0000000000
      8722      2879  TIP3      OH2             5.8093450248       11.5063006768       -2.1528771492  SOLV      2868            0.0000000000
      8723      2879  TIP3      H1              5.8796650248       12.1569806768       -1.4543771492  SOLV      2868            0.0000000000
      8724      2879  TIP3      H2              4.9185650248       11.6090506768       -2.4877871492  SOLV      2868            0.0000000000
      8725      2880  TIP3      OH2            12.5948050248       17.4088806768      -10.4942071492  SOLV      2869            0.0000000000
      8726      2880  TIP3      H1             13.0685650248       17.7045106768       -9.7167871492  SOLV      2869            0.0000000000
      8727      2880  TIP3      H2             12.0317350248       18.1470406768      -10.7272471492  SOLV      2869            0.0000000000
      8728      2881  TIP3      OH2             7.1289450248       17.3796906768       -0.6180671492  SOLV      2870            0.0000000000
      8729      2881  TIP3      H1              7.1364750248       17.2436606768       -1.5655171492  SOLV      2870            0.0000000000
      8730      2881  TIP3      H2              6.2129850248       17.2625006768       -0.3660671492  SOLV      2870            0.0000000000
      8731      2882  TIP3      OH2            18.5671550248        2.4220706768      -14.1165471492  SOLV      2871            0.0000000000
      8732      2882  TIP3      H1             17.6672250248        2.5609706768      -13.8214871492  SOLV      2871            0.0000000000
      8733      2882  TIP3      H2             18.8189950248        3.2535306768      -14.5183771492  SOLV      2871            0.0000000000
      8734      2883  TIP3      OH2             6.6330050248       11.2097906768      -12.1428571492  SOLV      2872            0.0000000000
      8735      2883  TIP3      H1              6.3411350248       11.9779606768      -12.6337271492  SOLV      2872            0.0000000000
      8736      2883  TIP3      H2              5.9585250248       10.5504106768      -12.3057171492  SOLV      2872            0.0000000000
      8737      2884  TIP3      OH2            19.7562950248       16.7883106768      -15.7401571492  SOLV      2873            0.0000000000
      8738      2884  TIP3      H1             19.8296450248       17.7273306768      -15.5696271492  SOLV      2873            0.0000000000
      8739      2884  TIP3      H2             20.6618050248       16.4831706768      -15.7964271492  SOLV      2873            0.0000000000
      8740      2885  TIP3      OH2             2.7260150248       13.5727106768       -3.3278771492  SOLV      2874            0.0000000000
      8741      2885  TIP3      H1              2.2248550248       13.5446506768       -4.1429071492  SOLV      2874            0.0000000000
      8742      2885  TIP3      H2              2.7313850248       12.6670306768       -3.0181471492  SOLV      2874            0.0000000000
      8743      2886  TIP3      OH2             2.4762850248       16.3530906768       -6.4438571492  SOLV      2875            0.0000000000
      8744      2886  TIP3      H1              3.4223450248       16.2087906768       -6.4629071492  SOLV      2875            0.0000000000
      8745      2886  TIP3      H2              2.3639150248       17.1373706768       -5.9067371492  SOLV      2875            0.0000000000
      8746      2887  TIP3      OH2            20.6741350248       17.0190606768       -0.7614871492  SOLV      2876            0.0000000000
      8747      2887  TIP3      H1             20.6248150248       16.0638706768       -0.7987271492  SOLV      2876            0.0000000000
      8748      2887  TIP3      H2             19.8473650248       17.2865906768       -0.3601071492  SOLV      2876            0.0000000000
      8749      2888  TIP3      OH2            11.6525350248       16.5929806768       -1.8853471492  SOLV      2877            0.0000000000
      8750      2888  TIP3      H1             11.7399950248       17.4194406768       -1.4104371492  SOLV      2877            0.0000000000
      8751      2888  TIP3      H2             10.7890450248       16.2633606768       -1.6364171492  SOLV      2877            0.0000000000
      8752      2889  TIP3      OH2            12.0671150248       20.3653506768      -12.0792871492  SOLV      2878            0.0000000000
      8753      2889  TIP3      H1             11.9917150248       20.2440706768      -13.0257671492  SOLV      2878            0.0000000000
      8754      2889  TIP3      H2             12.0999850248       21.3146206768      -11.9608271492  SOLV      2878            0.0000000000
      8755      2890  TIP3      OH2             5.7204950248       19.1540506768      -10.2983871492  SOLV      2879            0.0000000000
      8756      2890  TIP3      H1              5.8725350248       18.8060906768       -9.4197371492  SOLV      2879            0.0000000000
      8757      2890  TIP3      H2              4.8695350248       18.7977806768      -10.5536671492  SOLV      2879            0.0000000000
      8758      2891  TIP3      OH2            15.1687150248       19.5193706768      -15.0770471492  SOLV      2880            0.0000000000
      8759      2891  TIP3      H1             15.5435550248       18.7749806768      -15.5477871492  SOLV      2880            0.0000000000
      8760      2891  TIP3      H2             15.1730850248       19.2494306768      -14.1587171492  SOLV      2880            0.0000000000
      8761      2892  TIP3      OH2            14.8375250248       19.4450806768      -12.3278271492  SOLV      2881            0.0000000000
      8762      2892  TIP3      H1             13.9025050248       19.5452706768      -12.1491271492  SOLV      2881            0.0000000000
      8763      2892  TIP3      H2             15.1177150248       18.7356806768      -11.7495071492  SOLV      2881            0.0000000000
      8764      2893  TIP3      OH2            17.8261150248        8.5123106768       -0.2812671492  SOLV      2882            0.0000000000
      8765      2893  TIP3      H1             17.4187950248        8.9928706768       -1.0019371492  SOLV      2882            0.0000000000
      8766      2893  TIP3      H2             17.8666850248        7.6069106768       -0.5891871492  SOLV      2882            0.0000000000
      8767      2894  TIP3      OH2             4.9750650248       14.8962506768       -2.2845971492  SOLV      2883            0.0000000000
      8768      2894  TIP3      H1              5.1911950248       14.5348106768       -1.4250171492  SOLV      2883            0.0000000000
      8769      2894  TIP3      H2              4.1195350248       14.5216306768       -2.4942471492  SOLV      2883            0.0000000000
      8770      2895  TIP3      OH2             7.5938650248        3.3663006768       -6.2891771492  SOLV      2884            0.0000000000
      8771      2895  TIP3      H1              6.7322350248        3.2791206768       -6.6968871492  SOLV      2884            0.0000000000
      8772      2895  TIP3      H2              7.5714350248        4.2223106768       -5.8614171492  SOLV      2884            0.0000000000
      8773      2896  TIP3      OH2            12.2566450248        3.0883406768       -2.9144771492  SOLV      2885            0.0000000000
      8774      2896  TIP3      H1             12.6769550248        2.6730506768       -2.1614171492  SOLV      2885            0.0000000000
      8775      2896  TIP3      H2             11.3236050248        2.9096706768       -2.7972771492  SOLV      2885            0.0000000000
      8776      2897  TIP3      OH2            15.5831350248        6.8438606768       -2.0610271492  SOLV      2886            0.0000000000
      8777      2897  TIP3      H1             15.0690850248        6.7180806768       -1.2634271492  SOLV      2886            0.0000000000
      8778      2897  TIP3      H2             15.4276050248        7.7561706768       -2.3054071492  SOLV      2886            0.0000000000
      8779      2898  TIP3      OH2            16.3456250248       11.7048606768      -16.2997271492  SOLV      2887            0.0000000000
      8780      2898  TIP3      H1             16.3877050248       11.4822506768      -17.2297271492  SOLV      2887            0.0000000000
      8781      2898  TIP3      H2             17.1948350248       12.1035706768      -16.1097371492  SOLV      2887            0.0000000000
      8782      2899  TIP3      OH2            11.9183750248        5.5806806768      -15.6293971492  SOLV      2888            0.0000000000
      8783      2899  TIP3      H1             11.6648550248        5.5998406768      -14.7065871492  SOLV      2888            0.0000000000
      8784      2899  TIP3      H2             11.6615850248        4.7092206768      -15.9307771492  SOLV      2888            0.0000000000
      8785      2900  TIP3      OH2             7.6848750248        8.3317506768       -5.1941571492  SOLV      2889            0.0000000000
      8786      2900  TIP3      H1              7.0430850248        8.2914806768       -4.4851471492  SOLV      2889            0.0000000000
      8787      2900  TIP3      H2              7.7220750248        9.2582206768       -5.4318571492  SOLV      2889            0.0000000000
      8788      2901  TIP3      OH2             7.6817850248        8.5527606768      -10.2821571492  SOLV      2890            0.0000000000
      8789      2901  TIP3      H1              6.7890750248        8.2123706768      -10.3407771492  SOLV      2890            0.0000000000
      8790      2901  TIP3      H2              8.1324450248        8.1758506768      -11.0378371492  SOLV      2890            0.0000000000
      8791      2902  TIP3      OH2            13.2173350248        8.9687906768      -11.4650771492  SOLV      2891            0.0000000000
      8792      2902  TIP3      H1             12.8083650248        9.7836506768      -11.7565971492  SOLV      2891            0.0000000000
      8793      2902  TIP3      H2             13.9379550248        8.8288006768      -12.0793671492  SOLV      2891            0.0000000000
      8794      2903  TIP3      OH2            12.3194950248        9.1444306768        0.0229928508  SOLV      2892            0.0000000000
      8795      2903  TIP3      H1             11.7568750248        8.4395906768        0.3437728508  SOLV      2892            0.0000000000
      8796      2903  TIP3      H2             13.1458350248        9.0236206768        0.4907528508  SOLV      2892            0.0000000000
      8797      2904  TIP3      OH2            14.2221050248        8.4148306768       -8.6511071492  SOLV      2893            0.0000000000
      8798      2904  TIP3      H1             14.0265550248        9.0205106768       -9.3660471492  SOLV      2893            0.0000000000
      8799      2904  TIP3      H2             14.4033650248        7.5813506768       -9.0854771492  SOLV      2893            0.0000000000
      8800      2905  TIP3      OH2             5.4349250248        8.6521006768       -3.3269571492  SOLV      2894            0.0000000000
      8801      2905  TIP3      H1              5.3968650248        9.0522606768       -2.4582471492  SOLV      2894            0.0000000000
      8802      2905  TIP3      H2              4.9440350248        7.8353406768       -3.2366671492  SOLV      2894            0.0000000000
      8803      2906  TIP3      OH2             8.8006650248        6.0263306768      -16.5283571492  SOLV      2895            0.0000000000
      8804      2906  TIP3      H1              8.3697350248        5.5813406768      -15.7986171492  SOLV      2895            0.0000000000
      8805      2906  TIP3      H2              8.0825350248        6.3979606768      -17.0406071492  SOLV      2895            0.0000000000
      8806      2907  TIP3      OH2             2.0430050248        5.7682806768       -9.4764871492  SOLV      2896            0.0000000000
      8807      2907  TIP3      H1              2.6737750248        5.7394906768       -8.7570971492  SOLV      2896            0.0000000000
      8808      2907  TIP3      H2              2.4924350248        5.3431506768      -10.2068971492  SOLV      2896            0.0000000000
      8809      2908  TIP3      OH2             3.3172150248        6.5144806768      -14.0524471492  SOLV      2897            0.0000000000
      8810      2908  TIP3      H1              3.7913850248        7.1054706768      -14.6373571492  SOLV      2897            0.0000000000
      8811      2908  TIP3      H2              2.5998550248        7.0447706768      -13.7054371492  SOLV      2897            0.0000000000
      8812      2909  TIP3      OH2            13.4860250248       10.0529606768       -3.9798671492  SOLV      2898            0.0000000000
      8813      2909  TIP3      H1             13.8095050248        9.4219306768       -4.6228171492  SOLV      2898            0.0000000000
      8814      2909  TIP3      H2             13.0459550248        9.5181806768       -3.3191271492  SOLV      2898            0.0000000000
      8815      2910  TIP3      OH2            10.2633150248        5.9805106768       -9.1957471492  SOLV      2899            0.0000000000
      8816      2910  TIP3      H1              9.3524250248        6.0371906768       -8.9071471492  SOLV      2899            0.0000000000
      8817      2910  TIP3      H2             10.7686050248        5.9200606768       -8.3850271492  SOLV      2899            0.0000000000
      8818      2911  TIP3      OH2             5.0916550248        7.6091406768      -10.3689871492  SOLV      2900            0.0000000000
      8819      2911  TIP3      H1              4.2024550248        7.7086906768      -10.7090271492  SOLV      2900            0.0000000000
      8820      2911  TIP3      H2              5.3881450248        6.7674406768      -10.7151971492  SOLV      2900            0.0000000000
      8821      2912  TIP3      OH2             8.7448350248        7.6094006768      -12.7125271492  SOLV      2901            0.0000000000
      8822      2912  TIP3      H1              9.6763850248        7.7384006768      -12.5342171492  SOLV      2901            0.0000000000
      8823      2912  TIP3      H2              8.5298650248        8.2788306768      -13.3620571492  SOLV      2901            0.0000000000
      8824      2913  TIP3      OH2            14.6685050248        5.2151406768       -5.9315671492  SOLV      2902            0.0000000000
      8825      2913  TIP3      H1             13.9916650248        5.3464506768       -5.2675971492  SOLV      2902            0.0000000000
      8826      2913  TIP3      H2             14.1829950248        5.0600906768       -6.7417971492  SOLV      2902            0.0000000000
      8827      2914  TIP3      OH2             7.4188550248        8.8036206768      -15.1459171492  SOLV      2903            0.0000000000
      8828      2914  TIP3      H1              6.8763650248        8.4240006768      -15.8371571492  SOLV      2903            0.0000000000
      8829      2914  TIP3      H2              8.2523450248        8.9980906768      -15.5745071492  SOLV      2903            0.0000000000
      8830      2915  TIP3      OH2            17.9560150248       20.8866806768        0.3451928508  SOLV      2904            0.0000000000
      8831      2915  TIP3      H1             18.1558850248       21.3108706768       -0.4892771492  SOLV      2904            0.0000000000
      8832      2915  TIP3      H2             18.6113850248       21.2305006768        0.9522328508  SOLV      2904            0.0000000000
      8833      2916  TIP3      OH2             5.5539950248       13.3608106768       -0.0467571492  SOLV      2905            0.0000000000
      8834      2916  TIP3      H1              6.2862350248       13.6154006768        0.5146928508  SOLV      2905            0.0000000000
      8835      2916  TIP3      H2              4.7738650248       13.5653506768        0.4687828508  SOLV      2905            0.0000000000
      8836      2917  TIP3      OH2            11.5832850248        8.7678106768       -7.3087871492  SOLV      2906            0.0000000000
      8837      2917  TIP3      H1             12.1476250248        8.2214706768       -7.8558271492  SOLV      2906            0.0000000000
      8838      2917  TIP3      H2             11.4356250248        8.2460006768       -6.5200271492  SOLV      2906            0.0000000000
      8839      2918  TIP3      OH2             6.5852550248        4.9044206768      -10.8903071492  SOLV      2907            0.0000000000
      8840      2918  TIP3      H1              6.2682050248        4.0019506768      -10.9257671492  SOLV      2907            0.0000000000
      8841      2918  TIP3      H2              7.3666650248        4.9061606768      -11.4431471492  SOLV      2907            0.0000000000
      8842      2919  TIP3      OH2            10.2098750248        7.1564206768       -4.8947471492  SOLV      2908            0.0000000000
      8843      2919  TIP3      H1              9.3744050248        7.6103706768       -4.7845071492  SOLV      2908            0.0000000000
      8844      2919  TIP3      H2             10.7339350248        7.4322706768       -4.1427571492  SOLV      2908            0.0000000000
      8845      2920  TIP3      OH2            10.7541350248       13.3691906768      -13.2101071492  SOLV      2909            0.0000000000
      8846      2920  TIP3      H1             10.0092350248       12.8617206768      -13.5323171492  SOLV      2909            0.0000000000
      8847      2920  TIP3      H2             10.6198550248       13.4179906768      -12.2636271492  SOLV      2909            0.0000000000
      8848      2921  TIP3      OH2            17.9040250248       12.5020106768       -4.4233471492  SOLV      2910            0.0000000000
      8849      2921  TIP3      H1             18.5459050248       12.9586406768       -4.9671271492  SOLV      2910            0.0000000000
      8850      2921  TIP3      H2             17.0737150248       12.6152506768       -4.8859371492  SOLV      2910            0.0000000000
      8851      2922  TIP3      OH2            14.6518150248        6.1831806768      -15.0108471492  SOLV      2911            0.0000000000
      8852      2922  TIP3      H1             13.7132350248        6.2947406768      -15.1619671492  SOLV      2911            0.0000000000
      8853      2922  TIP3      H2             14.9490250248        7.0398706768      -14.7042771492  SOLV      2911            0.0000000000
      8854      2923  TIP3      OH2            12.2733450248       13.5535206768       -1.9731971492  SOLV      2912            0.0000000000
      8855      2923  TIP3      H1             11.9279550248       13.1717606768       -1.1662371492  SOLV      2912            0.0000000000
      8856      2923  TIP3      H2             12.0733550248       14.4868806768       -1.9019071492  SOLV      2912            0.0000000000
      8857      2924  TIP3      OH2            15.3701650248        8.0504506768      -13.3501071492  SOLV      2913            0.0000000000
      8858      2924  TIP3      H1             16.2620650248        7.9129506768      -13.0309871492  SOLV      2913            0.0000000000
      8859      2924  TIP3      H2             15.4265250248        8.8410606768      -13.8867571492  SOLV      2913            0.0000000000
      8860      2925  TIP3      OH2             5.8789650248       12.6641906768       -7.4403171492  SOLV      2914            0.0000000000
      8861      2925  TIP3      H1              6.6236850248       12.6617606768       -8.0416671492  SOLV      2914            0.0000000000
      8862      2925  TIP3      H2              5.9566250248       11.8405706768       -6.9588071492  SOLV      2914            0.0000000000
      8863      2926  TIP3      OH2            12.8795450248       14.8276206768      -14.1846471492  SOLV      2915            0.0000000000
      8864      2926  TIP3      H1             12.5843850248       15.6544106768      -13.8031671492  SOLV      2915            0.0000000000
      8865      2926  TIP3      H2             12.1765450248       14.2083106768      -13.9885071492  SOLV      2915            0.0000000000
      8866      2927  TIP3      OH2             2.8869350248       11.1248806768       -2.1254671492  SOLV      2916            0.0000000000
      8867      2927  TIP3      H1              3.1097950248       10.7068406768       -1.2937171492  SOLV      2916            0.0000000000
      8868      2927  TIP3      H2              2.2849450248       10.5123806768       -2.5481871492  SOLV      2916            0.0000000000
      8869      2928  TIP3      OH2             9.9034250248       10.6418706768        0.0875028508  SOLV      2917            0.0000000000
      8870      2928  TIP3      H1              9.6075050248       10.4761706768       -0.8075871492  SOLV      2917            0.0000000000
      8871      2928  TIP3      H2             10.8349450248       10.4219006768        0.0768928508  SOLV      2917            0.0000000000
      8872      2929  TIP3      OH2            14.5237050248       16.0150706768       -2.0226971492  SOLV      2918            0.0000000000
      8873      2929  TIP3      H1             13.6231350248       16.1983306768       -2.2903071492  SOLV      2918            0.0000000000
      8874      2929  TIP3      H2             14.5578150248       16.2740006768       -1.1018171492  SOLV      2918            0.0000000000
      8875      2930  TIP3      OH2            20.2550350248        8.2598606768      -13.6554371492  SOLV      2919            0.0000000000
      8876      2930  TIP3      H1             19.7006650248        7.8636606768      -14.3276871492  SOLV      2919            0.0000000000
      8877      2930  TIP3      H2             20.3553950248        9.1703806768      -13.9331071492  SOLV      2919            0.0000000000
      8878      2931  TIP3      OH2            20.2182350248       14.0600306768       -0.8182871492  SOLV      2920            0.0000000000
      8879      2931  TIP3      H1             19.3670850248       14.2984106768       -1.1856471492  SOLV      2920            0.0000000000
      8880      2931  TIP3      H2             20.8085750248       14.0433506768       -1.5715771492  SOLV      2920            0.0000000000
      8881      2932  TIP3      OH2            18.5502050248       17.0459006768      -13.1902271492  SOLV      2921            0.0000000000
      8882      2932  TIP3      H1             18.1773150248       16.2202806768      -12.8811671492  SOLV      2921            0.0000000000
      8883      2932  TIP3      H2             18.8275550248       16.8628406768      -14.0878871492  SOLV      2921            0.0000000000
      8884      2933  TIP3      OH2            15.7105950248       11.8538506768       -6.1690371492  SOLV      2922            0.0000000000
      8885      2933  TIP3      H1             14.7822850248       11.6220406768       -6.1961071492  SOLV      2922            0.0000000000
      8886      2933  TIP3      H2             16.1617050248       11.0768306768       -6.4991571492  SOLV      2922            0.0000000000
      8887      2934  TIP3      OH2             8.2539050248       16.1820106768      -10.0361671492  SOLV      2923            0.0000000000
      8888      2934  TIP3      H1              8.7811250248       16.9554506768      -10.2362871492  SOLV      2923            0.0000000000
      8889      2934  TIP3      H2              7.3737550248       16.4069306768      -10.3377671492  SOLV      2923            0.0000000000
      8890      2935  TIP3      OH2             4.0086750248       11.0444206768      -15.4489271492  SOLV      2924            0.0000000000
      8891      2935  TIP3      H1              4.6246650248       11.6711406768      -15.0694471492  SOLV      2924            0.0000000000
      8892      2935  TIP3      H2              3.1469350248       11.3604006768      -15.1772771492  SOLV      2924            0.0000000000
      8893      2936  TIP3      OH2             9.6811350248       13.8450006768      -10.4597371492  SOLV      2925            0.0000000000
      8894      2936  TIP3      H1              9.4401350248       14.7704406768      -10.4182071492  SOLV      2925            0.0000000000
      8895      2936  TIP3      H2              8.9404950248       13.3861306768      -10.0633471492  SOLV      2925            0.0000000000
      8896      2937  TIP3      OH2            10.1957950248       17.9943606768       -4.1446271492  SOLV      2926            0.0000000000
      8897      2937  TIP3      H1             10.5582650248       18.8489206768       -4.3781871492  SOLV      2926            0.0000000000
      8898      2937  TIP3      H2             10.7273150248       17.7025206768       -3.4039971492  SOLV      2926            0.0000000000
      8899      2938  TIP3      OH2             8.3642150248       18.8667606768      -10.9145171492  SOLV      2927            0.0000000000
      8900      2938  TIP3      H1              7.4142650248       18.9725006768      -10.8631871492  SOLV      2927            0.0000000000
      8901      2938  TIP3      H2              8.7160250248       19.6875006768      -10.5697671492  SOLV      2927            0.0000000000
      8902      2939  TIP3      OH2            13.7398750248       14.0934306768       -4.4440671492  SOLV      2928            0.0000000000
      8903      2939  TIP3      H1             13.3140050248       13.8656006768       -3.6176671492  SOLV      2928            0.0000000000
      8904      2939  TIP3      H2             14.3204550248       13.3546106768       -4.6265371492  SOLV      2928            0.0000000000
      8905      2940  TIP3      OH2            15.9427650248       15.0224806768      -15.3701671492  SOLV      2929            0.0000000000
      8906      2940  TIP3      H1             16.2960750248       14.6424606768      -14.5658171492  SOLV      2929            0.0000000000
      8907      2940  TIP3      H2             14.9941150248       14.9289606768      -15.2832371492  SOLV      2929            0.0000000000
      8908      2941  TIP3      OH2            16.3982950248       18.6453806768       -1.9745871492  SOLV      2930            0.0000000000
      8909      2941  TIP3      H1             15.7966150248       18.0896706768       -2.4699571492  SOLV      2930            0.0000000000
      8910      2941  TIP3      H2             16.6796650248       19.3123606768       -2.6008471492  SOLV      2930            0.0000000000
      8911      2942  TIP3      OH2            20.4462050248       19.5017306768      -15.1691471492  SOLV      2931            0.0000000000
      8912      2942  TIP3      H1             21.1899950248       20.0877806768      -15.3089871492  SOLV      2931            0.0000000000
      8913      2942  TIP3      H2             19.7520150248       20.0703106768      -14.8359071492  SOLV      2931            0.0000000000
      8914      2943  TIP3      OH2             4.5208850248        5.8781506768       -2.5673271492  SOLV      2932            0.0000000000
      8915      2943  TIP3      H1              3.6281150248        6.2166906768       -2.6349271492  SOLV      2932            0.0000000000
      8916      2943  TIP3      H2              4.4221650248        5.0227606768       -2.1492471492  SOLV      2932            0.0000000000
      8917      2944  TIP3      OH2            16.8086950248       13.6946806768      -13.1433771492  SOLV      2933            0.0000000000
      8918      2944  TIP3      H1             16.5314550248       12.9666106768      -12.5872671492  SOLV      2933            0.0000000000
      8919      2944  TIP3      H2             17.7359950248       13.8138806768      -12.9381171492  SOLV      2933            0.0000000000
      8920      2945  TIP3      OH2             4.1720850248       17.6825906768       -4.1323871492  SOLV      2934            0.0000000000
      8921      2945  TIP3      H1              4.3891150248       16.7508306768       -4.1634171492  SOLV      2934            0.0000000000
      8922      2945  TIP3      H2              4.4184350248       17.9570906768       -3.2491071492  SOLV      2934            0.0000000000
      8923      2946  TIP3      OH2            10.0335450248       16.1340906768      -16.9231671492  SOLV      2935            0.0000000000
      8924      2946  TIP3      H1             10.2725250248       15.3859006768      -17.4702771492  SOLV      2935            0.0000000000
      8925      2946  TIP3      H2              9.7646750248       15.7462606768      -16.0903871492  SOLV      2935            0.0000000000
      8926      2947  TIP3      OH2             8.9706050248       15.7044706768      -14.4669071492  SOLV      2936            0.0000000000
      8927      2947  TIP3      H1              9.1174050248       15.1844506768      -13.6768171492  SOLV      2936            0.0000000000
      8928      2947  TIP3      H2              8.9677750248       16.6112306768      -14.1603171492  SOLV      2936            0.0000000000
      8929      2948  TIP3      OH2             5.4237150248       12.9568006768      -13.9563671492  SOLV      2937            0.0000000000
      8930      2948  TIP3      H1              4.7376450248       13.3090506768      -13.3893971492  SOLV      2937            0.0000000000
      8931      2948  TIP3      H2              5.9465050248       13.7197606768      -14.2029371492  SOLV      2937            0.0000000000
      8932      2949  TIP3      OH2            13.2552250248        5.6191806768       -3.6774671492  SOLV      2938            0.0000000000
      8933      2949  TIP3      H1             13.9540150248        5.6930506768       -3.0274971492  SOLV      2938            0.0000000000
      8934      2949  TIP3      H2             12.8743650248        4.7546806768       -3.5231771492  SOLV      2938            0.0000000000
      8935      2950  TIP3      OH2            14.0397150248        5.2713506768      -12.5802371492  SOLV      2939            0.0000000000
      8936      2950  TIP3      H1             14.2595450248        5.7428906768      -13.3836971492  SOLV      2939            0.0000000000
      8937      2950  TIP3      H2             14.5981150248        5.6656106768      -11.9101771492  SOLV      2939            0.0000000000
      8938      2951  TIP3      OH2            11.7083250248       17.4018306768      -13.7174871492  SOLV      2940            0.0000000000
      8939      2951  TIP3      H1             10.8919350248       17.8988006768      -13.6650571492  SOLV      2940            0.0000000000
      8940      2951  TIP3      H2             12.2379550248       17.8771806768      -14.3576071492  SOLV      2940            0.0000000000
      8941      2952  TIP3      OH2            11.2397050248        6.9992306768      -11.7453971492  SOLV      2941            0.0000000000
      8942      2952  TIP3      H1             12.0519650248        7.5035506768      -11.6992271492  SOLV      2941            0.0000000000
      8943      2952  TIP3      H2             10.9950050248        6.8542006768      -10.8314371492  SOLV      2941            0.0000000000
      8944      2953  TIP3      OH2            11.7753450248        7.9855006768       -2.5607371492  SOLV      2942            0.0000000000
      8945      2953  TIP3      H1             11.8943750248        8.5590406768       -1.8036971492  SOLV      2942            0.0000000000
      8946      2953  TIP3      H2             12.4308050248        7.2974406768       -2.4459571492  SOLV      2942            0.0000000000
      8947      2954  TIP3      OH2            12.1233750248        4.0805306768      -10.8072871492  SOLV      2943            0.0000000000
      8948      2954  TIP3      H1             11.7767250248        4.6975906768      -10.1628571492  SOLV      2943            0.0000000000
      8949      2954  TIP3      H2             12.7820650248        4.5811006768      -11.2887371492  SOLV      2943            0.0000000000
      8950      2955  TIP3      OH2             9.0466350248       18.4455506768      -13.7357971492  SOLV      2944            0.0000000000
      8951      2955  TIP3      H1              9.2075050248       19.2453006768      -14.2365371492  SOLV      2944            0.0000000000
      8952      2955  TIP3      H2              8.8494150248       18.7521506768      -12.8507371492  SOLV      2944            0.0000000000
      8953      2956  TIP3      OH2             7.7810750248        5.1434706768      -14.1200371492  SOLV      2945            0.0000000000
      8954      2956  TIP3      H1              7.6975550248        6.0317806768      -13.7733971492  SOLV      2945            0.0000000000
      8955      2956  TIP3      H2              8.6711050248        4.8781406768      -13.8883571492  SOLV      2945            0.0000000000
      8956      2957  TIP3      OH2            17.9799250248        5.8925306768       -1.7257671492  SOLV      2946            0.0000000000
      8957      2957  TIP3      H1             17.0635050248        6.1547006768       -1.8133971492  SOLV      2946            0.0000000000
      8958      2957  TIP3      H2             18.3154250248        5.8894306768       -2.6222371492  SOLV      2946            0.0000000000
      8959      2958  TIP3      OH2            16.5820250248        9.6426306768       -7.6300371492  SOLV      2947            0.0000000000
      8960      2958  TIP3      H1             15.7844650248        9.2276506768       -7.9585371492  SOLV      2947            0.0000000000
      8961      2958  TIP3      H2             17.0271350248        8.9520006768       -7.1389871492  SOLV      2947            0.0000000000
      8962      2959  TIP3      OH2             6.0396050248       15.5706906768      -15.0595871492  SOLV      2948            0.0000000000
      8963      2959  TIP3      H1              6.6317550248       16.2701706768      -14.7833471492  SOLV      2948            0.0000000000
      8964      2959  TIP3      H2              6.4989050248       15.1376406768      -15.7791271492  SOLV      2948            0.0000000000
      8965      2960  TIP3      OH2             4.3555250248        8.2349906768      -15.9436471492  SOLV      2949            0.0000000000
      8966      2960  TIP3      H1              4.3107850248        9.1743006768      -15.7649471492  SOLV      2949            0.0000000000
      8967      2960  TIP3      H2              3.4678450248        7.9994806768      -16.2134371492  SOLV      2949            0.0000000000
      8968      2961  TIP3      OH2            17.6684850248       18.8988806768       -6.0076871492  SOLV      2950            0.0000000000
      8969      2961  TIP3      H1             17.5129150248       19.5773206768       -6.6647571492  SOLV      2950            0.0000000000
      8970      2961  TIP3      H2             18.6011250248       18.9708106768       -5.8046271492  SOLV      2950            0.0000000000
      8971      2962  TIP3      OH2             5.1637250248        3.0166506768       -7.2705471492  SOLV      2951            0.0000000000
      8972      2962  TIP3      H1              4.9347050248        3.0759006768       -8.1980471492  SOLV      2951            0.0000000000
      8973      2962  TIP3      H2              4.7210650248        2.2252006768       -6.9641371492  SOLV      2951            0.0000000000
      8974      2963  TIP3      OH2             4.0940550248       16.9573606768      -11.1099671492  SOLV      2952            0.0000000000
      8975      2963  TIP3      H1              3.2619150248       17.4296306768      -11.0828271492  SOLV      2952            0.0000000000
      8976      2963  TIP3      H2              4.6398850248       17.4671206768      -11.7086571492  SOLV      2952            0.0000000000
      8977      2964  TIP3      OH2             3.3824250248       19.5697306768        0.2198328508  SOLV      2953            0.0000000000
      8978      2964  TIP3      H1              3.9226450248       19.3531306768        0.9797528508  SOLV      2953            0.0000000000
      8979      2964  TIP3      H2              2.9012250248       18.7643306768        0.0300828508  SOLV      2953            0.0000000000
      8980      2965  TIP3      OH2             7.9797650248       18.4891706768        1.8402528508  SOLV      2954            0.0000000000
      8981      2965  TIP3      H1              8.7474850248       18.0302506768        2.1811728508  SOLV      2954            0.0000000000
      8982      2965  TIP3      H2              7.9583850248       18.2631506768        0.9103728508  SOLV      2954            0.0000000000
      8983      2966  TIP3      OH2            12.0717250248       17.9972306768      -16.7845671492  SOLV      2955            0.0000000000
      8984      2966  TIP3      H1             11.4278250248       17.3660906768      -16.4631971492  SOLV      2955            0.0000000000
      8985      2966  TIP3      H2             12.8335550248       17.4660306768      -17.0162171492  SOLV      2955            0.0000000000
      8986      2967  TIP3      OH2            14.5566350248       16.8692806768        0.5694028508  SOLV      2956            0.0000000000
      8987      2967  TIP3      H1             14.2055850248       16.0125806768        0.8124428508  SOLV      2956            0.0000000000
      8988      2967  TIP3      H2             15.2829550248       17.0119506768        1.1763028508  SOLV      2956            0.0000000000
      8989      2968  TIP3      OH2            16.6760150248       17.8142206768      -16.5507671492  SOLV      2957            0.0000000000
      8990      2968  TIP3      H1             16.9590550248       17.0197406768      -16.0980771492  SOLV      2957            0.0000000000
      8991      2968  TIP3      H2             17.4158050248       18.0473206768      -17.1116571492  SOLV      2957            0.0000000000
      8992      2969  TIP3      OH2             3.2893750248       13.3801406768        1.1742628508  SOLV      2958            0.0000000000
      8993      2969  TIP3      H1              3.4334250248       12.4782106768        0.8879328508  SOLV      2958            0.0000000000
      8994      2969  TIP3      H2              2.5171150248       13.6663506768        0.6864928508  SOLV      2958            0.0000000000
      8995      2970  TIP3      OH2             7.6307450248       13.7237106768      -16.6932771492  SOLV      2959            0.0000000000
      8996      2970  TIP3      H1              7.6951550248       12.9296706768      -16.1626371492  SOLV      2959            0.0000000000
      8997      2970  TIP3      H2              8.2836650248       13.6049906768      -17.3830771492  SOLV      2959            0.0000000000
      8998      2971  TIP3      OH2             9.9449850248       13.3499506768        0.6069028508  SOLV      2960            0.0000000000
      8999      2971  TIP3      H1              9.6163650248       13.6207606768       -0.2503571492  SOLV      2960            0.0000000000
      9000      2971  TIP3      H2             10.0968050248       12.4089306768        0.5194028508  SOLV      2960            0.0000000000
      9001      2972  TIP3      OH2            12.9830850248       14.7708806768      -16.9574771492  SOLV      2961            0.0000000000
      9002      2972  TIP3      H1             12.7144950248       14.9510906768      -16.0565871492  SOLV      2961            0.0000000000
      9003      2972  TIP3      H2             12.7766450248       13.8455006768      -17.0888971492  SOLV      2961            0.0000000000
      9004      2973  TIP3      OH2            15.6795050248       13.2656806768       -2.0098671492  SOLV      2962            0.0000000000
      9005      2973  TIP3      H1             16.4249850248       13.8540506768       -2.1294671492  SOLV      2962            0.0000000000
      9006      2973  TIP3      H2             14.9221850248       13.8476506768       -1.9465571492  SOLV      2962            0.0000000000
      9007      2974  TIP3      OH2             4.1220250248       10.5804706768        0.5941928508  SOLV      2963            0.0000000000
      9008      2974  TIP3      H1              4.5301450248        9.7231306768        0.4732528508  SOLV      2963            0.0000000000
      9009      2974  TIP3      H2              3.8617850248       10.5946006768        1.5152228508  SOLV      2963            0.0000000000
      9010      2975  TIP3      OH2             8.7801250248       11.6963306768      -14.3874771492  SOLV      2964            0.0000000000
      9011      2975  TIP3      H1              8.3203250248       11.2121606768      -13.7016271492  SOLV      2964            0.0000000000
      9012      2975  TIP3      H2              9.0349950248       11.0278706768      -15.0234271492  SOLV      2964            0.0000000000
      9013      2976  TIP3      OH2             8.0690550248        9.5890406768       -2.0315171492  SOLV      2965            0.0000000000
      9014      2976  TIP3      H1              7.4506650248       10.2637006768       -1.7510471492  SOLV      2965            0.0000000000
      9015      2976  TIP3      H2              8.4131750248        9.9104306768       -2.8648971492  SOLV      2965            0.0000000000
      9016      2977  TIP3      OH2             9.8511650248        9.9395106768      -16.1251571492  SOLV      2966            0.0000000000
      9017      2977  TIP3      H1              9.6706650248        9.7846306768      -17.0523271492  SOLV      2966            0.0000000000
      9018      2977  TIP3      H2             10.8012150248       10.0473806768      -16.0803671492  SOLV      2966            0.0000000000
      9019      2978  TIP3      OH2            13.0888750248       12.0605706768        1.2459628508  SOLV      2967            0.0000000000
      9020      2978  TIP3      H1             14.0419950248       12.1444806768        1.2185628508  SOLV      2967            0.0000000000
      9021      2978  TIP3      H2             12.9283350248       11.3487506768        1.8654528508  SOLV      2967            0.0000000000
      9022      2979  TIP3      OH2            19.2409950248       12.2939306768      -16.6793471492  SOLV      2968            0.0000000000
      9023      2979  TIP3      H1             18.9674750248       11.8694806768      -17.4925171492  SOLV      2968            0.0000000000
      9024      2979  TIP3      H2             19.2804050248       13.2253806768      -16.8963071492  SOLV      2968            0.0000000000
      9025      2980  TIP3      OH2             8.4084250248        6.9441206768       -0.9492071492  SOLV      2969            0.0000000000
      9026      2980  TIP3      H1              8.5585150248        6.2152506768       -1.5512371492  SOLV      2969            0.0000000000
      9027      2980  TIP3      H2              8.4106650248        7.7212906768       -1.5079871492  SOLV      2969            0.0000000000
      9028      2981  TIP3      OH2             8.8209950248        5.3137006768       -3.4564671492  SOLV      2970            0.0000000000
      9029      2981  TIP3      H1              9.3567450248        5.7653706768       -4.1085371492  SOLV      2970            0.0000000000
      9030      2981  TIP3      H2              7.9689550248        5.2056806768       -3.8790571492  SOLV      2970            0.0000000000
      9031      2982  TIP3      OH2            10.4028350248       10.7533206768       -3.2169471492  SOLV      2971            0.0000000000
      9032      2982  TIP3      H1             11.1533150248       10.5970706768       -3.7901671492  SOLV      2971            0.0000000000
      9033      2982  TIP3      H2             10.0636650248       11.6049806768       -3.4923971492  SOLV      2971            0.0000000000
      9034      2983  TIP3      OH2            14.8184550248        8.5685006768        1.8115828508  SOLV      2972            0.0000000000
      9035      2983  TIP3      H1             15.0105850248        7.6374406768        1.7000328508  SOLV      2972            0.0000000000
      9036      2983  TIP3      H2             15.6760850248        8.9934506768        1.8011228508  SOLV      2972            0.0000000000
      9037      2984  TIP3      OH2            16.1351750248       11.3570206768       -0.1111471492  SOLV      2973            0.0000000000
      9038      2984  TIP3      H1             15.8536750248       12.0664806768       -0.6887671492  SOLV      2973            0.0000000000
      9039      2984  TIP3      H2             17.0776050248       11.2843206768       -0.2620271492  SOLV      2973            0.0000000000
      9040      2985  TIP3      OH2             6.8870550248        8.1424706768        0.9623528508  SOLV      2974            0.0000000000
      9041      2985  TIP3      H1              6.1199550248        7.6099506768        0.7521128508  SOLV      2974            0.0000000000
      9042      2985  TIP3      H2              7.5659550248        7.8325106768        0.3629828508  SOLV      2974            0.0000000000
      9043      2986  TIP3      OH2             9.6265450248        2.7702706768       -3.0251071492  SOLV      2975            0.0000000000
      9044      2986  TIP3      H1              9.5285050248        3.7165906768       -3.1304871492  SOLV      2975            0.0000000000
      9045      2986  TIP3      H2              8.8841650248        2.3976506768       -3.5007571492  SOLV      2975            0.0000000000
      9046      2987  TIP3      OH2            10.8905950248        7.0918106768        0.5387328508  SOLV      2976            0.0000000000
      9047      2987  TIP3      H1             10.6551350248        6.8724806768        1.4402228508  SOLV      2976            0.0000000000
      9048      2987  TIP3      H2             10.1072850248        6.8849306768        0.0289828508  SOLV      2976            0.0000000000
      9049      2988  TIP3      OH2            13.6062550248        6.2191606768       -0.3859171492  SOLV      2977            0.0000000000
      9050      2988  TIP3      H1             12.6587950248        6.2511306768       -0.2535871492  SOLV      2977            0.0000000000
      9051      2988  TIP3      H2             13.9189250248        5.5938706768        0.2679028508  SOLV      2977            0.0000000000
      9052      2989  TIP3      OH2             9.7483350248       20.6298806768      -15.1237971492  SOLV      2978            0.0000000000
      9053      2989  TIP3      H1             10.6814050248       20.7877506768      -14.9799571492  SOLV      2978            0.0000000000
      9054      2989  TIP3      H2              9.4842150248       21.3051806768      -15.7486471492  SOLV      2978            0.0000000000
      9055      2990  TIP3      OH2             3.3168250248       15.2662606768      -15.6409871492  SOLV      2979            0.0000000000
      9056      2990  TIP3      H1              4.2307450248       15.3451506768      -15.3675971492  SOLV      2979            0.0000000000
      9057      2990  TIP3      H2              3.3241350248       14.5792206768      -16.3074271492  SOLV      2979            0.0000000000
      9058      2991  TIP3      OH2             1.9658850248       20.6591106768      -10.5635971492  SOLV      2980            0.0000000000
      9059      2991  TIP3      H1              1.3185950248       20.1972806768      -11.0964771492  SOLV      2980            0.0000000000
      9060      2991  TIP3      H2              2.3203450248       19.9874406768       -9.9809771492  SOLV      2980            0.0000000000
      9061      2992  TIP3      OH2             2.8358050248       18.7398106768       -8.7589771492  SOLV      2981            0.0000000000
      9062      2992  TIP3      H1              2.5014850248       17.8595406768       -8.5869571492  SOLV      2981            0.0000000000
      9063      2992  TIP3      H2              3.0580450248       19.0853106768       -7.8944171492  SOLV      2981            0.0000000000
      9064      2993  TIP3      OH2            20.3842850248       19.5494506768       -5.7784971492  SOLV      2982            0.0000000000
      9065      2993  TIP3      H1             20.3629550248       19.7342906768       -4.8395571492  SOLV      2982            0.0000000000
      9066      2993  TIP3      H2             21.0749050248       20.1178506768       -6.1193571492  SOLV      2982            0.0000000000
      9067      2994  TIP3      OH2            19.9475750248       19.1165606768       -2.8565871492  SOLV      2983            0.0000000000
      9068      2994  TIP3      H1             19.4604450248       18.3809706768       -3.2278471492  SOLV      2983            0.0000000000
      9069      2994  TIP3      H2             20.4968450248       18.7229506768       -2.1786471492  SOLV      2983            0.0000000000
      9070      2995  TIP3      OH2            18.3983050248       14.9063706768        1.7814428508  SOLV      2984            0.0000000000
      9071      2995  TIP3      H1             17.5324150248       14.8013406768        2.1756728508  SOLV      2984            0.0000000000
      9072      2995  TIP3      H2             18.7748950248       15.6647006768        2.2279128508  SOLV      2984            0.0000000000
      9073      2996  TIP3      OH2            19.6992750248       13.1627406768      -12.7043071492  SOLV      2985            0.0000000000
      9074      2996  TIP3      H1             20.5494150248       13.5838306768      -12.5771471492  SOLV      2985            0.0000000000
      9075      2996  TIP3      H2             19.7047850248       12.4227506768      -12.0971671492  SOLV      2985            0.0000000000
      9076      2997  TIP3      OH2            20.0938350248       11.2164806768      -10.8807371492  SOLV      2986            0.0000000000
      9077      2997  TIP3      H1             19.3672950248       10.7367406768      -10.4829771492  SOLV      2986            0.0000000000
      9078      2997  TIP3      H2             20.6751650248       11.4219506768      -10.1485771492  SOLV      2986            0.0000000000
      9079      2998  TIP3      OH2            19.8529550248       14.0012306768       -5.9329771492  SOLV      2987            0.0000000000
      9080      2998  TIP3      H1             20.6863750248       13.6232306768       -6.2136171492  SOLV      2987            0.0000000000
      9081      2998  TIP3      H2             19.9649850248       14.9443506768       -6.0520671492  SOLV      2987            0.0000000000
      9082      2999  TIP3      OH2            18.3391850248       16.8789806768       -3.6261371492  SOLV      2988            0.0000000000
      9083      2999  TIP3      H1             17.6917150248       17.2041306768       -3.0006171492  SOLV      2988            0.0000000000
      9084      2999  TIP3      H2             17.8215850248       16.4387506768       -4.3003071492  SOLV      2988            0.0000000000
      9085      3000  TIP3      OH2            20.3621450248       11.1173306768      -14.4896071492  SOLV      2989            0.0000000000
      9086      3000  TIP3      H1             19.8402550248       11.4737406768      -15.2085171492  SOLV      2989            0.0000000000
      9087      3000  TIP3      H2             20.3290650248       11.7921106768      -13.8115171492  SOLV      2989            0.0000000000
      9088      3001  TIP3      OH2            18.7110450248        8.3568906768      -15.9388971492  SOLV      2990            0.0000000000
      9089      3001  TIP3      H1             18.8074850248        9.0235906768      -16.6189271492  SOLV      2990            0.0000000000
      9090      3001  TIP3      H2             18.5710050248        7.5415206768      -16.4203471492  SOLV      2990            0.0000000000
      9091      3002  TIP3      OH2            17.8805150248        9.7371306768      -10.3178671492  SOLV      2991            0.0000000000
      9092      3002  TIP3      H1             17.7303950248        8.7919906768      -10.3380871492  SOLV      2991            0.0000000000
      9093      3002  TIP3      H2             17.5269650248       10.0182706768       -9.4739571492  SOLV      2991            0.0000000000
      9094      3003  TIP3      OH2             2.9157550248       11.8153506768       -6.3074871492  SOLV      2992            0.0000000000
      9095      3003  TIP3      H1              3.1000450248       11.7335206768       -7.2431971492  SOLV      2992            0.0000000000
      9096      3003  TIP3      H2              3.7650450248       11.6910506768       -5.8838471492  SOLV      2992            0.0000000000
      9097      3004  TIP3      OH2            18.7368050248       11.7074606768       -0.6790371492  SOLV      2993            0.0000000000
      9098      3004  TIP3      H1             19.3195350248       10.9726906768       -0.4873171492  SOLV      2993            0.0000000000
      9099      3004  TIP3      H2             19.3007350248       12.4794906768       -0.6324571492  SOLV      2993            0.0000000000
      9100      3005  TIP3      OH2            20.2335150248        9.6100406768        0.0055028508  SOLV      2994            0.0000000000
      9101      3005  TIP3      H1             19.3701850248        9.2312506768       -0.1600271492  SOLV      2994            0.0000000000
      9102      3005  TIP3      H2             20.8378850248        8.8715206768       -0.0689171492  SOLV      2994            0.0000000000
      9103      3006  TIP3      OH2            17.9584250248        5.7648706768      -16.8213471492  SOLV      2995            0.0000000000
      9104      3006  TIP3      H1             18.5690050248        5.3935506768      -16.1845271492  SOLV      2995            0.0000000000
      9105      3006  TIP3      H2             17.1215750248        5.3435606768      -16.6253471492  SOLV      2995            0.0000000000
      9106      3007  TIP3      OH2            17.5909950248        7.3197106768      -11.8553571492  SOLV      2996            0.0000000000
      9107      3007  TIP3      H1             17.8707050248        6.4127506768      -11.7311871492  SOLV      2996            0.0000000000
      9108      3007  TIP3      H2             18.3501650248        7.7538606768      -12.2444371492  SOLV      2996            0.0000000000
      9109      3008  TIP3      OH2            18.2028250248        7.9014506768       -6.4194671492  SOLV      2997            0.0000000000
      9110      3008  TIP3      H1             19.1356250248        8.1134406768       -6.4538671492  SOLV      2997            0.0000000000
      9111      3008  TIP3      H2             17.9675750248        8.0026606768       -5.4971671492  SOLV      2997            0.0000000000
      9112      3009  TIP3      OH2            18.2320150248        8.6379806768       -3.6435271492  SOLV      2998            0.0000000000
      9113      3009  TIP3      H1             17.3891450248        8.9060206768       -3.2775471492  SOLV      2998            0.0000000000
      9114      3009  TIP3      H2             18.6744450248        9.4601706768       -3.8544171492  SOLV      2998            0.0000000000
      9115      3010  TIP3      OH2            20.5151750248        2.6180006768        1.7099728508  SOLV      2999            0.0000000000
      9116      3010  TIP3      H1             20.8648750248        1.9643506768        1.1044428508  SOLV      2999            0.0000000000
      9117      3010  TIP3      H2             20.6621250248        3.4554106768        1.2702328508  SOLV      2999            0.0000000000
      9118      3011  TIP3      OH2            18.2044750248        4.5826406768      -11.8071571492  SOLV      3000            0.0000000000
      9119      3011  TIP3      H1             18.3869750248        4.1337906768      -10.9816571492  SOLV      3000            0.0000000000
      9120      3011  TIP3      H2             17.6047650248        3.9980806768      -12.2706971492  SOLV      3000            0.0000000000
      9121      3012  TIP3      OH2             3.7344850248        5.3980106768       -7.2753171492  SOLV      3001            0.0000000000
      9122      3012  TIP3      H1              4.1796450248        4.6062606768       -6.9733471492  SOLV      3001            0.0000000000
      9123      3012  TIP3      H2              4.2007850248        6.1145306768       -6.8447571492  SOLV      3001            0.0000000000
      9124      3013  TIP3      OH2             2.0385150248        8.3973106768       -6.2062971492  SOLV      3002            0.0000000000
      9125      3013  TIP3      H1              2.5304950248        8.1763606768       -6.9970971492  SOLV      3002            0.0000000000
      9126      3013  TIP3      H2              2.4006050248        9.2376506768       -5.9253471492  SOLV      3002            0.0000000000
      9127      3014  TIP3      OH2            20.0348950248        4.7274606768        0.0591028508  SOLV      3003            0.0000000000
      9128      3014  TIP3      H1             19.1174650248        4.9981706768        0.0234528508  SOLV      3003            0.0000000000
      9129      3014  TIP3      H2             20.1578350248        4.1923006768       -0.7249271492  SOLV      3003            0.0000000000
      9130      3015  TIP3      OH2            20.0710950248        4.6504506768      -15.2791271492  SOLV      3004            0.0000000000
      9131      3015  TIP3      H1             20.4833550248        3.9290206768      -15.7543271492  SOLV      3004            0.0000000000
      9132      3015  TIP3      H2             20.7527450248        5.3199106768      -15.2206971492  SOLV      3004            0.0000000000
      9133      3016  TIP3      OH2             2.3521650248        4.6552206768      -12.1520571492  SOLV      3005            0.0000000000
      9134      3016  TIP3      H1              1.4270050248        4.8638806768      -12.2815071492  SOLV      3005            0.0000000000
      9135      3016  TIP3      H2              2.8061550248        5.1393006768      -12.8418271492  SOLV      3005            0.0000000000
      9136      3017  TIP3      OH2            17.1228850248       19.6393906768      -10.2063171492  SOLV      3006            0.0000000000
      9137      3017  TIP3      H1             17.7751750248       19.2916006768      -10.8144071492  SOLV      3006            0.0000000000
      9138      3017  TIP3      H2             17.6332650248       20.1277106768       -9.5603471492  SOLV      3006            0.0000000000
      9139      3018  TIP3      OH2             2.3157050248        3.3931206768       -3.8078071492  SOLV      3007            0.0000000000
      9140      3018  TIP3      H1              1.6507550248        3.1471506768       -3.1647171492  SOLV      3007            0.0000000000
      9141      3018  TIP3      H2              1.8728350248        4.0151606768       -4.3850071492  SOLV      3007            0.0000000000
      9142      3019  TIP3      OH2             4.5076350248       16.5685306768        0.3367728508  SOLV      3008            0.0000000000
      9143      3019  TIP3      H1              3.6868850248       16.7431806768       -0.1237571492  SOLV      3008            0.0000000000
      9144      3019  TIP3      H2              4.2554150248       16.4950006768        1.2572128508  SOLV      3008            0.0000000000
      9145      3020  TIP3      OH2             7.4619250248       17.5426506768       -3.4048271492  SOLV      3009            0.0000000000
      9146      3020  TIP3      H1              7.0370350248       18.3525006768       -3.6873671492  SOLV      3009            0.0000000000
      9147      3020  TIP3      H2              8.3662050248       17.6280606768       -3.7068471492  SOLV      3009            0.0000000000
      9148      3021  TIP3      OH2            11.7730650248       18.9416506768       -0.4454571492  SOLV      3010            0.0000000000
      9149      3021  TIP3      H1             11.9578150248       18.6082606768        0.4325728508  SOLV      3010            0.0000000000
      9150      3021  TIP3      H2             12.6195150248       19.2515106768       -0.7675371492  SOLV      3010            0.0000000000
      9151      3022  TIP3      OH2            14.1181050248       20.2275406768       -1.2013171492  SOLV      3011            0.0000000000
      9152      3022  TIP3      H1             14.7949950248       19.5947706768       -1.4413971492  SOLV      3011            0.0000000000
      9153      3022  TIP3      H2             14.4399850248       20.6285906768       -0.3939871492  SOLV      3011            0.0000000000
      9154      3023  TIP3      OH2            19.0354850248        2.8170906768       -2.1218171492  SOLV      3012            0.0000000000
      9155      3023  TIP3      H1             18.2228350248        3.1421206768       -2.5093471492  SOLV      3012            0.0000000000
      9156      3023  TIP3      H2             19.2683350248        2.0569406768       -2.6549071492  SOLV      3012            0.0000000000
      9157      3024  TIP3      OH2             4.8635950248       20.7990406768       -3.3572971492  SOLV      3013            0.0000000000
      9158      3024  TIP3      H1              4.1432350248       21.2391406768       -3.8085271492  SOLV      3013            0.0000000000
      9159      3024  TIP3      H2              4.4979950248       20.5485106768       -2.5088971492  SOLV      3013            0.0000000000
      9160      3025  TIP3      OH2             7.3308550248       20.3994306768       -4.3275771492  SOLV      3014            0.0000000000
      9161      3025  TIP3      H1              6.4660750248       20.4712806768       -3.9235671492  SOLV      3014            0.0000000000
      9162      3025  TIP3      H2              7.2757550248       20.9461606768       -5.1113271492  SOLV      3014            0.0000000000
      9163      3026  TIP3      OH2            12.0414150248       20.2873206768       -5.1519771492  SOLV      3015            0.0000000000
      9164      3026  TIP3      H1             11.5848150248       20.8162906768       -5.8061371492  SOLV      3015            0.0000000000
      9165      3026  TIP3      H2             12.2042150248       20.8904606768       -4.4267471492  SOLV      3015            0.0000000000
      9166      3027  TIP3      OH2            14.3690450248       19.1652806768       -4.2069471492  SOLV      3016            0.0000000000
      9167      3027  TIP3      H1             13.4644150248       19.3303006768       -4.4727371492  SOLV      3016            0.0000000000
      9168      3027  TIP3      H2             14.7979050248       20.0185006768       -4.2726071492  SOLV      3016            0.0000000000
      9169      3028  TIP3      OH2            16.9732350248       20.7351906768       -3.9121671492  SOLV      3017            0.0000000000
      9170      3028  TIP3      H1             16.7914350248       21.6510806768       -4.1226771492  SOLV      3017            0.0000000000
      9171      3028  TIP3      H2             17.1500150248       20.3249006768       -4.7587071492  SOLV      3017            0.0000000000
      9172      3029  TIP3      OH2             4.2784050248       19.4222906768       -6.4471171492  SOLV      3018            0.0000000000
      9173      3029  TIP3      H1              4.2600050248       18.9968006768       -5.5898871492  SOLV      3018            0.0000000000
      9174      3029  TIP3      H2              5.0831950248       19.1037906768       -6.8558971492  SOLV      3018            0.0000000000
      9175      3030  TIP3      OH2             6.4197150248       18.1321606768       -7.7921271492  SOLV      3019            0.0000000000
      9176      3030  TIP3      H1              6.2007850248       17.2159006768       -7.6225271492  SOLV      3019            0.0000000000
      9177      3030  TIP3      H2              7.2439350248       18.2722006768       -7.3259871492  SOLV      3019            0.0000000000
      9178      3031  TIP3      OH2             8.9569650248       18.6020906768       -6.9433271492  SOLV      3020            0.0000000000
      9179      3031  TIP3      H1              9.1695350248       17.7139906768       -7.2302371492  SOLV      3020            0.0000000000
      9180      3031  TIP3      H2              9.0214750248       18.5678606768       -5.9889271492  SOLV      3020            0.0000000000
      9181      3032  TIP3      OH2            12.4653350248        4.2661506768       -7.7989971492  SOLV      3021            0.0000000000
      9182      3032  TIP3      H1             11.7910150248        3.6367106768       -7.5434171492  SOLV      3021            0.0000000000
      9183      3032  TIP3      H2             13.0292550248        3.7820406768       -8.4022071492  SOLV      3021            0.0000000000
      9184      3033  TIP3      OH2            17.6080550248        2.3735506768       -7.6862871492  SOLV      3022            0.0000000000
      9185      3033  TIP3      H1             18.2118150248        2.9210906768       -8.1881871492  SOLV      3022            0.0000000000
      9186      3033  TIP3      H2             16.7382550248        2.6925906768       -7.9268771492  SOLV      3022            0.0000000000
      9187      3034  TIP3      OH2            19.3350950248        3.5124206768       -9.3531971492  SOLV      3023            0.0000000000
      9188      3034  TIP3      H1             19.9468450248        2.9979906768       -9.8798371492  SOLV      3023            0.0000000000
      9189      3034  TIP3      H2             19.7174350248        4.3896306768       -9.3297571492  SOLV      3023            0.0000000000
      9190      3035  TIP3      OH2             4.7920850248        2.9001806768       -9.9770071492  SOLV      3024            0.0000000000
      9191      3035  TIP3      H1              4.0150650248        2.6656706768      -10.4844171492  SOLV      3024            0.0000000000
      9192      3035  TIP3      H2              5.3224450248        2.1033906768       -9.9682071492  SOLV      3024            0.0000000000
      9193      3036  TIP3      OH2             3.6284250248        2.6979906768      -14.1733971492  SOLV      3025            0.0000000000
      9194      3036  TIP3      H1              4.0674950248        3.3090406768      -14.7650471492  SOLV      3025            0.0000000000
      9195      3036  TIP3      H2              2.9946650248        3.2364006768      -13.6993971492  SOLV      3025            0.0000000000
      9196      3037  TIP3      OH2             9.3713450248        2.8268906768      -10.1636971492  SOLV      3026            0.0000000000
      9197      3037  TIP3      H1             10.2456850248        3.2153206768      -10.1932671492  SOLV      3026            0.0000000000
      9198      3037  TIP3      H2              9.2354250248        2.6116706768       -9.2409771492  SOLV      3026            0.0000000000
      9199      3038  TIP3      OH2            14.9281850248        2.8568706768       -8.5145271492  SOLV      3027            0.0000000000
      9200      3038  TIP3      H1             15.0043450248        2.9520306768       -9.4639271492  SOLV      3027            0.0000000000
      9201      3038  TIP3      H2             14.6531050248        1.9491606768       -8.3856171492  SOLV      3027            0.0000000000
      9202      3039  TIP3      OH2            16.2814450248        2.8826506768      -12.8220271492  SOLV      3028            0.0000000000
      9203      3039  TIP3      H1             15.5785550248        3.4975706768      -13.0318871492  SOLV      3028            0.0000000000
      9204      3039  TIP3      H2             15.8365850248        2.0453206768      -12.6909371492  SOLV      3028            0.0000000000
      9205      3040  TIP3      OH2             3.5293750248       18.6462106768      -13.2758871492  SOLV      3029            0.0000000000
      9206      3040  TIP3      H1              2.8443650248       18.6081006768      -13.9433771492  SOLV      3029            0.0000000000
      9207      3040  TIP3      H2              3.5330950248       19.5589706768      -12.9876771492  SOLV      3029            0.0000000000
      9208      3041  TIP3      OH2             5.4893350248        4.6141406768      -15.7309871492  SOLV      3030            0.0000000000
      9209      3041  TIP3      H1              5.9806750248        3.9843806768      -16.2584371492  SOLV      3030            0.0000000000
      9210      3041  TIP3      H2              6.1129650248        4.9100806768      -15.0678671492  SOLV      3030            0.0000000000
      9211      3042  TIP3      OH2            10.5153450248        4.9072906768      -13.2739371492  SOLV      3031            0.0000000000
      9212      3042  TIP3      H1             10.6934750248        4.2606106768      -12.5910771492  SOLV      3031            0.0000000000
      9213      3042  TIP3      H2             10.4619650248        5.7410606768      -12.8068271492  SOLV      3031            0.0000000000
      9214      3043  TIP3      OH2            12.3937250248       19.8557006768      -14.8782671492  SOLV      3032            0.0000000000
      9215      3043  TIP3      H1             13.2597450248       20.2224406768      -15.0564471492  SOLV      3032            0.0000000000
      9216      3043  TIP3      H2             12.1470050248       19.4165006768      -15.6921871492  SOLV      3032            0.0000000000
      9217      3044  TIP3      OH2            19.1026850248       19.4187306768      -12.1991571492  SOLV      3033            0.0000000000
      9218      3044  TIP3      H1             18.9083950248       18.6709406768      -12.7641971492  SOLV      3033            0.0000000000
      9219      3044  TIP3      H2             19.0636950248       20.1767406768      -12.7823671492  SOLV      3033            0.0000000000
      9220      3045  TIP3      OH2             5.3474950248       19.5662906768      -16.2506771492  SOLV      3034            0.0000000000
      9221      3045  TIP3      H1              5.0799550248       19.8525806768      -15.3773671492  SOLV      3034            0.0000000000
      9222      3045  TIP3      H2              6.1187550248       19.0202106768      -16.0984271492  SOLV      3034            0.0000000000
      9223      3046  TIP3      OH2            15.1441950248        2.0973406768        1.2586028508  SOLV      3035            0.0000000000
      9224      3046  TIP3      H1             15.2209150248        1.6714106768        2.1123728508  SOLV      3035            0.0000000000
      9225      3046  TIP3      H2             16.0378550248        2.1108106768        0.9159528508  SOLV      3035            0.0000000000
      9226      3047  TIP3      OH2            18.3203050248       18.1699706768       -0.0489771492  SOLV      3036            0.0000000000
      9227      3047  TIP3      H1             17.5384950248       17.9837706768       -0.5689171492  SOLV      3036            0.0000000000
      9228      3047  TIP3      H2             18.2482950248       19.0994006768        0.1682728508  SOLV      3036            0.0000000000
      9229      3048  TIP3      OH2            32.7263450248       12.0564106768      -10.0182571492  SOLV      3037            0.0000000000
      9230      3048  TIP3      H1             32.8154550248       13.0002306768      -10.1505471492  SOLV      3037            0.0000000000
      9231      3048  TIP3      H2             32.0881050248       11.7810506768      -10.6763171492  SOLV      3037            0.0000000000
      9232      3049  TIP3      OH2            31.6594750248       11.3114806768       -6.5994371492  SOLV      3038            0.0000000000
      9233      3049  TIP3      H1             31.6212250248       10.6651106768       -5.8944771492  SOLV      3038            0.0000000000
      9234      3049  TIP3      H2             31.3371250248       10.8449206768       -7.3705671492  SOLV      3038            0.0000000000
      9235      3050  TIP3      OH2            24.0279750248       10.9256906768       -5.0064471492  SOLV      3039            0.0000000000
      9236      3050  TIP3      H1             24.0691850248       10.3000206768       -4.2832071492  SOLV      3039            0.0000000000
      9237      3050  TIP3      H2             24.7307450248       11.5495506768       -4.8244071492  SOLV      3039            0.0000000000
      9238      3051  TIP3      OH2            35.3654950248       14.2505206768       -8.2979271492  SOLV      3040            0.0000000000
      9239      3051  TIP3      H1             34.9247650248       13.5301206768       -7.8473671492  SOLV      3040            0.0000000000
      9240      3051  TIP3      H2             35.3524650248       14.9712406768       -7.6681571492  SOLV      3040            0.0000000000
      9241      3052  TIP3      OH2            24.9512850248       15.3755806768       -6.4715371492  SOLV      3041            0.0000000000
      9242      3052  TIP3      H1             24.5818050248       14.5736306768       -6.8411071492  SOLV      3041            0.0000000000
      9243      3052  TIP3      H2             25.8923950248       15.2070706768       -6.4251971492  SOLV      3041            0.0000000000
      9244      3053  TIP3      OH2            21.5613350248        9.0358406768      -11.0786571492  SOLV      3042            0.0000000000
      9245      3053  TIP3      H1             21.1136750248        9.8817106768      -11.0970071492  SOLV      3042            0.0000000000
      9246      3053  TIP3      H2             21.0004550248        8.4562606768      -11.5941471492  SOLV      3042            0.0000000000
      9247      3054  TIP3      OH2            22.2719450248       11.1978006768       -8.9528571492  SOLV      3043            0.0000000000
      9248      3054  TIP3      H1             22.4852950248       10.4279606768       -8.4255571492  SOLV      3043            0.0000000000
      9249      3054  TIP3      H2             23.0097050248       11.2874706768       -9.5560971492  SOLV      3043            0.0000000000
      9250      3055  TIP3      OH2            30.0489150248       13.7436206768       -6.1933371492  SOLV      3044            0.0000000000
      9251      3055  TIP3      H1             30.3527050248       13.0577606768       -6.7879271492  SOLV      3044            0.0000000000
      9252      3055  TIP3      H2             30.7703150248       13.8624906768       -5.5755371492  SOLV      3044            0.0000000000
      9253      3056  TIP3      OH2            33.1896150248        8.1378606768       -5.8658571492  SOLV      3045            0.0000000000
      9254      3056  TIP3      H1             33.3322050248        7.1915606768       -5.8456971492  SOLV      3045            0.0000000000
      9255      3056  TIP3      H2             33.0835150248        8.3448406768       -6.7943671492  SOLV      3045            0.0000000000
      9256      3057  TIP3      OH2            26.3444450248        6.2395006768       -8.5933771492  SOLV      3046            0.0000000000
      9257      3057  TIP3      H1             26.3875550248        7.0993506768       -9.0117471492  SOLV      3046            0.0000000000
      9258      3057  TIP3      H2             25.8868550248        5.6869706768       -9.2270571492  SOLV      3046            0.0000000000
      9259      3058  TIP3      OH2            34.0667150248        6.3700606768      -10.1925471492  SOLV      3047            0.0000000000
      9260      3058  TIP3      H1             34.7131450248        6.0413806768       -9.5677871492  SOLV      3047            0.0000000000
      9261      3058  TIP3      H2             34.5766550248        6.8879606768      -10.8154071492  SOLV      3047            0.0000000000
      9262      3059  TIP3      OH2            22.9645950248        8.6360806768       -7.8312371492  SOLV      3048            0.0000000000
      9263      3059  TIP3      H1             23.6182550248        8.0862506768       -7.3992271492  SOLV      3048            0.0000000000
      9264      3059  TIP3      H2             22.9885250248        8.3619806768       -8.7480371492  SOLV      3048            0.0000000000
      9265      3060  TIP3      OH2            28.1210450248       10.1862106768       -8.6160871492  SOLV      3049            0.0000000000
      9266      3060  TIP3      H1             28.7371450248        9.6597506768       -8.1066871492  SOLV      3049            0.0000000000
      9267      3060  TIP3      H2             27.5349250248        9.5460806768       -9.0197271492  SOLV      3049            0.0000000000
      9268      3061  TIP3      OH2            25.1546350248        5.1573406768       -4.5192971492  SOLV      3050            0.0000000000
      9269      3061  TIP3      H1             24.9358050248        5.6874006768       -5.2856971492  SOLV      3050            0.0000000000
      9270      3061  TIP3      H2             24.4867250248        5.3838906768       -3.8721571492  SOLV      3050            0.0000000000
      9271      3062  TIP3      OH2            32.5236150248       14.6574506768      -10.9753871492  SOLV      3051            0.0000000000
      9272      3062  TIP3      H1             32.2281250248       14.3346806768      -11.8266971492  SOLV      3051            0.0000000000
      9273      3062  TIP3      H2             32.1993950248       15.5571206768      -10.9341271492  SOLV      3051            0.0000000000
      9274      3063  TIP3      OH2            27.7237750248       12.8329106768       -4.2319271492  SOLV      3052            0.0000000000
      9275      3063  TIP3      H1             26.9836850248       13.4310606768       -4.1284071492  SOLV      3052            0.0000000000
      9276      3063  TIP3      H2             28.4377250248       13.3868706768       -4.5475671492  SOLV      3052            0.0000000000
      9277      3064  TIP3      OH2            24.7483650248        7.0495206768       -6.5670771492  SOLV      3053            0.0000000000
      9278      3064  TIP3      H1             25.3619950248        7.6822806768       -6.1938371492  SOLV      3053            0.0000000000
      9279      3064  TIP3      H2             25.2604350248        6.5770206768       -7.2233871492  SOLV      3053            0.0000000000
      9280      3065  TIP3      OH2            26.1312050248       14.7972106768       -3.4447771492  SOLV      3054            0.0000000000
      9281      3065  TIP3      H1             26.1259650248       15.6765606768       -3.8228471492  SOLV      3054            0.0000000000
      9282      3065  TIP3      H2             25.2776150248       14.7136206768       -3.0197871492  SOLV      3054            0.0000000000
      9283      3066  TIP3      OH2            22.2522950248       14.4680006768      -12.6628471492  SOLV      3055            0.0000000000
      9284      3066  TIP3      H1             21.9803850248       14.6971006768      -13.5515571492  SOLV      3055            0.0000000000
      9285      3066  TIP3      H2             22.2978650248       15.3058806768      -12.2023171492  SOLV      3055            0.0000000000
      9286      3067  TIP3      OH2            29.1811050248        2.4628506768       -7.0668071492  SOLV      3056            0.0000000000
      9287      3067  TIP3      H1             29.0635250248        1.5144506768       -7.1209771492  SOLV      3056            0.0000000000
      9288      3067  TIP3      H2             28.3261150248        2.7954606768       -6.7936971492  SOLV      3056            0.0000000000
      9289      3068  TIP3      OH2            31.4475950248       11.3004106768      -12.5662271492  SOLV      3057            0.0000000000
      9290      3068  TIP3      H1             30.7361450248       11.8353806768      -12.9181771492  SOLV      3057            0.0000000000
      9291      3068  TIP3      H2             32.1385550248       11.3556206768      -13.2263371492  SOLV      3057            0.0000000000
      9292      3069  TIP3      OH2            31.5015150248        9.7578406768      -15.5277271492  SOLV      3058            0.0000000000
      9293      3069  TIP3      H1             32.2025050248        9.7805306768      -14.8763271492  SOLV      3058            0.0000000000
      9294      3069  TIP3      H2             31.8038050248        9.1298106768      -16.1837971492  SOLV      3058            0.0000000000
      9295      3070  TIP3      OH2            34.8533650248       11.5097406768      -11.6146371492  SOLV      3059            0.0000000000
      9296      3070  TIP3      H1             34.1214650248       11.7381106768      -11.0415771492  SOLV      3059            0.0000000000
      9297      3070  TIP3      H2             35.3005850248       10.7960106768      -11.1598871492  SOLV      3059            0.0000000000
      9298      3071  TIP3      OH2            34.7507150248        9.6840006768       -2.5469371492  SOLV      3060            0.0000000000
      9299      3071  TIP3      H1             34.8306250248       10.4474406768       -1.9750871492  SOLV      3060            0.0000000000
      9300      3071  TIP3      H2             34.1494850248        9.9632406768       -3.2374271492  SOLV      3060            0.0000000000
      9301      3072  TIP3      OH2            26.4987350248       12.1403606768       -9.7321371492  SOLV      3061            0.0000000000
      9302      3072  TIP3      H1             26.1682550248       11.7697006768      -10.5504371492  SOLV      3061            0.0000000000
      9303      3072  TIP3      H2             27.0871450248       11.4697606768       -9.3853071492  SOLV      3061            0.0000000000
      9304      3073  TIP3      OH2            27.8654850248       15.5684206768       -7.0509171492  SOLV      3062            0.0000000000
      9305      3073  TIP3      H1             27.7706150248       14.9897306768       -7.8074571492  SOLV      3062            0.0000000000
      9306      3073  TIP3      H2             28.5948450248       15.1969906768       -6.5546371492  SOLV      3062            0.0000000000
      9307      3074  TIP3      OH2            26.8652850248       10.9089206768       -6.0986371492  SOLV      3063            0.0000000000
      9308      3074  TIP3      H1             27.4305350248       11.0303406768       -6.8615171492  SOLV      3063            0.0000000000
      9309      3074  TIP3      H2             27.1841750248       11.5464206768       -5.4597871492  SOLV      3063            0.0000000000
      9310      3075  TIP3      OH2            33.1745050248       16.4121106768       -5.3645871492  SOLV      3064            0.0000000000
      9311      3075  TIP3      H1             32.9341650248       17.0744206768       -4.7166671492  SOLV      3064            0.0000000000
      9312      3075  TIP3      H2             32.9763250248       15.5776306768       -4.9396271492  SOLV      3064            0.0000000000
      9313      3076  TIP3      OH2            27.7453550248       15.3081906768       -1.3814471492  SOLV      3065            0.0000000000
      9314      3076  TIP3      H1             27.4341050248       16.0905106768       -0.9261271492  SOLV      3065            0.0000000000
      9315      3076  TIP3      H2             27.0953750248       15.1551006768       -2.0672471492  SOLV      3065            0.0000000000
      9316      3077  TIP3      OH2            33.7243150248       10.6720306768      -13.9295171492  SOLV      3066            0.0000000000
      9317      3077  TIP3      H1             34.3038650248       10.8220606768      -13.1826271492  SOLV      3066            0.0000000000
      9318      3077  TIP3      H2             34.1383150248       11.1427706768      -14.6528771492  SOLV      3066            0.0000000000
      9319      3078  TIP3      OH2            24.6653450248       11.5063006768       -2.1528771492  SOLV      3067            0.0000000000
      9320      3078  TIP3      H1             24.7356650248       12.1569806768       -1.4543771492  SOLV      3067            0.0000000000
      9321      3078  TIP3      H2             23.7745650248       11.6090506768       -2.4877871492  SOLV      3067            0.0000000000
      9322      3079  TIP3      OH2            31.4508050248       17.4088806768      -10.4942071492  SOLV      3068            0.0000000000
      9323      3079  TIP3      H1             31.9245650248       17.7045106768       -9.7167871492  SOLV      3068            0.0000000000
      9324      3079  TIP3      H2             30.8877350248       18.1470406768      -10.7272471492  SOLV      3068            0.0000000000
      9325      3080  TIP3      OH2            25.9849450248       17.3796906768       -0.6180671492  SOLV      3069            0.0000000000
      9326      3080  TIP3      H1             25.9924750248       17.2436606768       -1.5655171492  SOLV      3069            0.0000000000
      9327      3080  TIP3      H2             25.0689850248       17.2625006768       -0.3660671492  SOLV      3069            0.0000000000
      9328      3081  TIP3      OH2            25.4890050248       11.2097906768      -12.1428571492  SOLV      3070            0.0000000000
      9329      3081  TIP3      H1             25.1971350248       11.9779606768      -12.6337271492  SOLV      3070            0.0000000000
      9330      3081  TIP3      H2             24.8145250248       10.5504106768      -12.3057171492  SOLV      3070            0.0000000000
      9331      3082  TIP3      OH2            21.5820150248       13.5727106768       -3.3278771492  SOLV      3071            0.0000000000
      9332      3082  TIP3      H1             21.0808550248       13.5446506768       -4.1429071492  SOLV      3071            0.0000000000
      9333      3082  TIP3      H2             21.5873850248       12.6670306768       -3.0181471492  SOLV      3071            0.0000000000
      9334      3083  TIP3      OH2            21.3322850248       16.3530906768       -6.4438571492  SOLV      3072            0.0000000000
      9335      3083  TIP3      H1             22.2783450248       16.2087906768       -6.4629071492  SOLV      3072            0.0000000000
      9336      3083  TIP3      H2             21.2199150248       17.1373706768       -5.9067371492  SOLV      3072            0.0000000000
      9337      3084  TIP3      OH2            30.5085350248       16.5929806768       -1.8853471492  SOLV      3073            0.0000000000
      9338      3084  TIP3      H1             30.5959950248       17.4194406768       -1.4104371492  SOLV      3073            0.0000000000
      9339      3084  TIP3      H2             29.6450450248       16.2633606768       -1.6364171492  SOLV      3073            0.0000000000
      9340      3085  TIP3      OH2            30.9231150248       20.3653506768      -12.0792871492  SOLV      3074            0.0000000000
      9341      3085  TIP3      H1             30.8477150248       20.2440706768      -13.0257671492  SOLV      3074            0.0000000000
      9342      3085  TIP3      H2             30.9559850248       21.3146206768      -11.9608271492  SOLV      3074            0.0000000000
      9343      3086  TIP3      OH2            24.5764950248       19.1540506768      -10.2983871492  SOLV      3075            0.0000000000
      9344      3086  TIP3      H1             24.7285350248       18.8060906768       -9.4197371492  SOLV      3075            0.0000000000
      9345      3086  TIP3      H2             23.7255350248       18.7977806768      -10.5536671492  SOLV      3075            0.0000000000
      9346      3087  TIP3      OH2            23.8310650248       14.8962506768       -2.2845971492  SOLV      3076            0.0000000000
      9347      3087  TIP3      H1             24.0471950248       14.5348106768       -1.4250171492  SOLV      3076            0.0000000000
      9348      3087  TIP3      H2             22.9755350248       14.5216306768       -2.4942471492  SOLV      3076            0.0000000000
      9349      3088  TIP3      OH2            26.4498650248        3.3663006768       -6.2891771492  SOLV      3077            0.0000000000
      9350      3088  TIP3      H1             25.5882350248        3.2791206768       -6.6968871492  SOLV      3077            0.0000000000
      9351      3088  TIP3      H2             26.4274350248        4.2223106768       -5.8614171492  SOLV      3077            0.0000000000
      9352      3089  TIP3      OH2            31.1126450248        3.0883406768       -2.9144771492  SOLV      3078            0.0000000000
      9353      3089  TIP3      H1             31.5329550248        2.6730506768       -2.1614171492  SOLV      3078            0.0000000000
      9354      3089  TIP3      H2             30.1796050248        2.9096706768       -2.7972771492  SOLV      3078            0.0000000000
      9355      3090  TIP3      OH2            34.4391350248        6.8438606768       -2.0610271492  SOLV      3079            0.0000000000
      9356      3090  TIP3      H1             33.9250850248        6.7180806768       -1.2634271492  SOLV      3079            0.0000000000
      9357      3090  TIP3      H2             34.2836050248        7.7561706768       -2.3054071492  SOLV      3079            0.0000000000
      9358      3091  TIP3      OH2            30.7743750248        5.5806806768      -15.6293971492  SOLV      3080            0.0000000000
      9359      3091  TIP3      H1             30.5208550248        5.5998406768      -14.7065871492  SOLV      3080            0.0000000000
      9360      3091  TIP3      H2             30.5175850248        4.7092206768      -15.9307771492  SOLV      3080            0.0000000000
      9361      3092  TIP3      OH2            26.5408750248        8.3317506768       -5.1941571492  SOLV      3081            0.0000000000
      9362      3092  TIP3      H1             25.8990850248        8.2914806768       -4.4851471492  SOLV      3081            0.0000000000
      9363      3092  TIP3      H2             26.5780750248        9.2582206768       -5.4318571492  SOLV      3081            0.0000000000
      9364      3093  TIP3      OH2            26.5377850248        8.5527606768      -10.2821571492  SOLV      3082            0.0000000000
      9365      3093  TIP3      H1             25.6450750248        8.2123706768      -10.3407771492  SOLV      3082            0.0000000000
      9366      3093  TIP3      H2             26.9884450248        8.1758506768      -11.0378371492  SOLV      3082            0.0000000000
      9367      3094  TIP3      OH2            32.0733350248        8.9687906768      -11.4650771492  SOLV      3083            0.0000000000
      9368      3094  TIP3      H1             31.6643650248        9.7836506768      -11.7565971492  SOLV      3083            0.0000000000
      9369      3094  TIP3      H2             32.7939550248        8.8288006768      -12.0793671492  SOLV      3083            0.0000000000
      9370      3095  TIP3      OH2            31.1754950248        9.1444306768        0.0229928508  SOLV      3084            0.0000000000
      9371      3095  TIP3      H1             30.6128750248        8.4395906768        0.3437728508  SOLV      3084            0.0000000000
      9372      3095  TIP3      H2             32.0018350248        9.0236206768        0.4907528508  SOLV      3084            0.0000000000
      9373      3096  TIP3      OH2            33.0781050248        8.4148306768       -8.6511071492  SOLV      3085            0.0000000000
      9374      3096  TIP3      H1             32.8825550248        9.0205106768       -9.3660471492  SOLV      3085            0.0000000000
      9375      3096  TIP3      H2             33.2593650248        7.5813506768       -9.0854771492  SOLV      3085            0.0000000000
      9376      3097  TIP3      OH2            24.2909250248        8.6521006768       -3.3269571492  SOLV      3086            0.0000000000
      9377      3097  TIP3      H1             24.2528650248        9.0522606768       -2.4582471492  SOLV      3086            0.0000000000
      9378      3097  TIP3      H2             23.8000350248        7.8353406768       -3.2366671492  SOLV      3086            0.0000000000
      9379      3098  TIP3      OH2            27.6566650248        6.0263306768      -16.5283571492  SOLV      3087            0.0000000000
      9380      3098  TIP3      H1             27.2257350248        5.5813406768      -15.7986171492  SOLV      3087            0.0000000000
      9381      3098  TIP3      H2             26.9385350248        6.3979606768      -17.0406071492  SOLV      3087            0.0000000000
      9382      3099  TIP3      OH2            20.8990050248        5.7682806768       -9.4764871492  SOLV      3088            0.0000000000
      9383      3099  TIP3      H1             21.5297750248        5.7394906768       -8.7570971492  SOLV      3088            0.0000000000
      9384      3099  TIP3      H2             21.3484350248        5.3431506768      -10.2068971492  SOLV      3088            0.0000000000
      9385      3100  TIP3      OH2            22.1732150248        6.5144806768      -14.0524471492  SOLV      3089            0.0000000000
      9386      3100  TIP3      H1             22.6473850248        7.1054706768      -14.6373571492  SOLV      3089            0.0000000000
      9387      3100  TIP3      H2             21.4558550248        7.0447706768      -13.7054371492  SOLV      3089            0.0000000000
      9388      3101  TIP3      OH2            32.3420250248       10.0529606768       -3.9798671492  SOLV      3090            0.0000000000
      9389      3101  TIP3      H1             32.6655050248        9.4219306768       -4.6228171492  SOLV      3090            0.0000000000
      9390      3101  TIP3      H2             31.9019550248        9.5181806768       -3.3191271492  SOLV      3090            0.0000000000
      9391      3102  TIP3      OH2            29.1193150248        5.9805106768       -9.1957471492  SOLV      3091            0.0000000000
      9392      3102  TIP3      H1             28.2084250248        6.0371906768       -8.9071471492  SOLV      3091            0.0000000000
      9393      3102  TIP3      H2             29.6246050248        5.9200606768       -8.3850271492  SOLV      3091            0.0000000000
      9394      3103  TIP3      OH2            23.9476550248        7.6091406768      -10.3689871492  SOLV      3092            0.0000000000
      9395      3103  TIP3      H1             23.0584550248        7.7086906768      -10.7090271492  SOLV      3092            0.0000000000
      9396      3103  TIP3      H2             24.2441450248        6.7674406768      -10.7151971492  SOLV      3092            0.0000000000
      9397      3104  TIP3      OH2            33.5245050248        5.2151406768       -5.9315671492  SOLV      3093            0.0000000000
      9398      3104  TIP3      H1             32.8476650248        5.3464506768       -5.2675971492  SOLV      3093            0.0000000000
      9399      3104  TIP3      H2             33.0389950248        5.0600906768       -6.7417971492  SOLV      3093            0.0000000000
      9400      3105  TIP3      OH2            26.2748550248        8.8036206768      -15.1459171492  SOLV      3094            0.0000000000
      9401      3105  TIP3      H1             25.7323650248        8.4240006768      -15.8371571492  SOLV      3094            0.0000000000
      9402      3105  TIP3      H2             27.1083450248        8.9980906768      -15.5745071492  SOLV      3094            0.0000000000
      9403      3106  TIP3      OH2            24.4099950248       13.3608106768       -0.0467571492  SOLV      3095            0.0000000000
      9404      3106  TIP3      H1             25.1422350248       13.6154006768        0.5146928508  SOLV      3095            0.0000000000
      9405      3106  TIP3      H2             23.6298650248       13.5653506768        0.4687828508  SOLV      3095            0.0000000000
      9406      3107  TIP3      OH2            30.4392850248        8.7678106768       -7.3087871492  SOLV      3096            0.0000000000
      9407      3107  TIP3      H1             31.0036250248        8.2214706768       -7.8558271492  SOLV      3096            0.0000000000
      9408      3107  TIP3      H2             30.2916250248        8.2460006768       -6.5200271492  SOLV      3096            0.0000000000
      9409      3108  TIP3      OH2            25.4412550248        4.9044206768      -10.8903071492  SOLV      3097            0.0000000000
      9410      3108  TIP3      H1             25.1242050248        4.0019506768      -10.9257671492  SOLV      3097            0.0000000000
      9411      3108  TIP3      H2             26.2226650248        4.9061606768      -11.4431471492  SOLV      3097            0.0000000000
      9412      3109  TIP3      OH2            29.0658750248        7.1564206768       -4.8947471492  SOLV      3098            0.0000000000
      9413      3109  TIP3      H1             28.2304050248        7.6103706768       -4.7845071492  SOLV      3098            0.0000000000
      9414      3109  TIP3      H2             29.5899350248        7.4322706768       -4.1427571492  SOLV      3098            0.0000000000
      9415      3110  TIP3      OH2            29.6101350248       13.3691906768      -13.2101071492  SOLV      3099            0.0000000000
      9416      3110  TIP3      H1             28.8652350248       12.8617206768      -13.5323171492  SOLV      3099            0.0000000000
      9417      3110  TIP3      H2             29.4758550248       13.4179906768      -12.2636271492  SOLV      3099            0.0000000000
      9418      3111  TIP3      OH2            33.5078150248        6.1831806768      -15.0108471492  SOLV      3100            0.0000000000
      9419      3111  TIP3      H1             32.5692350248        6.2947406768      -15.1619671492  SOLV      3100            0.0000000000
      9420      3111  TIP3      H2             33.8050250248        7.0398706768      -14.7042771492  SOLV      3100            0.0000000000
      9421      3112  TIP3      OH2            31.1293450248       13.5535206768       -1.9731971492  SOLV      3101            0.0000000000
      9422      3112  TIP3      H1             30.7839550248       13.1717606768       -1.1662371492  SOLV      3101            0.0000000000
      9423      3112  TIP3      H2             30.9293550248       14.4868806768       -1.9019071492  SOLV      3101            0.0000000000
      9424      3113  TIP3      OH2            34.2261650248        8.0504506768      -13.3501071492  SOLV      3102            0.0000000000
      9425      3113  TIP3      H1             35.1180650248        7.9129506768      -13.0309871492  SOLV      3102            0.0000000000
      9426      3113  TIP3      H2             34.2825250248        8.8410606768      -13.8867571492  SOLV      3102            0.0000000000
      9427      3114  TIP3      OH2            24.7349650248       12.6641906768       -7.4403171492  SOLV      3103            0.0000000000
      9428      3114  TIP3      H1             25.4796850248       12.6617606768       -8.0416671492  SOLV      3103            0.0000000000
      9429      3114  TIP3      H2             24.8126250248       11.8405706768       -6.9588071492  SOLV      3103            0.0000000000
      9430      3115  TIP3      OH2            31.7355450248       14.8276206768      -14.1846471492  SOLV      3104            0.0000000000
      9431      3115  TIP3      H1             31.4403850248       15.6544106768      -13.8031671492  SOLV      3104            0.0000000000
      9432      3115  TIP3      H2             31.0325450248       14.2083106768      -13.9885071492  SOLV      3104            0.0000000000
      9433      3116  TIP3      OH2            21.7429350248       11.1248806768       -2.1254671492  SOLV      3105            0.0000000000
      9434      3116  TIP3      H1             21.9657950248       10.7068406768       -1.2937171492  SOLV      3105            0.0000000000
      9435      3116  TIP3      H2             21.1409450248       10.5123806768       -2.5481871492  SOLV      3105            0.0000000000
      9436      3117  TIP3      OH2            28.7594250248       10.6418706768        0.0875028508  SOLV      3106            0.0000000000
      9437      3117  TIP3      H1             28.4635050248       10.4761706768       -0.8075871492  SOLV      3106            0.0000000000
      9438      3117  TIP3      H2             29.6909450248       10.4219006768        0.0768928508  SOLV      3106            0.0000000000
      9439      3118  TIP3      OH2            33.3797050248       16.0150706768       -2.0226971492  SOLV      3107            0.0000000000
      9440      3118  TIP3      H1             32.4791350248       16.1983306768       -2.2903071492  SOLV      3107            0.0000000000
      9441      3118  TIP3      H2             33.4138150248       16.2740006768       -1.1018171492  SOLV      3107            0.0000000000
      9442      3119  TIP3      OH2            34.5665950248       11.8538506768       -6.1690371492  SOLV      3108            0.0000000000
      9443      3119  TIP3      H1             33.6382850248       11.6220406768       -6.1961071492  SOLV      3108            0.0000000000
      9444      3119  TIP3      H2             35.0177050248       11.0768306768       -6.4991571492  SOLV      3108            0.0000000000
      9445      3120  TIP3      OH2            27.1099050248       16.1820106768      -10.0361671492  SOLV      3109            0.0000000000
      9446      3120  TIP3      H1             27.6371250248       16.9554506768      -10.2362871492  SOLV      3109            0.0000000000
      9447      3120  TIP3      H2             26.2297550248       16.4069306768      -10.3377671492  SOLV      3109            0.0000000000
      9448      3121  TIP3      OH2            22.8646750248       11.0444206768      -15.4489271492  SOLV      3110            0.0000000000
      9449      3121  TIP3      H1             23.4806650248       11.6711406768      -15.0694471492  SOLV      3110            0.0000000000
      9450      3121  TIP3      H2             22.0029350248       11.3604006768      -15.1772771492  SOLV      3110            0.0000000000
      9451      3122  TIP3      OH2            28.5371350248       13.8450006768      -10.4597371492  SOLV      3111            0.0000000000
      9452      3122  TIP3      H1             28.2961350248       14.7704406768      -10.4182071492  SOLV      3111            0.0000000000
      9453      3122  TIP3      H2             27.7964950248       13.3861306768      -10.0633471492  SOLV      3111            0.0000000000
      9454      3123  TIP3      OH2            29.0517950248       17.9943606768       -4.1446271492  SOLV      3112            0.0000000000
      9455      3123  TIP3      H1             29.4142650248       18.8489206768       -4.3781871492  SOLV      3112            0.0000000000
      9456      3123  TIP3      H2             29.5833150248       17.7025206768       -3.4039971492  SOLV      3112            0.0000000000
      9457      3124  TIP3      OH2            27.2202150248       18.8667606768      -10.9145171492  SOLV      3113            0.0000000000
      9458      3124  TIP3      H1             26.2702650248       18.9725006768      -10.8631871492  SOLV      3113            0.0000000000
      9459      3124  TIP3      H2             27.5720250248       19.6875006768      -10.5697671492  SOLV      3113            0.0000000000
      9460      3125  TIP3      OH2            32.5958750248       14.0934306768       -4.4440671492  SOLV      3114            0.0000000000
      9461      3125  TIP3      H1             32.1700050248       13.8656006768       -3.6176671492  SOLV      3114            0.0000000000
      9462      3125  TIP3      H2             33.1764550248       13.3546106768       -4.6265371492  SOLV      3114            0.0000000000
      9463      3126  TIP3      OH2            23.3768850248        5.8781506768       -2.5673271492  SOLV      3115            0.0000000000
      9464      3126  TIP3      H1             22.4841150248        6.2166906768       -2.6349271492  SOLV      3115            0.0000000000
      9465      3126  TIP3      H2             23.2781650248        5.0227606768       -2.1492471492  SOLV      3115            0.0000000000
      9466      3127  TIP3      OH2            35.6646950248       13.6946806768      -13.1433771492  SOLV      3116            0.0000000000
      9467      3127  TIP3      H1             35.3874550248       12.9666106768      -12.5872671492  SOLV      3116            0.0000000000
      9468      3127  TIP3      H2             36.5919950248       13.8138806768      -12.9381171492  SOLV      3116            0.0000000000
      9469      3128  TIP3      OH2            23.0280850248       17.6825906768       -4.1323871492  SOLV      3117            0.0000000000
      9470      3128  TIP3      H1             23.2451150248       16.7508306768       -4.1634171492  SOLV      3117            0.0000000000
      9471      3128  TIP3      H2             23.2744350248       17.9570906768       -3.2491071492  SOLV      3117            0.0000000000
      9472      3129  TIP3      OH2            27.8266050248       15.7044706768      -14.4669071492  SOLV      3118            0.0000000000
      9473      3129  TIP3      H1             27.9734050248       15.1844506768      -13.6768171492  SOLV      3118            0.0000000000
      9474      3129  TIP3      H2             27.8237750248       16.6112306768      -14.1603171492  SOLV      3118            0.0000000000
      9475      3130  TIP3      OH2            24.2797150248       12.9568006768      -13.9563671492  SOLV      3119            0.0000000000
      9476      3130  TIP3      H1             23.5936450248       13.3090506768      -13.3893971492  SOLV      3119            0.0000000000
      9477      3130  TIP3      H2             24.8025050248       13.7197606768      -14.2029371492  SOLV      3119            0.0000000000
      9478      3131  TIP3      OH2            32.1112250248        5.6191806768       -3.6774671492  SOLV      3120            0.0000000000
      9479      3131  TIP3      H1             32.8100150248        5.6930506768       -3.0274971492  SOLV      3120            0.0000000000
      9480      3131  TIP3      H2             31.7303650248        4.7546806768       -3.5231771492  SOLV      3120            0.0000000000
      9481      3132  TIP3      OH2            32.8957150248        5.2713506768      -12.5802371492  SOLV      3121            0.0000000000
      9482      3132  TIP3      H1             33.1155450248        5.7428906768      -13.3836971492  SOLV      3121            0.0000000000
      9483      3132  TIP3      H2             33.4541150248        5.6656106768      -11.9101771492  SOLV      3121            0.0000000000
      9484      3133  TIP3      OH2            30.5643250248       17.4018306768      -13.7174871492  SOLV      3122            0.0000000000
      9485      3133  TIP3      H1             29.7479350248       17.8988006768      -13.6650571492  SOLV      3122            0.0000000000
      9486      3133  TIP3      H2             31.0939550248       17.8771806768      -14.3576071492  SOLV      3122            0.0000000000
      9487      3134  TIP3      OH2            30.6313450248        7.9855006768       -2.5607371492  SOLV      3123            0.0000000000
      9488      3134  TIP3      H1             30.7503750248        8.5590406768       -1.8036971492  SOLV      3123            0.0000000000
      9489      3134  TIP3      H2             31.2868050248        7.2974406768       -2.4459571492  SOLV      3123            0.0000000000
      9490      3135  TIP3      OH2            30.9793750248        4.0805306768      -10.8072871492  SOLV      3124            0.0000000000
      9491      3135  TIP3      H1             30.6327250248        4.6975906768      -10.1628571492  SOLV      3124            0.0000000000
      9492      3135  TIP3      H2             31.6380650248        4.5811006768      -11.2887371492  SOLV      3124            0.0000000000
      9493      3136  TIP3      OH2            27.9026350248       18.4455506768      -13.7357971492  SOLV      3125            0.0000000000
      9494      3136  TIP3      H1             28.0635050248       19.2453006768      -14.2365371492  SOLV      3125            0.0000000000
      9495      3136  TIP3      H2             27.7054150248       18.7521506768      -12.8507371492  SOLV      3125            0.0000000000
      9496      3137  TIP3      OH2            26.6370750248        5.1434706768      -14.1200371492  SOLV      3126            0.0000000000
      9497      3137  TIP3      H1             26.5535550248        6.0317806768      -13.7733971492  SOLV      3126            0.0000000000
      9498      3137  TIP3      H2             27.5271050248        4.8781406768      -13.8883571492  SOLV      3126            0.0000000000
      9499      3138  TIP3      OH2            35.4380250248        9.6426306768       -7.6300371492  SOLV      3127            0.0000000000
      9500      3138  TIP3      H1             34.6404650248        9.2276506768       -7.9585371492  SOLV      3127            0.0000000000
      9501      3138  TIP3      H2             35.8831350248        8.9520006768       -7.1389871492  SOLV      3127            0.0000000000
      9502      3139  TIP3      OH2            24.8956050248       15.5706906768      -15.0595871492  SOLV      3128            0.0000000000
      9503      3139  TIP3      H1             25.4877550248       16.2701706768      -14.7833471492  SOLV      3128            0.0000000000
      9504      3139  TIP3      H2             25.3549050248       15.1376406768      -15.7791271492  SOLV      3128            0.0000000000
      9505      3140  TIP3      OH2            23.2115250248        8.2349906768      -15.9436471492  SOLV      3129            0.0000000000
      9506      3140  TIP3      H1             23.1667850248        9.1743006768      -15.7649471492  SOLV      3129            0.0000000000
      9507      3140  TIP3      H2             22.3238450248        7.9994806768      -16.2134371492  SOLV      3129            0.0000000000
      9508      3141  TIP3      OH2            24.0197250248        3.0166506768       -7.2705471492  SOLV      3130            0.0000000000
      9509      3141  TIP3      H1             23.7907050248        3.0759006768       -8.1980471492  SOLV      3130            0.0000000000
      9510      3141  TIP3      H2             23.5770650248        2.2252006768       -6.9641371492  SOLV      3130            0.0000000000
      9511      3142  TIP3      OH2            22.9500550248       16.9573606768      -11.1099671492  SOLV      3131            0.0000000000
      9512      3142  TIP3      H1             22.1179150248       17.4296306768      -11.0828271492  SOLV      3131            0.0000000000
      9513      3142  TIP3      H2             23.4958850248       17.4671206768      -11.7086571492  SOLV      3131            0.0000000000
      9514      3143  TIP3      OH2            22.2384250248       19.5697306768        0.2198328508  SOLV      3132            0.0000000000
      9515      3143  TIP3      H1             22.7786450248       19.3531306768        0.9797528508  SOLV      3132            0.0000000000
      9516      3143  TIP3      H2             21.7572250248       18.7643306768        0.0300828508  SOLV      3132            0.0000000000
      9517      3144  TIP3      OH2            26.8357650248       18.4891706768        1.8402528508  SOLV      3133            0.0000000000
      9518      3144  TIP3      H1             27.6034850248       18.0302506768        2.1811728508  SOLV      3133            0.0000000000
      9519      3144  TIP3      H2             26.8143850248       18.2631506768        0.9103728508  SOLV      3133            0.0000000000
      9520      3145  TIP3      OH2            33.4126350248       16.8692806768        0.5694028508  SOLV      3134            0.0000000000
      9521      3145  TIP3      H1             33.0615850248       16.0125806768        0.8124428508  SOLV      3134            0.0000000000
      9522      3145  TIP3      H2             34.1389550248       17.0119506768        1.1763028508  SOLV      3134            0.0000000000
      9523      3146  TIP3      OH2            22.1453750248       13.3801406768        1.1742628508  SOLV      3135            0.0000000000
      9524      3146  TIP3      H1             22.2894250248       12.4782106768        0.8879328508  SOLV      3135            0.0000000000
      9525      3146  TIP3      H2             21.3731150248       13.6663506768        0.6864928508  SOLV      3135            0.0000000000
      9526      3147  TIP3      OH2            26.4867450248       13.7237106768      -16.6932771492  SOLV      3136            0.0000000000
      9527      3147  TIP3      H1             26.5511550248       12.9296706768      -16.1626371492  SOLV      3136            0.0000000000
      9528      3147  TIP3      H2             27.1396650248       13.6049906768      -17.3830771492  SOLV      3136            0.0000000000
      9529      3148  TIP3      OH2            28.8009850248       13.3499506768        0.6069028508  SOLV      3137            0.0000000000
      9530      3148  TIP3      H1             28.4723650248       13.6207606768       -0.2503571492  SOLV      3137            0.0000000000
      9531      3148  TIP3      H2             28.9528050248       12.4089306768        0.5194028508  SOLV      3137            0.0000000000
      9532      3149  TIP3      OH2            34.5355050248       13.2656806768       -2.0098671492  SOLV      3138            0.0000000000
      9533      3149  TIP3      H1             35.2809850248       13.8540506768       -2.1294671492  SOLV      3138            0.0000000000
      9534      3149  TIP3      H2             33.7781850248       13.8476506768       -1.9465571492  SOLV      3138            0.0000000000
      9535      3150  TIP3      OH2            22.9780250248       10.5804706768        0.5941928508  SOLV      3139            0.0000000000
      9536      3150  TIP3      H1             23.3861450248        9.7231306768        0.4732528508  SOLV      3139            0.0000000000
      9537      3150  TIP3      H2             22.7177850248       10.5946006768        1.5152228508  SOLV      3139            0.0000000000
      9538      3151  TIP3      OH2            27.6361250248       11.6963306768      -14.3874771492  SOLV      3140            0.0000000000
      9539      3151  TIP3      H1             27.1763250248       11.2121606768      -13.7016271492  SOLV      3140            0.0000000000
      9540      3151  TIP3      H2             27.8909950248       11.0278706768      -15.0234271492  SOLV      3140            0.0000000000
      9541      3152  TIP3      OH2            26.9250550248        9.5890406768       -2.0315171492  SOLV      3141            0.0000000000
      9542      3152  TIP3      H1             26.3066650248       10.2637006768       -1.7510471492  SOLV      3141            0.0000000000
      9543      3152  TIP3      H2             27.2691750248        9.9104306768       -2.8648971492  SOLV      3141            0.0000000000
      9544      3153  TIP3      OH2            28.7071650248        9.9395106768      -16.1251571492  SOLV      3142            0.0000000000
      9545      3153  TIP3      H1             28.5266650248        9.7846306768      -17.0523271492  SOLV      3142            0.0000000000
      9546      3153  TIP3      H2             29.6572150248       10.0473806768      -16.0803671492  SOLV      3142            0.0000000000
      9547      3154  TIP3      OH2            31.9448750248       12.0605706768        1.2459628508  SOLV      3143            0.0000000000
      9548      3154  TIP3      H1             32.8979950248       12.1444806768        1.2185628508  SOLV      3143            0.0000000000
      9549      3154  TIP3      H2             31.7843350248       11.3487506768        1.8654528508  SOLV      3143            0.0000000000
      9550      3155  TIP3      OH2            27.2644250248        6.9441206768       -0.9492071492  SOLV      3144            0.0000000000
      9551      3155  TIP3      H1             27.4145150248        6.2152506768       -1.5512371492  SOLV      3144            0.0000000000
      9552      3155  TIP3      H2             27.2666650248        7.7212906768       -1.5079871492  SOLV      3144            0.0000000000
      9553      3156  TIP3      OH2            27.6769950248        5.3137006768       -3.4564671492  SOLV      3145            0.0000000000
      9554      3156  TIP3      H1             28.2127450248        5.7653706768       -4.1085371492  SOLV      3145            0.0000000000
      9555      3156  TIP3      H2             26.8249550248        5.2056806768       -3.8790571492  SOLV      3145            0.0000000000
      9556      3157  TIP3      OH2            29.2588350248       10.7533206768       -3.2169471492  SOLV      3146            0.0000000000
      9557      3157  TIP3      H1             30.0093150248       10.5970706768       -3.7901671492  SOLV      3146            0.0000000000
      9558      3157  TIP3      H2             28.9196650248       11.6049806768       -3.4923971492  SOLV      3146            0.0000000000
      9559      3158  TIP3      OH2            33.6744550248        8.5685006768        1.8115828508  SOLV      3147            0.0000000000
      9560      3158  TIP3      H1             33.8665850248        7.6374406768        1.7000328508  SOLV      3147            0.0000000000
      9561      3158  TIP3      H2             34.5320850248        8.9934506768        1.8011228508  SOLV      3147            0.0000000000
      9562      3159  TIP3      OH2            34.9911750248       11.3570206768       -0.1111471492  SOLV      3148            0.0000000000
      9563      3159  TIP3      H1             34.7096750248       12.0664806768       -0.6887671492  SOLV      3148            0.0000000000
      9564      3159  TIP3      H2             35.9336050248       11.2843206768       -0.2620271492  SOLV      3148            0.0000000000
      9565      3160  TIP3      OH2            25.7430550248        8.1424706768        0.9623528508  SOLV      3149            0.0000000000
      9566      3160  TIP3      H1             24.9759550248        7.6099506768        0.7521128508  SOLV      3149            0.0000000000
      9567      3160  TIP3      H2             26.4219550248        7.8325106768        0.3629828508  SOLV      3149            0.0000000000
      9568      3161  TIP3      OH2            28.4825450248        2.7702706768       -3.0251071492  SOLV      3150            0.0000000000
      9569      3161  TIP3      H1             28.3845050248        3.7165906768       -3.1304871492  SOLV      3150            0.0000000000
      9570      3161  TIP3      H2             27.7401650248        2.3976506768       -3.5007571492  SOLV      3150            0.0000000000
      9571      3162  TIP3      OH2            29.7465950248        7.0918106768        0.5387328508  SOLV      3151            0.0000000000
      9572      3162  TIP3      H1             29.5111350248        6.8724806768        1.4402228508  SOLV      3151            0.0000000000
      9573      3162  TIP3      H2             28.9632850248        6.8849306768        0.0289828508  SOLV      3151            0.0000000000
      9574      3163  TIP3      OH2            32.4622550248        6.2191606768       -0.3859171492  SOLV      3152            0.0000000000
      9575      3163  TIP3      H1             31.5147950248        6.2511306768       -0.2535871492  SOLV      3152            0.0000000000
      9576      3163  TIP3      H2             32.7749250248        5.5938706768        0.2679028508  SOLV      3152            0.0000000000
      9577      3164  TIP3      OH2            34.0964050248        4.8532706768        1.6192728508  SOLV      3153            0.0000000000
      9578      3164  TIP3      H1             33.9995850248        3.9010006768        1.6134628508  SOLV      3153            0.0000000000
      9579      3164  TIP3      H2             33.7747150248        5.1219506768        2.4798228508  SOLV      3153            0.0000000000
      9580      3165  TIP3      OH2            23.9233350248        6.0628506768        0.6668228508  SOLV      3154            0.0000000000
      9581      3165  TIP3      H1             24.1350750248        5.3564606768        0.0565728508  SOLV      3154            0.0000000000
      9582      3165  TIP3      H2             23.8120850248        5.6254506768        1.5109428508  SOLV      3154            0.0000000000
      9583      3166  TIP3      OH2            28.7043550248        2.0640106768       -0.3538271492  SOLV      3155            0.0000000000
      9584      3166  TIP3      H1             29.4161950248        1.4242306768       -0.3679171492  SOLV      3155            0.0000000000
      9585      3166  TIP3      H2             28.6033950248        2.3308406768       -1.2675171492  SOLV      3155            0.0000000000
      9586      3167  TIP3      OH2            29.0581050248        3.7468506768        1.6998028508  SOLV      3156            0.0000000000
      9587      3167  TIP3      H1             28.9263250248        3.2712306768        0.8796528508  SOLV      3156            0.0000000000
      9588      3167  TIP3      H2             28.4588450248        4.4912106768        1.6445128508  SOLV      3156            0.0000000000
      9589      3168  TIP3      OH2            22.1728250248       15.2662606768      -15.6409871492  SOLV      3157            0.0000000000
      9590      3168  TIP3      H1             23.0867450248       15.3451506768      -15.3675971492  SOLV      3157            0.0000000000
      9591      3168  TIP3      H2             22.1801350248       14.5792206768      -16.3074271492  SOLV      3157            0.0000000000
      9592      3169  TIP3      OH2            20.8218850248       20.6591106768      -10.5635971492  SOLV      3158            0.0000000000
      9593      3169  TIP3      H1             20.1745950248       20.1972806768      -11.0964771492  SOLV      3158            0.0000000000
      9594      3169  TIP3      H2             21.1763450248       19.9874406768       -9.9809771492  SOLV      3158            0.0000000000
      9595      3170  TIP3      OH2            21.6918050248       18.7398106768       -8.7589771492  SOLV      3159            0.0000000000
      9596      3170  TIP3      H1             21.3574850248       17.8595406768       -8.5869571492  SOLV      3159            0.0000000000
      9597      3170  TIP3      H2             21.9140450248       19.0853106768       -7.8944171492  SOLV      3159            0.0000000000
      9598      3171  TIP3      OH2            21.7717550248       11.8153506768       -6.3074871492  SOLV      3160            0.0000000000
      9599      3171  TIP3      H1             21.9560450248       11.7335206768       -7.2431971492  SOLV      3160            0.0000000000
      9600      3171  TIP3      H2             22.6210450248       11.6910506768       -5.8838471492  SOLV      3160            0.0000000000
      9601      3172  TIP3      OH2            21.3692350248        7.0858506768       -0.1666071492  SOLV      3161            0.0000000000
      9602      3172  TIP3      H1             22.2887250248        6.9636806768        0.0697028508  SOLV      3161            0.0000000000
      9603      3172  TIP3      H2             20.9196850248        6.3358206768        0.2227428508  SOLV      3161            0.0000000000
      9604      3173  TIP3      OH2            22.5904850248        5.3980106768       -7.2753171492  SOLV      3162            0.0000000000
      9605      3173  TIP3      H1             23.0356450248        4.6062606768       -6.9733471492  SOLV      3162            0.0000000000
      9606      3173  TIP3      H2             23.0567850248        6.1145306768       -6.8447571492  SOLV      3162            0.0000000000
      9607      3174  TIP3      OH2            20.8945150248        8.3973106768       -6.2062971492  SOLV      3163            0.0000000000
      9608      3174  TIP3      H1             21.3864950248        8.1763606768       -6.9970971492  SOLV      3163            0.0000000000
      9609      3174  TIP3      H2             21.2566050248        9.2376506768       -5.9253471492  SOLV      3163            0.0000000000
      9610      3175  TIP3      OH2            21.2081650248        4.6552206768      -12.1520571492  SOLV      3164            0.0000000000
      9611      3175  TIP3      H1             20.2830050248        4.8638806768      -12.2815071492  SOLV      3164            0.0000000000
      9612      3175  TIP3      H2             21.6621550248        5.1393006768      -12.8418271492  SOLV      3164            0.0000000000
      9613      3176  TIP3      OH2            21.1717050248        3.3931206768       -3.8078071492  SOLV      3165            0.0000000000
      9614      3176  TIP3      H1             20.5067550248        3.1471506768       -3.1647171492  SOLV      3165            0.0000000000
      9615      3176  TIP3      H2             20.7288350248        4.0151606768       -4.3850071492  SOLV      3165            0.0000000000
      9616      3177  TIP3      OH2            23.3636350248       16.5685306768        0.3367728508  SOLV      3166            0.0000000000
      9617      3177  TIP3      H1             22.5428850248       16.7431806768       -0.1237571492  SOLV      3166            0.0000000000
      9618      3177  TIP3      H2             23.1114150248       16.4950006768        1.2572128508  SOLV      3166            0.0000000000
      9619      3178  TIP3      OH2            26.3179250248       17.5426506768       -3.4048271492  SOLV      3167            0.0000000000
      9620      3178  TIP3      H1             25.8930350248       18.3525006768       -3.6873671492  SOLV      3167            0.0000000000
      9621      3178  TIP3      H2             27.2222050248       17.6280606768       -3.7068471492  SOLV      3167            0.0000000000
      9622      3179  TIP3      OH2            30.6290650248       18.9416506768       -0.4454571492  SOLV      3168            0.0000000000
      9623      3179  TIP3      H1             30.8138150248       18.6082606768        0.4325728508  SOLV      3168            0.0000000000
      9624      3179  TIP3      H2             31.4755150248       19.2515106768       -0.7675371492  SOLV      3168            0.0000000000
      9625      3180  TIP3      OH2            23.7195950248       20.7990406768       -3.3572971492  SOLV      3169            0.0000000000
      9626      3180  TIP3      H1             22.9992350248       21.2391406768       -3.8085271492  SOLV      3169            0.0000000000
      9627      3180  TIP3      H2             23.3539950248       20.5485106768       -2.5088971492  SOLV      3169            0.0000000000
      9628      3181  TIP3      OH2            26.1868550248       20.3994306768       -4.3275771492  SOLV      3170            0.0000000000
      9629      3181  TIP3      H1             25.3220750248       20.4712806768       -3.9235671492  SOLV      3170            0.0000000000
      9630      3181  TIP3      H2             26.1317550248       20.9461606768       -5.1113271492  SOLV      3170            0.0000000000
      9631      3182  TIP3      OH2            30.8974150248       20.2873206768       -5.1519771492  SOLV      3171            0.0000000000
      9632      3182  TIP3      H1             30.4408150248       20.8162906768       -5.8061371492  SOLV      3171            0.0000000000
      9633      3182  TIP3      H2             31.0602150248       20.8904606768       -4.4267471492  SOLV      3171            0.0000000000
      9634      3183  TIP3      OH2            23.1344050248       19.4222906768       -6.4471171492  SOLV      3172            0.0000000000
      9635      3183  TIP3      H1             23.1160050248       18.9968006768       -5.5898871492  SOLV      3172            0.0000000000
      9636      3183  TIP3      H2             23.9391950248       19.1037906768       -6.8558971492  SOLV      3172            0.0000000000
      9637      3184  TIP3      OH2            25.2757150248       18.1321606768       -7.7921271492  SOLV      3173            0.0000000000
      9638      3184  TIP3      H1             25.0567850248       17.2159006768       -7.6225271492  SOLV      3173            0.0000000000
      9639      3184  TIP3      H2             26.0999350248       18.2722006768       -7.3259871492  SOLV      3173            0.0000000000
      9640      3185  TIP3      OH2            27.8129650248       18.6020906768       -6.9433271492  SOLV      3174            0.0000000000
      9641      3185  TIP3      H1             28.0255350248       17.7139906768       -7.2302371492  SOLV      3174            0.0000000000
      9642      3185  TIP3      H2             27.8774750248       18.5678606768       -5.9889271492  SOLV      3174            0.0000000000
      9643      3186  TIP3      OH2            31.3213350248        4.2661506768       -7.7989971492  SOLV      3175            0.0000000000
      9644      3186  TIP3      H1             30.6470150248        3.6367106768       -7.5434171492  SOLV      3175            0.0000000000
      9645      3186  TIP3      H2             31.8852550248        3.7820406768       -8.4022071492  SOLV      3175            0.0000000000
      9646      3187  TIP3      OH2            23.6480850248        2.9001806768       -9.9770071492  SOLV      3176            0.0000000000
      9647      3187  TIP3      H1             22.8710650248        2.6656706768      -10.4844171492  SOLV      3176            0.0000000000
      9648      3187  TIP3      H2             24.1784450248        2.1033906768       -9.9682071492  SOLV      3176            0.0000000000
      9649      3188  TIP3      OH2            22.4844250248        2.6979906768      -14.1733971492  SOLV      3177            0.0000000000
      9650      3188  TIP3      H1             22.9234950248        3.3090406768      -14.7650471492  SOLV      3177            0.0000000000
      9651      3188  TIP3      H2             21.8506650248        3.2364006768      -13.6993971492  SOLV      3177            0.0000000000
      9652      3189  TIP3      OH2            28.2273450248        2.8268906768      -10.1636971492  SOLV      3178            0.0000000000
      9653      3189  TIP3      H1             29.1016850248        3.2153206768      -10.1932671492  SOLV      3178            0.0000000000
      9654      3189  TIP3      H2             28.0914250248        2.6116706768       -9.2409771492  SOLV      3178            0.0000000000
      9655      3190  TIP3      OH2            33.7841850248        2.8568706768       -8.5145271492  SOLV      3179            0.0000000000
      9656      3190  TIP3      H1             33.8603450248        2.9520306768       -9.4639271492  SOLV      3179            0.0000000000
      9657      3190  TIP3      H2             33.5091050248        1.9491606768       -8.3856171492  SOLV      3179            0.0000000000
      9658      3191  TIP3      OH2            35.1374450248        2.8826506768      -12.8220271492  SOLV      3180            0.0000000000
      9659      3191  TIP3      H1             34.4345550248        3.4975706768      -13.0318871492  SOLV      3180            0.0000000000
      9660      3191  TIP3      H2             34.6925850248        2.0453206768      -12.6909371492  SOLV      3180            0.0000000000
      9661      3192  TIP3      OH2            22.3853750248       18.6462106768      -13.2758871492  SOLV      3181            0.0000000000
      9662      3192  TIP3      H1             21.7003650248       18.6081006768      -13.9433771492  SOLV      3181            0.0000000000
      9663      3192  TIP3      H2             22.3890950248       19.5589706768      -12.9876771492  SOLV      3181            0.0000000000
      9664      3193  TIP3      OH2            24.3453350248        4.6141406768      -15.7309871492  SOLV      3182            0.0000000000
      9665      3193  TIP3      H1             24.8366750248        3.9843806768      -16.2584371492  SOLV      3182            0.0000000000
      9666      3193  TIP3      H2             24.9689650248        4.9100806768      -15.0678671492  SOLV      3182            0.0000000000
      9667      3194  TIP3      OH2            29.3713450248        4.9072906768      -13.2739371492  SOLV      3183            0.0000000000
      9668      3194  TIP3      H1             29.5494750248        4.2606106768      -12.5910771492  SOLV      3183            0.0000000000
      9669      3194  TIP3      H2             29.3179650248        5.7410606768      -12.8068271492  SOLV      3183            0.0000000000
      9670      3195  TIP3      OH2            23.6058850248        3.4143706768       -0.4593871492  SOLV      3184            0.0000000000
      9671      3195  TIP3      H1             23.2397050248        2.6486306768       -0.0169171492  SOLV      3184            0.0000000000
      9672      3195  TIP3      H2             24.5187350248        3.4433906768       -0.1728771492  SOLV      3184            0.0000000000
      9673      3196  TIP3      OH2            25.5789650248        2.7648106768        1.0763228508  SOLV      3185            0.0000000000
      9674      3196  TIP3      H1             26.4773250248        2.4908306768        0.8916628508  SOLV      3185            0.0000000000
      9675      3196  TIP3      H2             25.1922750248        2.0224106768        1.5405828508  SOLV      3185            0.0000000000
      9676      3197  TIP3      OH2            24.2034950248       19.5662906768      -16.2506771492  SOLV      3186            0.0000000000
      9677      3197  TIP3      H1             23.9359550248       19.8525806768      -15.3773671492  SOLV      3186            0.0000000000
      9678      3197  TIP3      H2             24.9747550248       19.0202106768      -16.0984271492  SOLV      3186            0.0000000000
      9679      3198  TIP3      OH2            34.0001950248        2.0973406768        1.2586028508  SOLV      3187            0.0000000000
      9680      3198  TIP3      H1             34.0769150248        1.6714106768        2.1123728508  SOLV      3187            0.0000000000
      9681      3198  TIP3      H2             34.8938550248        2.1108106768        0.9159528508  SOLV      3187            0.0000000000
      9682      3199  TIP3      OH2           -17.8561049752       24.2011506768       -5.3327171492  SOLV      3188            0.0000000000
      9683      3199  TIP3      H1            -17.8068849752       24.8112706768       -4.5968071492  SOLV      3188            0.0000000000
      9684      3199  TIP3      H2            -17.4305949752       24.6622406768       -6.0556071492  SOLV      3188            0.0000000000
      9685      3200  TIP3      OH2           -23.3783849752       26.9938606768       -5.8658571492  SOLV      3189            0.0000000000
      9686      3200  TIP3      H1            -23.2357949752       26.0475606768       -5.8456971492  SOLV      3189            0.0000000000
      9687      3200  TIP3      H2            -23.4844849752       27.2008406768       -6.7943671492  SOLV      3189            0.0000000000
      9688      3201  TIP3      OH2           -22.5012849752       25.2260606768      -10.1925471492  SOLV      3190            0.0000000000
      9689      3201  TIP3      H1            -21.8548549752       24.8973806768       -9.5677871492  SOLV      3190            0.0000000000
      9690      3201  TIP3      H2            -21.9913449752       25.7439606768      -10.8154071492  SOLV      3190            0.0000000000
      9691      3202  TIP3      OH2           -17.4646449752       25.6790706768       -3.0967371492  SOLV      3191            0.0000000000
      9692      3202  TIP3      H1            -18.1531849752       26.3371406768       -3.1920771492  SOLV      3191            0.0000000000
      9693      3202  TIP3      H2            -17.4491849752       25.4818606768       -2.1601971492  SOLV      3191            0.0000000000
      9694      3203  TIP3      OH2           -20.7374449752       24.5169906768       -8.2119571492  SOLV      3192            0.0000000000
      9695      3203  TIP3      H1            -20.9526449752       23.7513306768       -7.6793571492  SOLV      3192            0.0000000000
      9696      3203  TIP3      H2            -20.0817049752       24.9894506768       -7.6991071492  SOLV      3192            0.0000000000
      9697      3204  TIP3      OH2           -20.3900349752       23.2321206768       -4.5326071492  SOLV      3193            0.0000000000
      9698      3204  TIP3      H1            -21.1261149752       23.8428306768       -4.5704771492  SOLV      3193            0.0000000000
      9699      3204  TIP3      H2            -19.7066349752       23.6470206768       -5.0589671492  SOLV      3193            0.0000000000
      9700      3205  TIP3      OH2           -17.7510149752       29.5342606768       -4.2727871492  SOLV      3194            0.0000000000
      9701      3205  TIP3      H1            -18.4036049752       30.2288206768       -4.1836971492  SOLV      3194            0.0000000000
      9702      3205  TIP3      H2            -17.2859849752       29.7443506768       -5.0826271492  SOLV      3194            0.0000000000
      9703      3206  TIP3      OH2           -21.7146349752       30.3657406768      -11.6146371492  SOLV      3195            0.0000000000
      9704      3206  TIP3      H1            -22.4465349752       30.5941106768      -11.0415771492  SOLV      3195            0.0000000000
      9705      3206  TIP3      H2            -21.2674149752       29.6520106768      -11.1598871492  SOLV      3195            0.0000000000
      9706      3207  TIP3      OH2           -21.8172849752       28.5400006768       -2.5469371492  SOLV      3196            0.0000000000
      9707      3207  TIP3      H1            -21.7373749752       29.3034406768       -1.9750871492  SOLV      3196            0.0000000000
      9708      3207  TIP3      H2            -22.4185149752       28.8192406768       -3.2374271492  SOLV      3196            0.0000000000
      9709      3208  TIP3      OH2           -22.8436849752       29.5280306768      -13.9295171492  SOLV      3197            0.0000000000
      9710      3208  TIP3      H1            -22.2641349752       29.6780606768      -13.1826271492  SOLV      3197            0.0000000000
      9711      3208  TIP3      H2            -22.4296849752       29.9987706768      -14.6528771492  SOLV      3197            0.0000000000
      9712      3209  TIP3      OH2           -19.1448449752       21.2780706768      -14.1165471492  SOLV      3198            0.0000000000
      9713      3209  TIP3      H1            -20.0447749752       21.4169706768      -13.8214871492  SOLV      3198            0.0000000000
      9714      3209  TIP3      H2            -18.8930049752       22.1095306768      -14.5183771492  SOLV      3198            0.0000000000
      9715      3210  TIP3      OH2           -19.8858849752       27.3683106768       -0.2812671492  SOLV      3199            0.0000000000
      9716      3210  TIP3      H1            -20.2932049752       27.8488706768       -1.0019371492  SOLV      3199            0.0000000000
      9717      3210  TIP3      H2            -19.8453149752       26.4629106768       -0.5891871492  SOLV      3199            0.0000000000
      9718      3211  TIP3      OH2           -25.4553549752       21.9443406768       -2.9144771492  SOLV      3200            0.0000000000
      9719      3211  TIP3      H1            -25.0350449752       21.5290506768       -2.1614171492  SOLV      3200            0.0000000000
      9720      3211  TIP3      H2            -26.3883949752       21.7656706768       -2.7972771492  SOLV      3200            0.0000000000
      9721      3212  TIP3      OH2           -22.1288649752       25.6998606768       -2.0610271492  SOLV      3201            0.0000000000
      9722      3212  TIP3      H1            -22.6429149752       25.5740806768       -1.2634271492  SOLV      3201            0.0000000000
      9723      3212  TIP3      H2            -22.2843949752       26.6121706768       -2.3054071492  SOLV      3201            0.0000000000
      9724      3213  TIP3      OH2           -24.4946649752       27.8247906768      -11.4650771492  SOLV      3202            0.0000000000
      9725      3213  TIP3      H1            -24.9036349752       28.6396506768      -11.7565971492  SOLV      3202            0.0000000000
      9726      3213  TIP3      H2            -23.7740449752       27.6848006768      -12.0793671492  SOLV      3202            0.0000000000
      9727      3214  TIP3      OH2           -23.4898949752       27.2708306768       -8.6511071492  SOLV      3203            0.0000000000
      9728      3214  TIP3      H1            -23.6854449752       27.8765106768       -9.3660471492  SOLV      3203            0.0000000000
      9729      3214  TIP3      H2            -23.3086349752       26.4373506768       -9.0854771492  SOLV      3203            0.0000000000
      9730      3215  TIP3      OH2           -24.2259749752       28.9089606768       -3.9798671492  SOLV      3204            0.0000000000
      9731      3215  TIP3      H1            -23.9024949752       28.2779306768       -4.6228171492  SOLV      3204            0.0000000000
      9732      3215  TIP3      H2            -24.6660449752       28.3741806768       -3.3191271492  SOLV      3204            0.0000000000
      9733      3216  TIP3      OH2           -23.0434949752       24.0711406768       -5.9315671492  SOLV      3205            0.0000000000
      9734      3216  TIP3      H1            -23.7203349752       24.2024506768       -5.2675971492  SOLV      3205            0.0000000000
      9735      3216  TIP3      H2            -23.5290049752       23.9160906768       -6.7417971492  SOLV      3205            0.0000000000
      9736      3217  TIP3      OH2           -19.8079749752       31.3580106768       -4.4233471492  SOLV      3206            0.0000000000
      9737      3217  TIP3      H1            -19.1660949752       31.8146406768       -4.9671271492  SOLV      3206            0.0000000000
      9738      3217  TIP3      H2            -20.6382849752       31.4712506768       -4.8859371492  SOLV      3206            0.0000000000
      9739      3218  TIP3      OH2           -23.0601849752       25.0391806768      -15.0108471492  SOLV      3207            0.0000000000
      9740      3218  TIP3      H1            -23.9987649752       25.1507406768      -15.1619671492  SOLV      3207            0.0000000000
      9741      3218  TIP3      H2            -22.7629749752       25.8958706768      -14.7042771492  SOLV      3207            0.0000000000
      9742      3219  TIP3      OH2           -22.3418349752       26.9064506768      -13.3501071492  SOLV      3208            0.0000000000
      9743      3219  TIP3      H1            -21.4499349752       26.7689506768      -13.0309871492  SOLV      3208            0.0000000000
      9744      3219  TIP3      H2            -22.2854749752       27.6970606768      -13.8867571492  SOLV      3208            0.0000000000
      9745      3220  TIP3      OH2           -17.4569649752       27.1158606768      -13.6554371492  SOLV      3209            0.0000000000
      9746      3220  TIP3      H1            -18.0113349752       26.7196606768      -14.3276871492  SOLV      3209            0.0000000000
      9747      3220  TIP3      H2            -17.3566049752       28.0263806768      -13.9331071492  SOLV      3209            0.0000000000
      9748      3221  TIP3      OH2           -22.0014049752       30.7098506768       -6.1690371492  SOLV      3210            0.0000000000
      9749      3221  TIP3      H1            -22.9297149752       30.4780406768       -6.1961071492  SOLV      3210            0.0000000000
      9750      3221  TIP3      H2            -21.5502949752       29.9328306768       -6.4991571492  SOLV      3210            0.0000000000
      9751      3222  TIP3      OH2           -20.9033049752       32.5506806768      -13.1433771492  SOLV      3211            0.0000000000
      9752      3222  TIP3      H1            -21.1805449752       31.8226106768      -12.5872671492  SOLV      3211            0.0000000000
      9753      3222  TIP3      H2            -19.9760049752       32.6698806768      -12.9381171492  SOLV      3211            0.0000000000
      9754      3223  TIP3      OH2           -24.4567749752       24.4751806768       -3.6774671492  SOLV      3212            0.0000000000
      9755      3223  TIP3      H1            -23.7579849752       24.5490506768       -3.0274971492  SOLV      3212            0.0000000000
      9756      3223  TIP3      H2            -24.8376349752       23.6106806768       -3.5231771492  SOLV      3212            0.0000000000
      9757      3224  TIP3      OH2           -23.6722849752       24.1273506768      -12.5802371492  SOLV      3213            0.0000000000
      9758      3224  TIP3      H1            -23.4524549752       24.5988906768      -13.3836971492  SOLV      3213            0.0000000000
      9759      3224  TIP3      H2            -23.1138849752       24.5216106768      -11.9101771492  SOLV      3213            0.0000000000
      9760      3225  TIP3      OH2           -25.5886249752       22.9365306768      -10.8072871492  SOLV      3214            0.0000000000
      9761      3225  TIP3      H1            -25.9352749752       23.5535906768      -10.1628571492  SOLV      3214            0.0000000000
      9762      3225  TIP3      H2            -24.9299349752       23.4371006768      -11.2887371492  SOLV      3214            0.0000000000
      9763      3226  TIP3      OH2           -19.7320749752       24.7485306768       -1.7257671492  SOLV      3215            0.0000000000
      9764      3226  TIP3      H1            -20.6484949752       25.0107006768       -1.8133971492  SOLV      3215            0.0000000000
      9765      3226  TIP3      H2            -19.3965749752       24.7454306768       -2.6222371492  SOLV      3215            0.0000000000
      9766      3227  TIP3      OH2           -21.1299749752       28.4986306768       -7.6300371492  SOLV      3216            0.0000000000
      9767      3227  TIP3      H1            -21.9275349752       28.0836506768       -7.9585371492  SOLV      3216            0.0000000000
      9768      3227  TIP3      H2            -20.6848649752       27.8080006768       -7.1389871492  SOLV      3216            0.0000000000
      9769      3228  TIP3      OH2           -22.0324949752       32.1216806768       -2.0098671492  SOLV      3217            0.0000000000
      9770      3228  TIP3      H1            -21.2870149752       32.7100506768       -2.1294671492  SOLV      3217            0.0000000000
      9771      3228  TIP3      H2            -22.7898149752       32.7036506768       -1.9465571492  SOLV      3217            0.0000000000
      9772      3229  TIP3      OH2           -22.8935449752       27.4245006768        1.8115828508  SOLV      3218            0.0000000000
      9773      3229  TIP3      H1            -22.7014149752       26.4934406768        1.7000328508  SOLV      3218            0.0000000000
      9774      3229  TIP3      H2            -22.0359149752       27.8494506768        1.8011228508  SOLV      3218            0.0000000000
      9775      3230  TIP3      OH2           -21.5768249752       30.2130206768       -0.1111471492  SOLV      3219            0.0000000000
      9776      3230  TIP3      H1            -21.8583249752       30.9224806768       -0.6887671492  SOLV      3219            0.0000000000
      9777      3230  TIP3      H2            -20.6343949752       30.1403206768       -0.2620271492  SOLV      3219            0.0000000000
      9778      3231  TIP3      OH2           -24.1057449752       25.0751606768       -0.3859171492  SOLV      3220            0.0000000000
      9779      3231  TIP3      H1            -25.0532049752       25.1071306768       -0.2535871492  SOLV      3220            0.0000000000
      9780      3231  TIP3      H2            -23.7930749752       24.4498706768        0.2679028508  SOLV      3220            0.0000000000
      9781      3232  TIP3      OH2           -22.4715949752       23.7092706768        1.6192728508  SOLV      3221            0.0000000000
      9782      3232  TIP3      H1            -22.5684149752       22.7570006768        1.6134628508  SOLV      3221            0.0000000000
      9783      3232  TIP3      H2            -22.7932849752       23.9779506768        2.4798228508  SOLV      3221            0.0000000000
      9784      3233  TIP3      OH2           -18.0127249752       32.0187406768      -12.7043071492  SOLV      3222            0.0000000000
      9785      3233  TIP3      H1            -17.1625849752       32.4398306768      -12.5771471492  SOLV      3222            0.0000000000
      9786      3233  TIP3      H2            -18.0072149752       31.2787506768      -12.0971671492  SOLV      3222            0.0000000000
      9787      3234  TIP3      OH2           -17.6181649752       30.0724806768      -10.8807371492  SOLV      3223            0.0000000000
      9788      3234  TIP3      H1            -18.3447049752       29.5927406768      -10.4829771492  SOLV      3223            0.0000000000
      9789      3234  TIP3      H2            -17.0368349752       30.2779506768      -10.1485771492  SOLV      3223            0.0000000000
      9790      3235  TIP3      OH2           -17.3498549752       29.9733306768      -14.4896071492  SOLV      3224            0.0000000000
      9791      3235  TIP3      H1            -17.8717449752       30.3297406768      -15.2085171492  SOLV      3224            0.0000000000
      9792      3235  TIP3      H2            -17.3829349752       30.6481106768      -13.8115171492  SOLV      3224            0.0000000000
      9793      3236  TIP3      OH2           -19.0009549752       27.2128906768      -15.9388971492  SOLV      3225            0.0000000000
      9794      3236  TIP3      H1            -18.9045149752       27.8795906768      -16.6189271492  SOLV      3225            0.0000000000
      9795      3236  TIP3      H2            -19.1409949752       26.3975206768      -16.4203471492  SOLV      3225            0.0000000000
      9796      3237  TIP3      OH2           -19.8314849752       28.5931306768      -10.3178671492  SOLV      3226            0.0000000000
      9797      3237  TIP3      H1            -19.9816049752       27.6479906768      -10.3380871492  SOLV      3226            0.0000000000
      9798      3237  TIP3      H2            -20.1850349752       28.8742706768       -9.4739571492  SOLV      3226            0.0000000000
      9799      3238  TIP3      OH2           -18.9751949752       30.5634606768       -0.6790371492  SOLV      3227            0.0000000000
      9800      3238  TIP3      H1            -18.3924649752       29.8286906768       -0.4873171492  SOLV      3227            0.0000000000
      9801      3238  TIP3      H2            -18.4112649752       31.3354906768       -0.6324571492  SOLV      3227            0.0000000000
      9802      3239  TIP3      OH2           -17.4784849752       28.4660406768        0.0055028508  SOLV      3228            0.0000000000
      9803      3239  TIP3      H1            -18.3418149752       28.0872506768       -0.1600271492  SOLV      3228            0.0000000000
      9804      3239  TIP3      H2            -16.8741149752       27.7275206768       -0.0689171492  SOLV      3228            0.0000000000
      9805      3240  TIP3      OH2           -19.7535749752       24.6208706768      -16.8213471492  SOLV      3229            0.0000000000
      9806      3240  TIP3      H1            -19.1429949752       24.2495506768      -16.1845271492  SOLV      3229            0.0000000000
      9807      3240  TIP3      H2            -20.5904249752       24.1995606768      -16.6253471492  SOLV      3229            0.0000000000
      9808      3241  TIP3      OH2           -20.1210049752       26.1757106768      -11.8553571492  SOLV      3230            0.0000000000
      9809      3241  TIP3      H1            -19.8412949752       25.2687506768      -11.7311871492  SOLV      3230            0.0000000000
      9810      3241  TIP3      H2            -19.3618349752       26.6098606768      -12.2444371492  SOLV      3230            0.0000000000
      9811      3242  TIP3      OH2           -19.5091749752       26.7574506768       -6.4194671492  SOLV      3231            0.0000000000
      9812      3242  TIP3      H1            -18.5763749752       26.9694406768       -6.4538671492  SOLV      3231            0.0000000000
      9813      3242  TIP3      H2            -19.7444249752       26.8586606768       -5.4971671492  SOLV      3231            0.0000000000
      9814      3243  TIP3      OH2           -19.4799849752       27.4939806768       -3.6435271492  SOLV      3232            0.0000000000
      9815      3243  TIP3      H1            -20.3228549752       27.7620206768       -3.2775471492  SOLV      3232            0.0000000000
      9816      3243  TIP3      H2            -19.0375549752       28.3161706768       -3.8544171492  SOLV      3232            0.0000000000
      9817      3244  TIP3      OH2           -17.1968249752       21.4740006768        1.7099728508  SOLV      3233            0.0000000000
      9818      3244  TIP3      H1            -16.8471249752       20.8203506768        1.1044428508  SOLV      3233            0.0000000000
      9819      3244  TIP3      H2            -17.0498749752       22.3114106768        1.2702328508  SOLV      3233            0.0000000000
      9820      3245  TIP3      OH2           -19.5075249752       23.4386406768      -11.8071571492  SOLV      3234            0.0000000000
      9821      3245  TIP3      H1            -19.3250249752       22.9897906768      -10.9816571492  SOLV      3234            0.0000000000
      9822      3245  TIP3      H2            -20.1072349752       22.8540806768      -12.2706971492  SOLV      3234            0.0000000000
      9823      3246  TIP3      OH2           -17.6771049752       23.5834606768        0.0591028508  SOLV      3235            0.0000000000
      9824      3246  TIP3      H1            -18.5945349752       23.8541706768        0.0234528508  SOLV      3235            0.0000000000
      9825      3246  TIP3      H2            -17.5541649752       23.0483006768       -0.7249271492  SOLV      3235            0.0000000000
      9826      3247  TIP3      OH2           -17.6409049752       23.5064506768      -15.2791271492  SOLV      3236            0.0000000000
      9827      3247  TIP3      H1            -17.2286449752       22.7850206768      -15.7543271492  SOLV      3236            0.0000000000
      9828      3247  TIP3      H2            -16.9592549752       24.1759106768      -15.2206971492  SOLV      3236            0.0000000000
      9829      3248  TIP3      OH2           -18.6765149752       21.6730906768       -2.1218171492  SOLV      3237            0.0000000000
      9830      3248  TIP3      H1            -19.4891649752       21.9981206768       -2.5093471492  SOLV      3237            0.0000000000
      9831      3248  TIP3      H2            -18.4436649752       20.9129406768       -2.6549071492  SOLV      3237            0.0000000000
      9832      3249  TIP3      OH2           -25.2466649752       23.1221506768       -7.7989971492  SOLV      3238            0.0000000000
      9833      3249  TIP3      H1            -25.9209849752       22.4927106768       -7.5434171492  SOLV      3238            0.0000000000
      9834      3249  TIP3      H2            -24.6827449752       22.6380406768       -8.4022071492  SOLV      3238            0.0000000000
      9835      3250  TIP3      OH2           -20.1039449752       21.2295506768       -7.6862871492  SOLV      3239            0.0000000000
      9836      3250  TIP3      H1            -19.5001849752       21.7770906768       -8.1881871492  SOLV      3239            0.0000000000
      9837      3250  TIP3      H2            -20.9737449752       21.5485906768       -7.9268771492  SOLV      3239            0.0000000000
      9838      3251  TIP3      OH2           -18.3769049752       22.3684206768       -9.3531971492  SOLV      3240            0.0000000000
      9839      3251  TIP3      H1            -17.7651549752       21.8539906768       -9.8798371492  SOLV      3240            0.0000000000
      9840      3251  TIP3      H2            -17.9945649752       23.2456306768       -9.3297571492  SOLV      3240            0.0000000000
      9841      3252  TIP3      OH2           -22.7838149752       21.7128706768       -8.5145271492  SOLV      3241            0.0000000000
      9842      3252  TIP3      H1            -22.7076549752       21.8080306768       -9.4639271492  SOLV      3241            0.0000000000
      9843      3252  TIP3      H2            -23.0588949752       20.8051606768       -8.3856171492  SOLV      3241            0.0000000000
      9844      3253  TIP3      OH2           -21.4305549752       21.7386506768      -12.8220271492  SOLV      3242            0.0000000000
      9845      3253  TIP3      H1            -22.1334449752       22.3535706768      -13.0318871492  SOLV      3242            0.0000000000
      9846      3253  TIP3      H2            -21.8754149752       20.9013206768      -12.6909371492  SOLV      3242            0.0000000000
      9847      3254  TIP3      OH2           -22.5678049752       20.9533406768        1.2586028508  SOLV      3243            0.0000000000
      9848      3254  TIP3      H1            -22.4910849752       20.5274106768        2.1123728508  SOLV      3243            0.0000000000
      9849      3254  TIP3      H2            -21.6741449752       20.9668106768        0.9159528508  SOLV      3243            0.0000000000
      9850      3255  TIP3      OH2            -4.9856549752       30.9124106768      -10.0182571492  SOLV      3244            0.0000000000
      9851      3255  TIP3      H1             -4.8965449752       31.8562306768      -10.1505471492  SOLV      3244            0.0000000000
      9852      3255  TIP3      H2             -5.6238949752       30.6370506768      -10.6763171492  SOLV      3244            0.0000000000
      9853      3256  TIP3      OH2            -6.0525249752       30.1674806768       -6.5994371492  SOLV      3245            0.0000000000
      9854      3256  TIP3      H1             -6.0907749752       29.5211106768       -5.8944771492  SOLV      3245            0.0000000000
      9855      3256  TIP3      H2             -6.3748749752       29.7009206768       -7.3705671492  SOLV      3245            0.0000000000
      9856      3257  TIP3      OH2           -13.6840249752       29.7816906768       -5.0064471492  SOLV      3246            0.0000000000
      9857      3257  TIP3      H1            -13.6428149752       29.1560206768       -4.2832071492  SOLV      3246            0.0000000000
      9858      3257  TIP3      H2            -12.9812549752       30.4055506768       -4.8244071492  SOLV      3246            0.0000000000
      9859      3258  TIP3      OH2           -16.1506649752       27.8918406768      -11.0786571492  SOLV      3247            0.0000000000
      9860      3258  TIP3      H1            -16.5983249752       28.7377106768      -11.0970071492  SOLV      3247            0.0000000000
      9861      3258  TIP3      H2            -16.7115449752       27.3122606768      -11.5941471492  SOLV      3247            0.0000000000
      9862      3259  TIP3      OH2           -15.4400549752       30.0538006768       -8.9528571492  SOLV      3248            0.0000000000
      9863      3259  TIP3      H1            -15.2267049752       29.2839606768       -8.4255571492  SOLV      3248            0.0000000000
      9864      3259  TIP3      H2            -14.7022949752       30.1434706768       -9.5560971492  SOLV      3248            0.0000000000
      9865      3260  TIP3      OH2            -7.6630849752       32.5996206768       -6.1933371492  SOLV      3249            0.0000000000
      9866      3260  TIP3      H1             -7.3592949752       31.9137606768       -6.7879271492  SOLV      3249            0.0000000000
      9867      3260  TIP3      H2             -6.9416849752       32.7184906768       -5.5755371492  SOLV      3249            0.0000000000
      9868      3261  TIP3      OH2             0.9998950248       24.2011506768       -5.3327171492  SOLV      3250            0.0000000000
      9869      3261  TIP3      H1              1.0491150248       24.8112706768       -4.5968071492  SOLV      3250            0.0000000000
      9870      3261  TIP3      H2              1.4254050248       24.6622406768       -6.0556071492  SOLV      3250            0.0000000000
      9871      3262  TIP3      OH2            -4.5223849752       26.9938606768       -5.8658571492  SOLV      3251            0.0000000000
      9872      3262  TIP3      H1             -4.3797949752       26.0475606768       -5.8456971492  SOLV      3251            0.0000000000
      9873      3262  TIP3      H2             -4.6284849752       27.2008406768       -6.7943671492  SOLV      3251            0.0000000000
      9874      3263  TIP3      OH2           -11.3675549752       25.0955006768       -8.5933771492  SOLV      3252            0.0000000000
      9875      3263  TIP3      H1            -11.3244449752       25.9553506768       -9.0117471492  SOLV      3252            0.0000000000
      9876      3263  TIP3      H2            -11.8251449752       24.5429706768       -9.2270571492  SOLV      3252            0.0000000000
      9877      3264  TIP3      OH2            -3.6452849752       25.2260606768      -10.1925471492  SOLV      3253            0.0000000000
      9878      3264  TIP3      H1             -2.9988549752       24.8973806768       -9.5677871492  SOLV      3253            0.0000000000
      9879      3264  TIP3      H2             -3.1353449752       25.7439606768      -10.8154071492  SOLV      3253            0.0000000000
      9880      3265  TIP3      OH2           -14.7474049752       27.4920806768       -7.8312371492  SOLV      3254            0.0000000000
      9881      3265  TIP3      H1            -14.0937449752       26.9422506768       -7.3992271492  SOLV      3254            0.0000000000
      9882      3265  TIP3      H2            -14.7234749752       27.2179806768       -8.7480371492  SOLV      3254            0.0000000000
      9883      3266  TIP3      OH2            -9.5909549752       29.0422106768       -8.6160871492  SOLV      3255            0.0000000000
      9884      3266  TIP3      H1             -8.9748549752       28.5157506768       -8.1066871492  SOLV      3255            0.0000000000
      9885      3266  TIP3      H2            -10.1770749752       28.4020806768       -9.0197271492  SOLV      3255            0.0000000000
      9886      3267  TIP3      OH2             1.3913550248       25.6790706768       -3.0967371492  SOLV      3256            0.0000000000
      9887      3267  TIP3      H1              0.7028150248       26.3371406768       -3.1920771492  SOLV      3256            0.0000000000
      9888      3267  TIP3      H2              1.4068150248       25.4818606768       -2.1601971492  SOLV      3256            0.0000000000
      9889      3268  TIP3      OH2           -12.5573649752       24.0133406768       -4.5192971492  SOLV      3257            0.0000000000
      9890      3268  TIP3      H1            -12.7761949752       24.5434006768       -5.2856971492  SOLV      3257            0.0000000000
      9891      3268  TIP3      H2            -13.2252749752       24.2398906768       -3.8721571492  SOLV      3257            0.0000000000
      9892      3269  TIP3      OH2            -9.9882249752       31.6889106768       -4.2319271492  SOLV      3258            0.0000000000
      9893      3269  TIP3      H1            -10.7283149752       32.2870606768       -4.1284071492  SOLV      3258            0.0000000000
      9894      3269  TIP3      H2             -9.2742749752       32.2428706768       -4.5475671492  SOLV      3258            0.0000000000
      9895      3270  TIP3      OH2            -1.8814449752       24.5169906768       -8.2119571492  SOLV      3259            0.0000000000
      9896      3270  TIP3      H1             -2.0966449752       23.7513306768       -7.6793571492  SOLV      3259            0.0000000000
      9897      3270  TIP3      H2             -1.2257049752       24.9894506768       -7.6991071492  SOLV      3259            0.0000000000
      9898      3271  TIP3      OH2           -12.9636349752       25.9055206768       -6.5670771492  SOLV      3260            0.0000000000
      9899      3271  TIP3      H1            -12.3500049752       26.5382806768       -6.1938371492  SOLV      3260            0.0000000000
      9900      3271  TIP3      H2            -12.4515649752       25.4330206768       -7.2233871492  SOLV      3260            0.0000000000
      9901      3272  TIP3      OH2            -1.5340349752       23.2321206768       -4.5326071492  SOLV      3261            0.0000000000
      9902      3272  TIP3      H1             -2.2701149752       23.8428306768       -4.5704771492  SOLV      3261            0.0000000000
      9903      3272  TIP3      H2             -0.8506349752       23.6470206768       -5.0589671492  SOLV      3261            0.0000000000
      9904      3273  TIP3      OH2            -8.5308949752       21.3188506768       -7.0668071492  SOLV      3262            0.0000000000
      9905      3273  TIP3      H1             -8.6484749752       20.3704506768       -7.1209771492  SOLV      3262            0.0000000000
      9906      3273  TIP3      H2             -9.3858849752       21.6514606768       -6.7936971492  SOLV      3262            0.0000000000
      9907      3274  TIP3      OH2            -6.2644049752       30.1564106768      -12.5662271492  SOLV      3263            0.0000000000
      9908      3274  TIP3      H1             -6.9758549752       30.6913806768      -12.9181771492  SOLV      3263            0.0000000000
      9909      3274  TIP3      H2             -5.5734449752       30.2116206768      -13.2263371492  SOLV      3263            0.0000000000
      9910      3275  TIP3      OH2            -6.2104849752       28.6138406768      -15.5277271492  SOLV      3264            0.0000000000
      9911      3275  TIP3      H1             -5.5094949752       28.6365306768      -14.8763271492  SOLV      3264            0.0000000000
      9912      3275  TIP3      H2             -5.9081949752       27.9858106768      -16.1837971492  SOLV      3264            0.0000000000
      9913      3276  TIP3      OH2             1.1049850248       29.5342606768       -4.2727871492  SOLV      3265            0.0000000000
      9914      3276  TIP3      H1              0.4523950248       30.2288206768       -4.1836971492  SOLV      3265            0.0000000000
      9915      3276  TIP3      H2              1.5700150248       29.7443506768       -5.0826271492  SOLV      3265            0.0000000000
      9916      3277  TIP3      OH2            -2.8586349752       30.3657406768      -11.6146371492  SOLV      3266            0.0000000000
      9917      3277  TIP3      H1             -3.5905349752       30.5941106768      -11.0415771492  SOLV      3266            0.0000000000
      9918      3277  TIP3      H2             -2.4114149752       29.6520106768      -11.1598871492  SOLV      3266            0.0000000000
      9919      3278  TIP3      OH2            -2.9612849752       28.5400006768       -2.5469371492  SOLV      3267            0.0000000000
      9920      3278  TIP3      H1             -2.8813749752       29.3034406768       -1.9750871492  SOLV      3267            0.0000000000
      9921      3278  TIP3      H2             -3.5625149752       28.8192406768       -3.2374271492  SOLV      3267            0.0000000000
      9922      3279  TIP3      OH2           -11.2132649752       30.9963606768       -9.7321371492  SOLV      3268            0.0000000000
      9923      3279  TIP3      H1            -11.5437449752       30.6257006768      -10.5504371492  SOLV      3268            0.0000000000
      9924      3279  TIP3      H2            -10.6248549752       30.3257606768       -9.3853071492  SOLV      3268            0.0000000000
      9925      3280  TIP3      OH2           -10.8467149752       29.7649206768       -6.0986371492  SOLV      3269            0.0000000000
      9926      3280  TIP3      H1            -10.2814649752       29.8863406768       -6.8615171492  SOLV      3269            0.0000000000
      9927      3280  TIP3      H2            -10.5278249752       30.4024206768       -5.4597871492  SOLV      3269            0.0000000000
      9928      3281  TIP3      OH2            -3.9876849752       29.5280306768      -13.9295171492  SOLV      3270            0.0000000000
      9929      3281  TIP3      H1             -3.4081349752       29.6780606768      -13.1826271492  SOLV      3270            0.0000000000
      9930      3281  TIP3      H2             -3.5736849752       29.9987706768      -14.6528771492  SOLV      3270            0.0000000000
      9931      3282  TIP3      OH2           -13.0466549752       30.3623006768       -2.1528771492  SOLV      3271            0.0000000000
      9932      3282  TIP3      H1            -12.9763349752       31.0129806768       -1.4543771492  SOLV      3271            0.0000000000
      9933      3282  TIP3      H2            -13.9374349752       30.4650506768       -2.4877871492  SOLV      3271            0.0000000000
      9934      3283  TIP3      OH2            -0.2888449752       21.2780706768      -14.1165471492  SOLV      3272            0.0000000000
      9935      3283  TIP3      H1             -1.1887749752       21.4169706768      -13.8214871492  SOLV      3272            0.0000000000
      9936      3283  TIP3      H2             -0.0370049752       22.1095306768      -14.5183771492  SOLV      3272            0.0000000000
      9937      3284  TIP3      OH2           -12.2229949752       30.0657906768      -12.1428571492  SOLV      3273            0.0000000000
      9938      3284  TIP3      H1            -12.5148649752       30.8339606768      -12.6337271492  SOLV      3273            0.0000000000
      9939      3284  TIP3      H2            -12.8974749752       29.4064106768      -12.3057171492  SOLV      3273            0.0000000000
      9940      3285  TIP3      OH2           -16.1299849752       32.4287106768       -3.3278771492  SOLV      3274            0.0000000000
      9941      3285  TIP3      H1            -16.6311449752       32.4006506768       -4.1429071492  SOLV      3274            0.0000000000
      9942      3285  TIP3      H2            -16.1246149752       31.5230306768       -3.0181471492  SOLV      3274            0.0000000000
      9943      3286  TIP3      OH2            -1.0298849752       27.3683106768       -0.2812671492  SOLV      3275            0.0000000000
      9944      3286  TIP3      H1             -1.4372049752       27.8488706768       -1.0019371492  SOLV      3275            0.0000000000
      9945      3286  TIP3      H2             -0.9893149752       26.4629106768       -0.5891871492  SOLV      3275            0.0000000000
      9946      3287  TIP3      OH2           -11.2621349752       22.2223006768       -6.2891771492  SOLV      3276            0.0000000000
      9947      3287  TIP3      H1            -12.1237649752       22.1351206768       -6.6968871492  SOLV      3276            0.0000000000
      9948      3287  TIP3      H2            -11.2845649752       23.0783106768       -5.8614171492  SOLV      3276            0.0000000000
      9949      3288  TIP3      OH2            -6.5993549752       21.9443406768       -2.9144771492  SOLV      3277            0.0000000000
      9950      3288  TIP3      H1             -6.1790449752       21.5290506768       -2.1614171492  SOLV      3277            0.0000000000
      9951      3288  TIP3      H2             -7.5323949752       21.7656706768       -2.7972771492  SOLV      3277            0.0000000000
      9952      3289  TIP3      OH2            -3.2728649752       25.6998606768       -2.0610271492  SOLV      3278            0.0000000000
      9953      3289  TIP3      H1             -3.7869149752       25.5740806768       -1.2634271492  SOLV      3278            0.0000000000
      9954      3289  TIP3      H2             -3.4283949752       26.6121706768       -2.3054071492  SOLV      3278            0.0000000000
      9955      3290  TIP3      OH2            -2.5103749752       30.5608606768      -16.2997271492  SOLV      3279            0.0000000000
      9956      3290  TIP3      H1             -2.4682949752       30.3382506768      -17.2297271492  SOLV      3279            0.0000000000
      9957      3290  TIP3      H2             -1.6611649752       30.9595706768      -16.1097371492  SOLV      3279            0.0000000000
      9958      3291  TIP3      OH2            -6.9376249752       24.4366806768      -15.6293971492  SOLV      3280            0.0000000000
      9959      3291  TIP3      H1             -7.1911449752       24.4558406768      -14.7065871492  SOLV      3280            0.0000000000
      9960      3291  TIP3      H2             -7.1944149752       23.5652206768      -15.9307771492  SOLV      3280            0.0000000000
      9961      3292  TIP3      OH2           -11.1711249752       27.1877506768       -5.1941571492  SOLV      3281            0.0000000000
      9962      3292  TIP3      H1            -11.8129149752       27.1474806768       -4.4851471492  SOLV      3281            0.0000000000
      9963      3292  TIP3      H2            -11.1339249752       28.1142206768       -5.4318571492  SOLV      3281            0.0000000000
      9964      3293  TIP3      OH2           -11.1742149752       27.4087606768      -10.2821571492  SOLV      3282            0.0000000000
      9965      3293  TIP3      H1            -12.0669249752       27.0683706768      -10.3407771492  SOLV      3282            0.0000000000
      9966      3293  TIP3      H2            -10.7235549752       27.0318506768      -11.0378371492  SOLV      3282            0.0000000000
      9967      3294  TIP3      OH2            -5.6386649752       27.8247906768      -11.4650771492  SOLV      3283            0.0000000000
      9968      3294  TIP3      H1             -6.0476349752       28.6396506768      -11.7565971492  SOLV      3283            0.0000000000
      9969      3294  TIP3      H2             -4.9180449752       27.6848006768      -12.0793671492  SOLV      3283            0.0000000000
      9970      3295  TIP3      OH2            -6.5365049752       28.0004306768        0.0229928508  SOLV      3284            0.0000000000
      9971      3295  TIP3      H1             -7.0991249752       27.2955906768        0.3437728508  SOLV      3284            0.0000000000
      9972      3295  TIP3      H2             -5.7101649752       27.8796206768        0.4907528508  SOLV      3284            0.0000000000
      9973      3296  TIP3      OH2            -4.6338949752       27.2708306768       -8.6511071492  SOLV      3285            0.0000000000
      9974      3296  TIP3      H1             -4.8294449752       27.8765106768       -9.3660471492  SOLV      3285            0.0000000000
      9975      3296  TIP3      H2             -4.4526349752       26.4373506768       -9.0854771492  SOLV      3285            0.0000000000
      9976      3297  TIP3      OH2           -13.4210749752       27.5081006768       -3.3269571492  SOLV      3286            0.0000000000
      9977      3297  TIP3      H1            -13.4591349752       27.9082606768       -2.4582471492  SOLV      3286            0.0000000000
      9978      3297  TIP3      H2            -13.9119649752       26.6913406768       -3.2366671492  SOLV      3286            0.0000000000
      9979      3298  TIP3      OH2           -10.0553349752       24.8823306768      -16.5283571492  SOLV      3287            0.0000000000
      9980      3298  TIP3      H1            -10.4862649752       24.4373406768      -15.7986171492  SOLV      3287            0.0000000000
      9981      3298  TIP3      H2            -10.7734649752       25.2539606768      -17.0406071492  SOLV      3287            0.0000000000
      9982      3299  TIP3      OH2           -16.8129949752       24.6242806768       -9.4764871492  SOLV      3288            0.0000000000
      9983      3299  TIP3      H1            -16.1822249752       24.5954906768       -8.7570971492  SOLV      3288            0.0000000000
      9984      3299  TIP3      H2            -16.3635649752       24.1991506768      -10.2068971492  SOLV      3288            0.0000000000
      9985      3300  TIP3      OH2           -15.5387849752       25.3704806768      -14.0524471492  SOLV      3289            0.0000000000
      9986      3300  TIP3      H1            -15.0646149752       25.9614706768      -14.6373571492  SOLV      3289            0.0000000000
      9987      3300  TIP3      H2            -16.2561449752       25.9007706768      -13.7054371492  SOLV      3289            0.0000000000
      9988      3301  TIP3      OH2            -5.3699749752       28.9089606768       -3.9798671492  SOLV      3290            0.0000000000
      9989      3301  TIP3      H1             -5.0464949752       28.2779306768       -4.6228171492  SOLV      3290            0.0000000000
      9990      3301  TIP3      H2             -5.8100449752       28.3741806768       -3.3191271492  SOLV      3290            0.0000000000
      9991      3302  TIP3      OH2            -8.5926849752       24.8365106768       -9.1957471492  SOLV      3291            0.0000000000
      9992      3302  TIP3      H1             -9.5035749752       24.8931906768       -8.9071471492  SOLV      3291            0.0000000000
      9993      3302  TIP3      H2             -8.0873949752       24.7760606768       -8.3850271492  SOLV      3291            0.0000000000
      9994      3303  TIP3      OH2           -13.7643449752       26.4651406768      -10.3689871492  SOLV      3292            0.0000000000
      9995      3303  TIP3      H1            -14.6535449752       26.5646906768      -10.7090271492  SOLV      3292            0.0000000000
      9996      3303  TIP3      H2            -13.4678549752       25.6234406768      -10.7151971492  SOLV      3292            0.0000000000
      9997      3304  TIP3      OH2           -10.1111649752       26.4654006768      -12.7125271492  SOLV      3293            0.0000000000
      9998      3304  TIP3      H1             -9.1796149752       26.5944006768      -12.5342171492  SOLV      3293            0.0000000000
      9999      3304  TIP3      H2            -10.3261349752       27.1348306768      -13.3620571492  SOLV      3293            0.0000000000
     10000      3305  TIP3      OH2            -4.1874949752       24.0711406768       -5.9315671492  SOLV      3294            0.0000000000
     10001      3305  TIP3      H1             -4.8643349752       24.2024506768       -5.2675971492  SOLV      3294            0.0000000000
     10002      3305  TIP3      H2             -4.6730049752       23.9160906768       -6.7417971492  SOLV      3294            0.0000000000
     10003      3306  TIP3      OH2           -11.4371449752       27.6596206768      -15.1459171492  SOLV      3295            0.0000000000
     10004      3306  TIP3      H1            -11.9796349752       27.2800006768      -15.8371571492  SOLV      3295            0.0000000000
     10005      3306  TIP3      H2            -10.6036549752       27.8540906768      -15.5745071492  SOLV      3295            0.0000000000
     10006      3307  TIP3      OH2           -13.3020049752       32.2168106768       -0.0467571492  SOLV      3296            0.0000000000
     10007      3307  TIP3      H1            -12.5697649752       32.4714006768        0.5146928508  SOLV      3296            0.0000000000
     10008      3307  TIP3      H2            -14.0821349752       32.4213506768        0.4687828508  SOLV      3296            0.0000000000
     10009      3308  TIP3      OH2            -7.2727149752       27.6238106768       -7.3087871492  SOLV      3297            0.0000000000
     10010      3308  TIP3      H1             -6.7083749752       27.0774706768       -7.8558271492  SOLV      3297            0.0000000000
     10011      3308  TIP3      H2             -7.4203749752       27.1020006768       -6.5200271492  SOLV      3297            0.0000000000
     10012      3309  TIP3      OH2           -12.2707449752       23.7604206768      -10.8903071492  SOLV      3298            0.0000000000
     10013      3309  TIP3      H1            -12.5877949752       22.8579506768      -10.9257671492  SOLV      3298            0.0000000000
     10014      3309  TIP3      H2            -11.4893349752       23.7621606768      -11.4431471492  SOLV      3298            0.0000000000
     10015      3310  TIP3      OH2            -8.6461249752       26.0124206768       -4.8947471492  SOLV      3299            0.0000000000
     10016      3310  TIP3      H1             -9.4815949752       26.4663706768       -4.7845071492  SOLV      3299            0.0000000000
     10017      3310  TIP3      H2             -8.1220649752       26.2882706768       -4.1427571492  SOLV      3299            0.0000000000
     10018      3311  TIP3      OH2            -8.1018649752       32.2251906768      -13.2101071492  SOLV      3300            0.0000000000
     10019      3311  TIP3      H1             -8.8467649752       31.7177206768      -13.5323171492  SOLV      3300            0.0000000000
     10020      3311  TIP3      H2             -8.2361449752       32.2739906768      -12.2636271492  SOLV      3300            0.0000000000
     10021      3312  TIP3      OH2            -0.9519749752       31.3580106768       -4.4233471492  SOLV      3301            0.0000000000
     10022      3312  TIP3      H1             -0.3100949752       31.8146406768       -4.9671271492  SOLV      3301            0.0000000000
     10023      3312  TIP3      H2             -1.7822849752       31.4712506768       -4.8859371492  SOLV      3301            0.0000000000
     10024      3313  TIP3      OH2            -4.2041849752       25.0391806768      -15.0108471492  SOLV      3302            0.0000000000
     10025      3313  TIP3      H1             -5.1427649752       25.1507406768      -15.1619671492  SOLV      3302            0.0000000000
     10026      3313  TIP3      H2             -3.9069749752       25.8958706768      -14.7042771492  SOLV      3302            0.0000000000
     10027      3314  TIP3      OH2            -3.4858349752       26.9064506768      -13.3501071492  SOLV      3303            0.0000000000
     10028      3314  TIP3      H1             -2.5939349752       26.7689506768      -13.0309871492  SOLV      3303            0.0000000000
     10029      3314  TIP3      H2             -3.4294749752       27.6970606768      -13.8867571492  SOLV      3303            0.0000000000
     10030      3315  TIP3      OH2           -12.9770349752       31.5201906768       -7.4403171492  SOLV      3304            0.0000000000
     10031      3315  TIP3      H1            -12.2323149752       31.5177606768       -8.0416671492  SOLV      3304            0.0000000000
     10032      3315  TIP3      H2            -12.8993749752       30.6965706768       -6.9588071492  SOLV      3304            0.0000000000
     10033      3316  TIP3      OH2           -15.9690649752       29.9808806768       -2.1254671492  SOLV      3305            0.0000000000
     10034      3316  TIP3      H1            -15.7462049752       29.5628406768       -1.2937171492  SOLV      3305            0.0000000000
     10035      3316  TIP3      H2            -16.5710549752       29.3683806768       -2.5481871492  SOLV      3305            0.0000000000
     10036      3317  TIP3      OH2            -8.9525749752       29.4978706768        0.0875028508  SOLV      3306            0.0000000000
     10037      3317  TIP3      H1             -9.2484949752       29.3321706768       -0.8075871492  SOLV      3306            0.0000000000
     10038      3317  TIP3      H2             -8.0210549752       29.2779006768        0.0768928508  SOLV      3306            0.0000000000
     10039      3318  TIP3      OH2             1.3990350248       27.1158606768      -13.6554371492  SOLV      3307            0.0000000000
     10040      3318  TIP3      H1              0.8446650248       26.7196606768      -14.3276871492  SOLV      3307            0.0000000000
     10041      3318  TIP3      H2              1.4993950248       28.0263806768      -13.9331071492  SOLV      3307            0.0000000000
     10042      3319  TIP3      OH2            -3.1454049752       30.7098506768       -6.1690371492  SOLV      3308            0.0000000000
     10043      3319  TIP3      H1             -4.0737149752       30.4780406768       -6.1961071492  SOLV      3308            0.0000000000
     10044      3319  TIP3      H2             -2.6942949752       29.9328306768       -6.4991571492  SOLV      3308            0.0000000000
     10045      3320  TIP3      OH2           -14.8473249752       29.9004206768      -15.4489271492  SOLV      3309            0.0000000000
     10046      3320  TIP3      H1            -14.2313349752       30.5271406768      -15.0694471492  SOLV      3309            0.0000000000
     10047      3320  TIP3      H2            -15.7090649752       30.2164006768      -15.1772771492  SOLV      3309            0.0000000000
     10048      3321  TIP3      OH2           -14.3351149752       24.7341506768       -2.5673271492  SOLV      3310            0.0000000000
     10049      3321  TIP3      H1            -15.2278849752       25.0726906768       -2.6349271492  SOLV      3310            0.0000000000
     10050      3321  TIP3      H2            -14.4338349752       23.8787606768       -2.1492471492  SOLV      3310            0.0000000000
     10051      3322  TIP3      OH2            -2.0473049752       32.5506806768      -13.1433771492  SOLV      3311            0.0000000000
     10052      3322  TIP3      H1             -2.3245449752       31.8226106768      -12.5872671492  SOLV      3311            0.0000000000
     10053      3322  TIP3      H2             -1.1200049752       32.6698806768      -12.9381171492  SOLV      3311            0.0000000000
     10054      3323  TIP3      OH2           -13.4322849752       31.8128006768      -13.9563671492  SOLV      3312            0.0000000000
     10055      3323  TIP3      H1            -14.1183549752       32.1650506768      -13.3893971492  SOLV      3312            0.0000000000
     10056      3323  TIP3      H2            -12.9094949752       32.5757606768      -14.2029371492  SOLV      3312            0.0000000000
     10057      3324  TIP3      OH2            -5.6007749752       24.4751806768       -3.6774671492  SOLV      3313            0.0000000000
     10058      3324  TIP3      H1             -4.9019849752       24.5490506768       -3.0274971492  SOLV      3313            0.0000000000
     10059      3324  TIP3      H2             -5.9816349752       23.6106806768       -3.5231771492  SOLV      3313            0.0000000000
     10060      3325  TIP3      OH2            -4.8162849752       24.1273506768      -12.5802371492  SOLV      3314            0.0000000000
     10061      3325  TIP3      H1             -4.5964549752       24.5988906768      -13.3836971492  SOLV      3314            0.0000000000
     10062      3325  TIP3      H2             -4.2578849752       24.5216106768      -11.9101771492  SOLV      3314            0.0000000000
     10063      3326  TIP3      OH2            -7.6162949752       25.8552306768      -11.7453971492  SOLV      3315            0.0000000000
     10064      3326  TIP3      H1             -6.8040349752       26.3595506768      -11.6992271492  SOLV      3315            0.0000000000
     10065      3326  TIP3      H2             -7.8609949752       25.7102006768      -10.8314371492  SOLV      3315            0.0000000000
     10066      3327  TIP3      OH2            -7.0806549752       26.8415006768       -2.5607371492  SOLV      3316            0.0000000000
     10067      3327  TIP3      H1             -6.9616249752       27.4150406768       -1.8036971492  SOLV      3316            0.0000000000
     10068      3327  TIP3      H2             -6.4251949752       26.1534406768       -2.4459571492  SOLV      3316            0.0000000000
     10069      3328  TIP3      OH2            -6.7326249752       22.9365306768      -10.8072871492  SOLV      3317            0.0000000000
     10070      3328  TIP3      H1             -7.0792749752       23.5535906768      -10.1628571492  SOLV      3317            0.0000000000
     10071      3328  TIP3      H2             -6.0739349752       23.4371006768      -11.2887371492  SOLV      3317            0.0000000000
     10072      3329  TIP3      OH2           -11.0749249752       23.9994706768      -14.1200371492  SOLV      3318            0.0000000000
     10073      3329  TIP3      H1            -11.1584449752       24.8877806768      -13.7733971492  SOLV      3318            0.0000000000
     10074      3329  TIP3      H2            -10.1848949752       23.7341406768      -13.8883571492  SOLV      3318            0.0000000000
     10075      3330  TIP3      OH2            -0.8760749752       24.7485306768       -1.7257671492  SOLV      3319            0.0000000000
     10076      3330  TIP3      H1             -1.7924949752       25.0107006768       -1.8133971492  SOLV      3319            0.0000000000
     10077      3330  TIP3      H2             -0.5405749752       24.7454306768       -2.6222371492  SOLV      3319            0.0000000000
     10078      3331  TIP3      OH2            -2.2739749752       28.4986306768       -7.6300371492  SOLV      3320            0.0000000000
     10079      3331  TIP3      H1             -3.0715349752       28.0836506768       -7.9585371492  SOLV      3320            0.0000000000
     10080      3331  TIP3      H2             -1.8288649752       27.8080006768       -7.1389871492  SOLV      3320            0.0000000000
     10081      3332  TIP3      OH2           -14.5004749752       27.0909906768      -15.9436471492  SOLV      3321            0.0000000000
     10082      3332  TIP3      H1            -14.5452149752       28.0303006768      -15.7649471492  SOLV      3321            0.0000000000
     10083      3332  TIP3      H2            -15.3881549752       26.8554806768      -16.2134371492  SOLV      3321            0.0000000000
     10084      3333  TIP3      OH2           -13.6922749752       21.8726506768       -7.2705471492  SOLV      3322            0.0000000000
     10085      3333  TIP3      H1            -13.9212949752       21.9319006768       -8.1980471492  SOLV      3322            0.0000000000
     10086      3333  TIP3      H2            -14.1349349752       21.0812006768       -6.9641371492  SOLV      3322            0.0000000000
     10087      3334  TIP3      OH2           -15.5666249752       32.2361406768        1.1742628508  SOLV      3323            0.0000000000
     10088      3334  TIP3      H1            -15.4225749752       31.3342106768        0.8879328508  SOLV      3323            0.0000000000
     10089      3334  TIP3      H2            -16.3388849752       32.5223506768        0.6864928508  SOLV      3323            0.0000000000
     10090      3335  TIP3      OH2           -11.2252549752       32.5797106768      -16.6932771492  SOLV      3324            0.0000000000
     10091      3335  TIP3      H1            -11.1608449752       31.7856706768      -16.1626371492  SOLV      3324            0.0000000000
     10092      3335  TIP3      H2            -10.5723349752       32.4609906768      -17.3830771492  SOLV      3324            0.0000000000
     10093      3336  TIP3      OH2            -8.9110149752       32.2059506768        0.6069028508  SOLV      3325            0.0000000000
     10094      3336  TIP3      H1             -9.2396349752       32.4767606768       -0.2503571492  SOLV      3325            0.0000000000
     10095      3336  TIP3      H2             -8.7591949752       31.2649306768        0.5194028508  SOLV      3325            0.0000000000
     10096      3337  TIP3      OH2            -3.1764949752       32.1216806768       -2.0098671492  SOLV      3326            0.0000000000
     10097      3337  TIP3      H1             -2.4310149752       32.7100506768       -2.1294671492  SOLV      3326            0.0000000000
     10098      3337  TIP3      H2             -3.9338149752       32.7036506768       -1.9465571492  SOLV      3326            0.0000000000
     10099      3338  TIP3      OH2           -14.7339749752       29.4364706768        0.5941928508  SOLV      3327            0.0000000000
     10100      3338  TIP3      H1            -14.3258549752       28.5791306768        0.4732528508  SOLV      3327            0.0000000000
     10101      3338  TIP3      H2            -14.9942149752       29.4506006768        1.5152228508  SOLV      3327            0.0000000000
     10102      3339  TIP3      OH2           -10.0758749752       30.5523306768      -14.3874771492  SOLV      3328            0.0000000000
     10103      3339  TIP3      H1            -10.5356749752       30.0681606768      -13.7016271492  SOLV      3328            0.0000000000
     10104      3339  TIP3      H2             -9.8210049752       29.8838706768      -15.0234271492  SOLV      3328            0.0000000000
     10105      3340  TIP3      OH2           -10.7869449752       28.4450406768       -2.0315171492  SOLV      3329            0.0000000000
     10106      3340  TIP3      H1            -11.4053349752       29.1197006768       -1.7510471492  SOLV      3329            0.0000000000
     10107      3340  TIP3      H2            -10.4428249752       28.7664306768       -2.8648971492  SOLV      3329            0.0000000000
     10108      3341  TIP3      OH2            -9.0048349752       28.7955106768      -16.1251571492  SOLV      3330            0.0000000000
     10109      3341  TIP3      H1             -9.1853349752       28.6406306768      -17.0523271492  SOLV      3330            0.0000000000
     10110      3341  TIP3      H2             -8.0547849752       28.9033806768      -16.0803671492  SOLV      3330            0.0000000000
     10111      3342  TIP3      OH2            -5.7671249752       30.9165706768        1.2459628508  SOLV      3331            0.0000000000
     10112      3342  TIP3      H1             -4.8140049752       31.0004806768        1.2185628508  SOLV      3331            0.0000000000
     10113      3342  TIP3      H2             -5.9276649752       30.2047506768        1.8654528508  SOLV      3331            0.0000000000
     10114      3343  TIP3      OH2             0.3849950248       31.1499306768      -16.6793471492  SOLV      3332            0.0000000000
     10115      3343  TIP3      H1              0.1114750248       30.7254806768      -17.4925171492  SOLV      3332            0.0000000000
     10116      3343  TIP3      H2              0.4244050248       32.0813806768      -16.8963071492  SOLV      3332            0.0000000000
     10117      3344  TIP3      OH2           -10.4475749752       25.8001206768       -0.9492071492  SOLV      3333            0.0000000000
     10118      3344  TIP3      H1            -10.2974849752       25.0712506768       -1.5512371492  SOLV      3333            0.0000000000
     10119      3344  TIP3      H2            -10.4453349752       26.5772906768       -1.5079871492  SOLV      3333            0.0000000000
     10120      3345  TIP3      OH2           -10.0350049752       24.1697006768       -3.4564671492  SOLV      3334            0.0000000000
     10121      3345  TIP3      H1             -9.4992549752       24.6213706768       -4.1085371492  SOLV      3334            0.0000000000
     10122      3345  TIP3      H2            -10.8870449752       24.0616806768       -3.8790571492  SOLV      3334            0.0000000000
     10123      3346  TIP3      OH2            -8.4531649752       29.6093206768       -3.2169471492  SOLV      3335            0.0000000000
     10124      3346  TIP3      H1             -7.7026849752       29.4530706768       -3.7901671492  SOLV      3335            0.0000000000
     10125      3346  TIP3      H2             -8.7923349752       30.4609806768       -3.4923971492  SOLV      3335            0.0000000000
     10126      3347  TIP3      OH2            -4.0375449752       27.4245006768        1.8115828508  SOLV      3336            0.0000000000
     10127      3347  TIP3      H1             -3.8454149752       26.4934406768        1.7000328508  SOLV      3336            0.0000000000
     10128      3347  TIP3      H2             -3.1799149752       27.8494506768        1.8011228508  SOLV      3336            0.0000000000
     10129      3348  TIP3      OH2            -2.7208249752       30.2130206768       -0.1111471492  SOLV      3337            0.0000000000
     10130      3348  TIP3      H1             -3.0023249752       30.9224806768       -0.6887671492  SOLV      3337            0.0000000000
     10131      3348  TIP3      H2             -1.7783949752       30.1403206768       -0.2620271492  SOLV      3337            0.0000000000
     10132      3349  TIP3      OH2           -11.9689449752       26.9984706768        0.9623528508  SOLV      3338            0.0000000000
     10133      3349  TIP3      H1            -12.7360449752       26.4659506768        0.7521128508  SOLV      3338            0.0000000000
     10134      3349  TIP3      H2            -11.2900449752       26.6885106768        0.3629828508  SOLV      3338            0.0000000000
     10135      3350  TIP3      OH2            -9.2294549752       21.6262706768       -3.0251071492  SOLV      3339            0.0000000000
     10136      3350  TIP3      H1             -9.3274949752       22.5725906768       -3.1304871492  SOLV      3339            0.0000000000
     10137      3350  TIP3      H2             -9.9718349752       21.2536506768       -3.5007571492  SOLV      3339            0.0000000000
     10138      3351  TIP3      OH2            -7.9654049752       25.9478106768        0.5387328508  SOLV      3340            0.0000000000
     10139      3351  TIP3      H1             -8.2008649752       25.7284806768        1.4402228508  SOLV      3340            0.0000000000
     10140      3351  TIP3      H2             -8.7487149752       25.7409306768        0.0289828508  SOLV      3340            0.0000000000
     10141      3352  TIP3      OH2            -5.2497449752       25.0751606768       -0.3859171492  SOLV      3341            0.0000000000
     10142      3352  TIP3      H1             -6.1972049752       25.1071306768       -0.2535871492  SOLV      3341            0.0000000000
     10143      3352  TIP3      H2             -4.9370749752       24.4498706768        0.2679028508  SOLV      3341            0.0000000000
     10144      3353  TIP3      OH2            -3.6155949752       23.7092706768        1.6192728508  SOLV      3342            0.0000000000
     10145      3353  TIP3      H1             -3.7124149752       22.7570006768        1.6134628508  SOLV      3342            0.0000000000
     10146      3353  TIP3      H2             -3.9372849752       23.9779506768        2.4798228508  SOLV      3342            0.0000000000
     10147      3354  TIP3      OH2           -13.7886649752       24.9188506768        0.6668228508  SOLV      3343            0.0000000000
     10148      3354  TIP3      H1            -13.5769249752       24.2124606768        0.0565728508  SOLV      3343            0.0000000000
     10149      3354  TIP3      H2            -13.8999149752       24.4814506768        1.5109428508  SOLV      3343            0.0000000000
     10150      3355  TIP3      OH2            -9.0076449752       20.9200106768       -0.3538271492  SOLV      3344            0.0000000000
     10151      3355  TIP3      H1             -8.2958049752       20.2802306768       -0.3679171492  SOLV      3344            0.0000000000
     10152      3355  TIP3      H2             -9.1086049752       21.1868406768       -1.2675171492  SOLV      3344            0.0000000000
     10153      3356  TIP3      OH2            -8.6538949752       22.6028506768        1.6998028508  SOLV      3345            0.0000000000
     10154      3356  TIP3      H1             -8.7856749752       22.1272306768        0.8796528508  SOLV      3345            0.0000000000
     10155      3356  TIP3      H2             -9.2531549752       23.3472106768        1.6445128508  SOLV      3345            0.0000000000
     10156      3357  TIP3      OH2             0.8432750248       32.0187406768      -12.7043071492  SOLV      3346            0.0000000000
     10157      3357  TIP3      H1              1.6934150248       32.4398306768      -12.5771471492  SOLV      3346            0.0000000000
     10158      3357  TIP3      H2              0.8487850248       31.2787506768      -12.0971671492  SOLV      3346            0.0000000000
     10159      3358  TIP3      OH2             1.5061450248       29.9733306768      -14.4896071492  SOLV      3347            0.0000000000
     10160      3358  TIP3      H1              0.9842550248       30.3297406768      -15.2085171492  SOLV      3347            0.0000000000
     10161      3358  TIP3      H2              1.4730650248       30.6481106768      -13.8115171492  SOLV      3347            0.0000000000
     10162      3359  TIP3      OH2            -0.1449549752       27.2128906768      -15.9388971492  SOLV      3348            0.0000000000
     10163      3359  TIP3      H1             -0.0485149752       27.8795906768      -16.6189271492  SOLV      3348            0.0000000000
     10164      3359  TIP3      H2             -0.2849949752       26.3975206768      -16.4203471492  SOLV      3348            0.0000000000
     10165      3360  TIP3      OH2            -0.9754849752       28.5931306768      -10.3178671492  SOLV      3349            0.0000000000
     10166      3360  TIP3      H1             -1.1256049752       27.6479906768      -10.3380871492  SOLV      3349            0.0000000000
     10167      3360  TIP3      H2             -1.3290349752       28.8742706768       -9.4739571492  SOLV      3349            0.0000000000
     10168      3361  TIP3      OH2           -15.9402449752       30.6713506768       -6.3074871492  SOLV      3350            0.0000000000
     10169      3361  TIP3      H1            -15.7559549752       30.5895206768       -7.2431971492  SOLV      3350            0.0000000000
     10170      3361  TIP3      H2            -15.0909549752       30.5470506768       -5.8838471492  SOLV      3350            0.0000000000
     10171      3362  TIP3      OH2            -0.1191949752       30.5634606768       -0.6790371492  SOLV      3351            0.0000000000
     10172      3362  TIP3      H1              0.4635350248       29.8286906768       -0.4873171492  SOLV      3351            0.0000000000
     10173      3362  TIP3      H2              0.4447350248       31.3354906768       -0.6324571492  SOLV      3351            0.0000000000
     10174      3363  TIP3      OH2             1.3775150248       28.4660406768        0.0055028508  SOLV      3352            0.0000000000
     10175      3363  TIP3      H1              0.5141850248       28.0872506768       -0.1600271492  SOLV      3352            0.0000000000
     10176      3363  TIP3      H2              1.9818850248       27.7275206768       -0.0689171492  SOLV      3352            0.0000000000
     10177      3364  TIP3      OH2            -0.8975749752       24.6208706768      -16.8213471492  SOLV      3353            0.0000000000
     10178      3364  TIP3      H1             -0.2869949752       24.2495506768      -16.1845271492  SOLV      3353            0.0000000000
     10179      3364  TIP3      H2             -1.7344249752       24.1995606768      -16.6253471492  SOLV      3353            0.0000000000
     10180      3365  TIP3      OH2            -1.2650049752       26.1757106768      -11.8553571492  SOLV      3354            0.0000000000
     10181      3365  TIP3      H1             -0.9852949752       25.2687506768      -11.7311871492  SOLV      3354            0.0000000000
     10182      3365  TIP3      H2             -0.5058349752       26.6098606768      -12.2444371492  SOLV      3354            0.0000000000
     10183      3366  TIP3      OH2            -0.6531749752       26.7574506768       -6.4194671492  SOLV      3355            0.0000000000
     10184      3366  TIP3      H1              0.2796250248       26.9694406768       -6.4538671492  SOLV      3355            0.0000000000
     10185      3366  TIP3      H2             -0.8884249752       26.8586606768       -5.4971671492  SOLV      3355            0.0000000000
     10186      3367  TIP3      OH2            -0.6239849752       27.4939806768       -3.6435271492  SOLV      3356            0.0000000000
     10187      3367  TIP3      H1             -1.4668549752       27.7620206768       -3.2775471492  SOLV      3356            0.0000000000
     10188      3367  TIP3      H2             -0.1815549752       28.3161706768       -3.8544171492  SOLV      3356            0.0000000000
     10189      3368  TIP3      OH2           -16.3427649752       25.9418506768       -0.1666071492  SOLV      3357            0.0000000000
     10190      3368  TIP3      H1            -15.4232749752       25.8196806768        0.0697028508  SOLV      3357            0.0000000000
     10191      3368  TIP3      H2            -16.7923149752       25.1918206768        0.2227428508  SOLV      3357            0.0000000000
     10192      3369  TIP3      OH2             1.6591750248       21.4740006768        1.7099728508  SOLV      3358            0.0000000000
     10193      3369  TIP3      H1              2.0088750248       20.8203506768        1.1044428508  SOLV      3358            0.0000000000
     10194      3369  TIP3      H2              1.8061250248       22.3114106768        1.2702328508  SOLV      3358            0.0000000000
     10195      3370  TIP3      OH2            -0.6515249752       23.4386406768      -11.8071571492  SOLV      3359            0.0000000000
     10196      3370  TIP3      H1             -0.4690249752       22.9897906768      -10.9816571492  SOLV      3359            0.0000000000
     10197      3370  TIP3      H2             -1.2512349752       22.8540806768      -12.2706971492  SOLV      3359            0.0000000000
     10198      3371  TIP3      OH2           -15.1215149752       24.2540106768       -7.2753171492  SOLV      3360            0.0000000000
     10199      3371  TIP3      H1            -14.6763549752       23.4622606768       -6.9733471492  SOLV      3360            0.0000000000
     10200      3371  TIP3      H2            -14.6552149752       24.9705306768       -6.8447571492  SOLV      3360            0.0000000000
     10201      3372  TIP3      OH2           -16.8174849752       27.2533106768       -6.2062971492  SOLV      3361            0.0000000000
     10202      3372  TIP3      H1            -16.3255049752       27.0323606768       -6.9970971492  SOLV      3361            0.0000000000
     10203      3372  TIP3      H2            -16.4553949752       28.0936506768       -5.9253471492  SOLV      3361            0.0000000000
     10204      3373  TIP3      OH2             1.1788950248       23.5834606768        0.0591028508  SOLV      3362            0.0000000000
     10205      3373  TIP3      H1              0.2614650248       23.8541706768        0.0234528508  SOLV      3362            0.0000000000
     10206      3373  TIP3      H2              1.3018350248       23.0483006768       -0.7249271492  SOLV      3362            0.0000000000
     10207      3374  TIP3      OH2             1.2150950248       23.5064506768      -15.2791271492  SOLV      3363            0.0000000000
     10208      3374  TIP3      H1              1.6273550248       22.7850206768      -15.7543271492  SOLV      3363            0.0000000000
     10209      3374  TIP3      H2              1.8967450248       24.1759106768      -15.2206971492  SOLV      3363            0.0000000000
     10210      3375  TIP3      OH2           -16.5038349752       23.5112206768      -12.1520571492  SOLV      3364            0.0000000000
     10211      3375  TIP3      H1            -17.4289949752       23.7198806768      -12.2815071492  SOLV      3364            0.0000000000
     10212      3375  TIP3      H2            -16.0498449752       23.9953006768      -12.8418271492  SOLV      3364            0.0000000000
     10213      3376  TIP3      OH2           -16.5402949752       22.2491206768       -3.8078071492  SOLV      3365            0.0000000000
     10214      3376  TIP3      H1            -17.2052449752       22.0031506768       -3.1647171492  SOLV      3365            0.0000000000
     10215      3376  TIP3      H2            -16.9831649752       22.8711606768       -4.3850071492  SOLV      3365            0.0000000000
     10216      3377  TIP3      OH2             0.1794850248       21.6730906768       -2.1218171492  SOLV      3366            0.0000000000
     10217      3377  TIP3      H1             -0.6331649752       21.9981206768       -2.5093471492  SOLV      3366            0.0000000000
     10218      3377  TIP3      H2              0.4123350248       20.9129406768       -2.6549071492  SOLV      3366            0.0000000000
     10219      3378  TIP3      OH2            -6.3906649752       23.1221506768       -7.7989971492  SOLV      3367            0.0000000000
     10220      3378  TIP3      H1             -7.0649849752       22.4927106768       -7.5434171492  SOLV      3367            0.0000000000
     10221      3378  TIP3      H2             -5.8267449752       22.6380406768       -8.4022071492  SOLV      3367            0.0000000000
     10222      3379  TIP3      OH2            -1.2479449752       21.2295506768       -7.6862871492  SOLV      3368            0.0000000000
     10223      3379  TIP3      H1             -0.6441849752       21.7770906768       -8.1881871492  SOLV      3368            0.0000000000
     10224      3379  TIP3      H2             -2.1177449752       21.5485906768       -7.9268771492  SOLV      3368            0.0000000000
     10225      3380  TIP3      OH2             0.4790950248       22.3684206768       -9.3531971492  SOLV      3369            0.0000000000
     10226      3380  TIP3      H1              1.0908450248       21.8539906768       -9.8798371492  SOLV      3369            0.0000000000
     10227      3380  TIP3      H2              0.8614350248       23.2456306768       -9.3297571492  SOLV      3369            0.0000000000
     10228      3381  TIP3      OH2           -14.0639149752       21.7561806768       -9.9770071492  SOLV      3370            0.0000000000
     10229      3381  TIP3      H1            -14.8409349752       21.5216706768      -10.4844171492  SOLV      3370            0.0000000000
     10230      3381  TIP3      H2            -13.5335549752       20.9593906768       -9.9682071492  SOLV      3370            0.0000000000
     10231      3382  TIP3      OH2           -15.2275749752       21.5539906768      -14.1733971492  SOLV      3371            0.0000000000
     10232      3382  TIP3      H1            -14.7885049752       22.1650406768      -14.7650471492  SOLV      3371            0.0000000000
     10233      3382  TIP3      H2            -15.8613349752       22.0924006768      -13.6993971492  SOLV      3371            0.0000000000
     10234      3383  TIP3      OH2            -9.4846549752       21.6828906768      -10.1636971492  SOLV      3372            0.0000000000
     10235      3383  TIP3      H1             -8.6103149752       22.0713206768      -10.1932671492  SOLV      3372            0.0000000000
     10236      3383  TIP3      H2             -9.6205749752       21.4676706768       -9.2409771492  SOLV      3372            0.0000000000
     10237      3384  TIP3      OH2            -3.9278149752       21.7128706768       -8.5145271492  SOLV      3373            0.0000000000
     10238      3384  TIP3      H1             -3.8516549752       21.8080306768       -9.4639271492  SOLV      3373            0.0000000000
     10239      3384  TIP3      H2             -4.2028949752       20.8051606768       -8.3856171492  SOLV      3373            0.0000000000
     10240      3385  TIP3      OH2            -2.5745549752       21.7386506768      -12.8220271492  SOLV      3374            0.0000000000
     10241      3385  TIP3      H1             -3.2774449752       22.3535706768      -13.0318871492  SOLV      3374            0.0000000000
     10242      3385  TIP3      H2             -3.0194149752       20.9013206768      -12.6909371492  SOLV      3374            0.0000000000
     10243      3386  TIP3      OH2           -13.3666649752       23.4701406768      -15.7309871492  SOLV      3375            0.0000000000
     10244      3386  TIP3      H1            -12.8753249752       22.8403806768      -16.2584371492  SOLV      3375            0.0000000000
     10245      3386  TIP3      H2            -12.7430349752       23.7660806768      -15.0678671492  SOLV      3375            0.0000000000
     10246      3387  TIP3      OH2            -8.3406549752       23.7632906768      -13.2739371492  SOLV      3376            0.0000000000
     10247      3387  TIP3      H1             -8.1625249752       23.1166106768      -12.5910771492  SOLV      3376            0.0000000000
     10248      3387  TIP3      H2             -8.3940349752       24.5970606768      -12.8068271492  SOLV      3376            0.0000000000
     10249      3388  TIP3      OH2           -14.1061149752       22.2703706768       -0.4593871492  SOLV      3377            0.0000000000
     10250      3388  TIP3      H1            -14.4722949752       21.5046306768       -0.0169171492  SOLV      3377            0.0000000000
     10251      3388  TIP3      H2            -13.1932649752       22.2993906768       -0.1728771492  SOLV      3377            0.0000000000
     10252      3389  TIP3      OH2           -12.1330349752       21.6208106768        1.0763228508  SOLV      3378            0.0000000000
     10253      3389  TIP3      H1            -11.2346749752       21.3468306768        0.8916628508  SOLV      3378            0.0000000000
     10254      3389  TIP3      H2            -12.5197249752       20.8784106768        1.5405828508  SOLV      3378            0.0000000000
     10255      3390  TIP3      OH2            -3.7118049752       20.9533406768        1.2586028508  SOLV      3379            0.0000000000
     10256      3390  TIP3      H1             -3.6350849752       20.5274106768        2.1123728508  SOLV      3379            0.0000000000
     10257      3390  TIP3      H2             -2.8181449752       20.9668106768        0.9159528508  SOLV      3379            0.0000000000
     10258      3391  TIP3      OH2            13.8703450248       30.9124106768      -10.0182571492  SOLV      3380            0.0000000000
     10259      3391  TIP3      H1             13.9594550248       31.8562306768      -10.1505471492  SOLV      3380            0.0000000000
     10260      3391  TIP3      H2             13.2321050248       30.6370506768      -10.6763171492  SOLV      3380            0.0000000000
     10261      3392  TIP3      OH2            12.8034750248       30.1674806768       -6.5994371492  SOLV      3381            0.0000000000
     10262      3392  TIP3      H1             12.7652250248       29.5211106768       -5.8944771492  SOLV      3381            0.0000000000
     10263      3392  TIP3      H2             12.4811250248       29.7009206768       -7.3705671492  SOLV      3381            0.0000000000
     10264      3393  TIP3      OH2             5.1719750248       29.7816906768       -5.0064471492  SOLV      3382            0.0000000000
     10265      3393  TIP3      H1              5.2131850248       29.1560206768       -4.2832071492  SOLV      3382            0.0000000000
     10266      3393  TIP3      H2              5.8747450248       30.4055506768       -4.8244071492  SOLV      3382            0.0000000000
     10267      3394  TIP3      OH2             2.7053350248       27.8918406768      -11.0786571492  SOLV      3383            0.0000000000
     10268      3394  TIP3      H1              2.2576750248       28.7377106768      -11.0970071492  SOLV      3383            0.0000000000
     10269      3394  TIP3      H2              2.1444550248       27.3122606768      -11.5941471492  SOLV      3383            0.0000000000
     10270      3395  TIP3      OH2            19.8558950248       24.2011506768       -5.3327171492  SOLV      3384            0.0000000000
     10271      3395  TIP3      H1             19.9051150248       24.8112706768       -4.5968071492  SOLV      3384            0.0000000000
     10272      3395  TIP3      H2             20.2814050248       24.6622406768       -6.0556071492  SOLV      3384            0.0000000000
     10273      3396  TIP3      OH2            14.3336150248       26.9938606768       -5.8658571492  SOLV      3385            0.0000000000
     10274      3396  TIP3      H1             14.4762050248       26.0475606768       -5.8456971492  SOLV      3385            0.0000000000
     10275      3396  TIP3      H2             14.2275150248       27.2008406768       -6.7943671492  SOLV      3385            0.0000000000
     10276      3397  TIP3      OH2             7.4884450248       25.0955006768       -8.5933771492  SOLV      3386            0.0000000000
     10277      3397  TIP3      H1              7.5315550248       25.9553506768       -9.0117471492  SOLV      3386            0.0000000000
     10278      3397  TIP3      H2              7.0308550248       24.5429706768       -9.2270571492  SOLV      3386            0.0000000000
     10279      3398  TIP3      OH2            15.2107150248       25.2260606768      -10.1925471492  SOLV      3387            0.0000000000
     10280      3398  TIP3      H1             15.8571450248       24.8973806768       -9.5677871492  SOLV      3387            0.0000000000
     10281      3398  TIP3      H2             15.7206550248       25.7439606768      -10.8154071492  SOLV      3387            0.0000000000
     10282      3399  TIP3      OH2             4.1085950248       27.4920806768       -7.8312371492  SOLV      3388            0.0000000000
     10283      3399  TIP3      H1              4.7622550248       26.9422506768       -7.3992271492  SOLV      3388            0.0000000000
     10284      3399  TIP3      H2              4.1325250248       27.2179806768       -8.7480371492  SOLV      3388            0.0000000000
     10285      3400  TIP3      OH2             9.2650450248       29.0422106768       -8.6160871492  SOLV      3389            0.0000000000
     10286      3400  TIP3      H1              9.8811450248       28.5157506768       -8.1066871492  SOLV      3389            0.0000000000
     10287      3400  TIP3      H2              8.6789250248       28.4020806768       -9.0197271492  SOLV      3389            0.0000000000
     10288      3401  TIP3      OH2            20.2473550248       25.6790706768       -3.0967371492  SOLV      3390            0.0000000000
     10289      3401  TIP3      H1             19.5588150248       26.3371406768       -3.1920771492  SOLV      3390            0.0000000000
     10290      3401  TIP3      H2             20.2628150248       25.4818606768       -2.1601971492  SOLV      3390            0.0000000000
     10291      3402  TIP3      OH2             6.2986350248       24.0133406768       -4.5192971492  SOLV      3391            0.0000000000
     10292      3402  TIP3      H1              6.0798050248       24.5434006768       -5.2856971492  SOLV      3391            0.0000000000
     10293      3402  TIP3      H2              5.6307250248       24.2398906768       -3.8721571492  SOLV      3391            0.0000000000
     10294      3403  TIP3      OH2             8.8677750248       31.6889106768       -4.2319271492  SOLV      3392            0.0000000000
     10295      3403  TIP3      H1              8.1276850248       32.2870606768       -4.1284071492  SOLV      3392            0.0000000000
     10296      3403  TIP3      H2              9.5817250248       32.2428706768       -4.5475671492  SOLV      3392            0.0000000000
     10297      3404  TIP3      OH2            16.9745550248       24.5169906768       -8.2119571492  SOLV      3393            0.0000000000
     10298      3404  TIP3      H1             16.7593550248       23.7513306768       -7.6793571492  SOLV      3393            0.0000000000
     10299      3404  TIP3      H2             17.6302950248       24.9894506768       -7.6991071492  SOLV      3393            0.0000000000
     10300      3405  TIP3      OH2             5.8923650248       25.9055206768       -6.5670771492  SOLV      3394            0.0000000000
     10301      3405  TIP3      H1              6.5059950248       26.5382806768       -6.1938371492  SOLV      3394            0.0000000000
     10302      3405  TIP3      H2              6.4044350248       25.4330206768       -7.2233871492  SOLV      3394            0.0000000000
     10303      3406  TIP3      OH2            17.3219650248       23.2321206768       -4.5326071492  SOLV      3395            0.0000000000
     10304      3406  TIP3      H1             16.5858850248       23.8428306768       -4.5704771492  SOLV      3395            0.0000000000
     10305      3406  TIP3      H2             18.0053650248       23.6470206768       -5.0589671492  SOLV      3395            0.0000000000
     10306      3407  TIP3      OH2            10.3251050248       21.3188506768       -7.0668071492  SOLV      3396            0.0000000000
     10307      3407  TIP3      H1             10.2075250248       20.3704506768       -7.1209771492  SOLV      3396            0.0000000000
     10308      3407  TIP3      H2              9.4701150248       21.6514606768       -6.7936971492  SOLV      3396            0.0000000000
     10309      3408  TIP3      OH2            12.5915950248       30.1564106768      -12.5662271492  SOLV      3397            0.0000000000
     10310      3408  TIP3      H1             11.8801450248       30.6913806768      -12.9181771492  SOLV      3397            0.0000000000
     10311      3408  TIP3      H2             13.2825550248       30.2116206768      -13.2263371492  SOLV      3397            0.0000000000
     10312      3409  TIP3      OH2            12.6455150248       28.6138406768      -15.5277271492  SOLV      3398            0.0000000000
     10313      3409  TIP3      H1             13.3465050248       28.6365306768      -14.8763271492  SOLV      3398            0.0000000000
     10314      3409  TIP3      H2             12.9478050248       27.9858106768      -16.1837971492  SOLV      3398            0.0000000000
     10315      3410  TIP3      OH2            15.9973650248       30.3657406768      -11.6146371492  SOLV      3399            0.0000000000
     10316      3410  TIP3      H1             15.2654650248       30.5941106768      -11.0415771492  SOLV      3399            0.0000000000
     10317      3410  TIP3      H2             16.4445850248       29.6520106768      -11.1598871492  SOLV      3399            0.0000000000
     10318      3411  TIP3      OH2            15.8947150248       28.5400006768       -2.5469371492  SOLV      3400            0.0000000000
     10319      3411  TIP3      H1             15.9746250248       29.3034406768       -1.9750871492  SOLV      3400            0.0000000000
     10320      3411  TIP3      H2             15.2934850248       28.8192406768       -3.2374271492  SOLV      3400            0.0000000000
     10321      3412  TIP3      OH2             7.6427350248       30.9963606768       -9.7321371492  SOLV      3401            0.0000000000
     10322      3412  TIP3      H1              7.3122550248       30.6257006768      -10.5504371492  SOLV      3401            0.0000000000
     10323      3412  TIP3      H2              8.2311450248       30.3257606768       -9.3853071492  SOLV      3401            0.0000000000
     10324      3413  TIP3      OH2             8.0092850248       29.7649206768       -6.0986371492  SOLV      3402            0.0000000000
     10325      3413  TIP3      H1              8.5745350248       29.8863406768       -6.8615171492  SOLV      3402            0.0000000000
     10326      3413  TIP3      H2              8.3281750248       30.4024206768       -5.4597871492  SOLV      3402            0.0000000000
     10327      3414  TIP3      OH2            14.8683150248       29.5280306768      -13.9295171492  SOLV      3403            0.0000000000
     10328      3414  TIP3      H1             15.4478650248       29.6780606768      -13.1826271492  SOLV      3403            0.0000000000
     10329      3414  TIP3      H2             15.2823150248       29.9987706768      -14.6528771492  SOLV      3403            0.0000000000
     10330      3415  TIP3      OH2             5.8093450248       30.3623006768       -2.1528771492  SOLV      3404            0.0000000000
     10331      3415  TIP3      H1              5.8796650248       31.0129806768       -1.4543771492  SOLV      3404            0.0000000000
     10332      3415  TIP3      H2              4.9185650248       30.4650506768       -2.4877871492  SOLV      3404            0.0000000000
     10333      3416  TIP3      OH2            18.5671550248       21.2780706768      -14.1165471492  SOLV      3405            0.0000000000
     10334      3416  TIP3      H1             17.6672250248       21.4169706768      -13.8214871492  SOLV      3405            0.0000000000
     10335      3416  TIP3      H2             18.8189950248       22.1095306768      -14.5183771492  SOLV      3405            0.0000000000
     10336      3417  TIP3      OH2             6.6330050248       30.0657906768      -12.1428571492  SOLV      3406            0.0000000000
     10337      3417  TIP3      H1              6.3411350248       30.8339606768      -12.6337271492  SOLV      3406            0.0000000000
     10338      3417  TIP3      H2              5.9585250248       29.4064106768      -12.3057171492  SOLV      3406            0.0000000000
     10339      3418  TIP3      OH2             2.7260150248       32.4287106768       -3.3278771492  SOLV      3407            0.0000000000
     10340      3418  TIP3      H1              2.2248550248       32.4006506768       -4.1429071492  SOLV      3407            0.0000000000
     10341      3418  TIP3      H2              2.7313850248       31.5230306768       -3.0181471492  SOLV      3407            0.0000000000
     10342      3419  TIP3      OH2            17.8261150248       27.3683106768       -0.2812671492  SOLV      3408            0.0000000000
     10343      3419  TIP3      H1             17.4187950248       27.8488706768       -1.0019371492  SOLV      3408            0.0000000000
     10344      3419  TIP3      H2             17.8666850248       26.4629106768       -0.5891871492  SOLV      3408            0.0000000000
     10345      3420  TIP3      OH2             7.5938650248       22.2223006768       -6.2891771492  SOLV      3409            0.0000000000
     10346      3420  TIP3      H1              6.7322350248       22.1351206768       -6.6968871492  SOLV      3409            0.0000000000
     10347      3420  TIP3      H2              7.5714350248       23.0783106768       -5.8614171492  SOLV      3409            0.0000000000
     10348      3421  TIP3      OH2            12.2566450248       21.9443406768       -2.9144771492  SOLV      3410            0.0000000000
     10349      3421  TIP3      H1             12.6769550248       21.5290506768       -2.1614171492  SOLV      3410            0.0000000000
     10350      3421  TIP3      H2             11.3236050248       21.7656706768       -2.7972771492  SOLV      3410            0.0000000000
     10351      3422  TIP3      OH2            15.5831350248       25.6998606768       -2.0610271492  SOLV      3411            0.0000000000
     10352      3422  TIP3      H1             15.0690850248       25.5740806768       -1.2634271492  SOLV      3411            0.0000000000
     10353      3422  TIP3      H2             15.4276050248       26.6121706768       -2.3054071492  SOLV      3411            0.0000000000
     10354      3423  TIP3      OH2            16.3456250248       30.5608606768      -16.2997271492  SOLV      3412            0.0000000000
     10355      3423  TIP3      H1             16.3877050248       30.3382506768      -17.2297271492  SOLV      3412            0.0000000000
     10356      3423  TIP3      H2             17.1948350248       30.9595706768      -16.1097371492  SOLV      3412            0.0000000000
     10357      3424  TIP3      OH2            11.9183750248       24.4366806768      -15.6293971492  SOLV      3413            0.0000000000
     10358      3424  TIP3      H1             11.6648550248       24.4558406768      -14.7065871492  SOLV      3413            0.0000000000
     10359      3424  TIP3      H2             11.6615850248       23.5652206768      -15.9307771492  SOLV      3413            0.0000000000
     10360      3425  TIP3      OH2             7.6848750248       27.1877506768       -5.1941571492  SOLV      3414            0.0000000000
     10361      3425  TIP3      H1              7.0430850248       27.1474806768       -4.4851471492  SOLV      3414            0.0000000000
     10362      3425  TIP3      H2              7.7220750248       28.1142206768       -5.4318571492  SOLV      3414            0.0000000000
     10363      3426  TIP3      OH2             7.6817850248       27.4087606768      -10.2821571492  SOLV      3415            0.0000000000
     10364      3426  TIP3      H1              6.7890750248       27.0683706768      -10.3407771492  SOLV      3415            0.0000000000
     10365      3426  TIP3      H2              8.1324450248       27.0318506768      -11.0378371492  SOLV      3415            0.0000000000
     10366      3427  TIP3      OH2            13.2173350248       27.8247906768      -11.4650771492  SOLV      3416            0.0000000000
     10367      3427  TIP3      H1             12.8083650248       28.6396506768      -11.7565971492  SOLV      3416            0.0000000000
     10368      3427  TIP3      H2             13.9379550248       27.6848006768      -12.0793671492  SOLV      3416            0.0000000000
     10369      3428  TIP3      OH2            12.3194950248       28.0004306768        0.0229928508  SOLV      3417            0.0000000000
     10370      3428  TIP3      H1             11.7568750248       27.2955906768        0.3437728508  SOLV      3417            0.0000000000
     10371      3428  TIP3      H2             13.1458350248       27.8796206768        0.4907528508  SOLV      3417            0.0000000000
     10372      3429  TIP3      OH2            14.2221050248       27.2708306768       -8.6511071492  SOLV      3418            0.0000000000
     10373      3429  TIP3      H1             14.0265550248       27.8765106768       -9.3660471492  SOLV      3418            0.0000000000
     10374      3429  TIP3      H2             14.4033650248       26.4373506768       -9.0854771492  SOLV      3418            0.0000000000
     10375      3430  TIP3      OH2             5.4349250248       27.5081006768       -3.3269571492  SOLV      3419            0.0000000000
     10376      3430  TIP3      H1              5.3968650248       27.9082606768       -2.4582471492  SOLV      3419            0.0000000000
     10377      3430  TIP3      H2              4.9440350248       26.6913406768       -3.2366671492  SOLV      3419            0.0000000000
     10378      3431  TIP3      OH2             8.8006650248       24.8823306768      -16.5283571492  SOLV      3420            0.0000000000
     10379      3431  TIP3      H1              8.3697350248       24.4373406768      -15.7986171492  SOLV      3420            0.0000000000
     10380      3431  TIP3      H2              8.0825350248       25.2539606768      -17.0406071492  SOLV      3420            0.0000000000
     10381      3432  TIP3      OH2             2.0430050248       24.6242806768       -9.4764871492  SOLV      3421            0.0000000000
     10382      3432  TIP3      H1              2.6737750248       24.5954906768       -8.7570971492  SOLV      3421            0.0000000000
     10383      3432  TIP3      H2              2.4924350248       24.1991506768      -10.2068971492  SOLV      3421            0.0000000000
     10384      3433  TIP3      OH2             3.3172150248       25.3704806768      -14.0524471492  SOLV      3422            0.0000000000
     10385      3433  TIP3      H1              3.7913850248       25.9614706768      -14.6373571492  SOLV      3422            0.0000000000
     10386      3433  TIP3      H2              2.5998550248       25.9007706768      -13.7054371492  SOLV      3422            0.0000000000
     10387      3434  TIP3      OH2            13.4860250248       28.9089606768       -3.9798671492  SOLV      3423            0.0000000000
     10388      3434  TIP3      H1             13.8095050248       28.2779306768       -4.6228171492  SOLV      3423            0.0000000000
     10389      3434  TIP3      H2             13.0459550248       28.3741806768       -3.3191271492  SOLV      3423            0.0000000000
     10390      3435  TIP3      OH2            10.2633150248       24.8365106768       -9.1957471492  SOLV      3424            0.0000000000
     10391      3435  TIP3      H1              9.3524250248       24.8931906768       -8.9071471492  SOLV      3424            0.0000000000
     10392      3435  TIP3      H2             10.7686050248       24.7760606768       -8.3850271492  SOLV      3424            0.0000000000
     10393      3436  TIP3      OH2             5.0916550248       26.4651406768      -10.3689871492  SOLV      3425            0.0000000000
     10394      3436  TIP3      H1              4.2024550248       26.5646906768      -10.7090271492  SOLV      3425            0.0000000000
     10395      3436  TIP3      H2              5.3881450248       25.6234406768      -10.7151971492  SOLV      3425            0.0000000000
     10396      3437  TIP3      OH2             8.7448350248       26.4654006768      -12.7125271492  SOLV      3426            0.0000000000
     10397      3437  TIP3      H1              9.6763850248       26.5944006768      -12.5342171492  SOLV      3426            0.0000000000
     10398      3437  TIP3      H2              8.5298650248       27.1348306768      -13.3620571492  SOLV      3426            0.0000000000
     10399      3438  TIP3      OH2            14.6685050248       24.0711406768       -5.9315671492  SOLV      3427            0.0000000000
     10400      3438  TIP3      H1             13.9916650248       24.2024506768       -5.2675971492  SOLV      3427            0.0000000000
     10401      3438  TIP3      H2             14.1829950248       23.9160906768       -6.7417971492  SOLV      3427            0.0000000000
     10402      3439  TIP3      OH2             7.4188550248       27.6596206768      -15.1459171492  SOLV      3428            0.0000000000
     10403      3439  TIP3      H1              6.8763650248       27.2800006768      -15.8371571492  SOLV      3428            0.0000000000
     10404      3439  TIP3      H2              8.2523450248       27.8540906768      -15.5745071492  SOLV      3428            0.0000000000
     10405      3440  TIP3      OH2             5.5539950248       32.2168106768       -0.0467571492  SOLV      3429            0.0000000000
     10406      3440  TIP3      H1              6.2862350248       32.4714006768        0.5146928508  SOLV      3429            0.0000000000
     10407      3440  TIP3      H2              4.7738650248       32.4213506768        0.4687828508  SOLV      3429            0.0000000000
     10408      3441  TIP3      OH2            11.5832850248       27.6238106768       -7.3087871492  SOLV      3430            0.0000000000
     10409      3441  TIP3      H1             12.1476250248       27.0774706768       -7.8558271492  SOLV      3430            0.0000000000
     10410      3441  TIP3      H2             11.4356250248       27.1020006768       -6.5200271492  SOLV      3430            0.0000000000
     10411      3442  TIP3      OH2             6.5852550248       23.7604206768      -10.8903071492  SOLV      3431            0.0000000000
     10412      3442  TIP3      H1              6.2682050248       22.8579506768      -10.9257671492  SOLV      3431            0.0000000000
     10413      3442  TIP3      H2              7.3666650248       23.7621606768      -11.4431471492  SOLV      3431            0.0000000000
     10414      3443  TIP3      OH2            10.2098750248       26.0124206768       -4.8947471492  SOLV      3432            0.0000000000
     10415      3443  TIP3      H1              9.3744050248       26.4663706768       -4.7845071492  SOLV      3432            0.0000000000
     10416      3443  TIP3      H2             10.7339350248       26.2882706768       -4.1427571492  SOLV      3432            0.0000000000
     10417      3444  TIP3      OH2            17.9040250248       31.3580106768       -4.4233471492  SOLV      3433            0.0000000000
     10418      3444  TIP3      H1             18.5459050248       31.8146406768       -4.9671271492  SOLV      3433            0.0000000000
     10419      3444  TIP3      H2             17.0737150248       31.4712506768       -4.8859371492  SOLV      3433            0.0000000000
     10420      3445  TIP3      OH2            14.6518150248       25.0391806768      -15.0108471492  SOLV      3434            0.0000000000
     10421      3445  TIP3      H1             13.7132350248       25.1507406768      -15.1619671492  SOLV      3434            0.0000000000
     10422      3445  TIP3      H2             14.9490250248       25.8958706768      -14.7042771492  SOLV      3434            0.0000000000
     10423      3446  TIP3      OH2            15.3701650248       26.9064506768      -13.3501071492  SOLV      3435            0.0000000000
     10424      3446  TIP3      H1             16.2620650248       26.7689506768      -13.0309871492  SOLV      3435            0.0000000000
     10425      3446  TIP3      H2             15.4265250248       27.6970606768      -13.8867571492  SOLV      3435            0.0000000000
     10426      3447  TIP3      OH2             5.8789650248       31.5201906768       -7.4403171492  SOLV      3436            0.0000000000
     10427      3447  TIP3      H1              6.6236850248       31.5177606768       -8.0416671492  SOLV      3436            0.0000000000
     10428      3447  TIP3      H2              5.9566250248       30.6965706768       -6.9588071492  SOLV      3436            0.0000000000
     10429      3448  TIP3      OH2             2.8869350248       29.9808806768       -2.1254671492  SOLV      3437            0.0000000000
     10430      3448  TIP3      H1              3.1097950248       29.5628406768       -1.2937171492  SOLV      3437            0.0000000000
     10431      3448  TIP3      H2              2.2849450248       29.3683806768       -2.5481871492  SOLV      3437            0.0000000000
     10432      3449  TIP3      OH2             9.9034250248       29.4978706768        0.0875028508  SOLV      3438            0.0000000000
     10433      3449  TIP3      H1              9.6075050248       29.3321706768       -0.8075871492  SOLV      3438            0.0000000000
     10434      3449  TIP3      H2             10.8349450248       29.2779006768        0.0768928508  SOLV      3438            0.0000000000
     10435      3450  TIP3      OH2            20.2550350248       27.1158606768      -13.6554371492  SOLV      3439            0.0000000000
     10436      3450  TIP3      H1             19.7006650248       26.7196606768      -14.3276871492  SOLV      3439            0.0000000000
     10437      3450  TIP3      H2             20.3553950248       28.0263806768      -13.9331071492  SOLV      3439            0.0000000000
     10438      3451  TIP3      OH2            15.7105950248       30.7098506768       -6.1690371492  SOLV      3440            0.0000000000
     10439      3451  TIP3      H1             14.7822850248       30.4780406768       -6.1961071492  SOLV      3440            0.0000000000
     10440      3451  TIP3      H2             16.1617050248       29.9328306768       -6.4991571492  SOLV      3440            0.0000000000
     10441      3452  TIP3      OH2             4.0086750248       29.9004206768      -15.4489271492  SOLV      3441            0.0000000000
     10442      3452  TIP3      H1              4.6246650248       30.5271406768      -15.0694471492  SOLV      3441            0.0000000000
     10443      3452  TIP3      H2              3.1469350248       30.2164006768      -15.1772771492  SOLV      3441            0.0000000000
     10444      3453  TIP3      OH2             4.5208850248       24.7341506768       -2.5673271492  SOLV      3442            0.0000000000
     10445      3453  TIP3      H1              3.6281150248       25.0726906768       -2.6349271492  SOLV      3442            0.0000000000
     10446      3453  TIP3      H2              4.4221650248       23.8787606768       -2.1492471492  SOLV      3442            0.0000000000
     10447      3454  TIP3      OH2            16.8086950248       32.5506806768      -13.1433771492  SOLV      3443            0.0000000000
     10448      3454  TIP3      H1             16.5314550248       31.8226106768      -12.5872671492  SOLV      3443            0.0000000000
     10449      3454  TIP3      H2             17.7359950248       32.6698806768      -12.9381171492  SOLV      3443            0.0000000000
     10450      3455  TIP3      OH2             5.4237150248       31.8128006768      -13.9563671492  SOLV      3444            0.0000000000
     10451      3455  TIP3      H1              4.7376450248       32.1650506768      -13.3893971492  SOLV      3444            0.0000000000
     10452      3455  TIP3      H2              5.9465050248       32.5757606768      -14.2029371492  SOLV      3444            0.0000000000
     10453      3456  TIP3      OH2            13.2552250248       24.4751806768       -3.6774671492  SOLV      3445            0.0000000000
     10454      3456  TIP3      H1             13.9540150248       24.5490506768       -3.0274971492  SOLV      3445            0.0000000000
     10455      3456  TIP3      H2             12.8743650248       23.6106806768       -3.5231771492  SOLV      3445            0.0000000000
     10456      3457  TIP3      OH2            14.0397150248       24.1273506768      -12.5802371492  SOLV      3446            0.0000000000
     10457      3457  TIP3      H1             14.2595450248       24.5988906768      -13.3836971492  SOLV      3446            0.0000000000
     10458      3457  TIP3      H2             14.5981150248       24.5216106768      -11.9101771492  SOLV      3446            0.0000000000
     10459      3458  TIP3      OH2            11.2397050248       25.8552306768      -11.7453971492  SOLV      3447            0.0000000000
     10460      3458  TIP3      H1             12.0519650248       26.3595506768      -11.6992271492  SOLV      3447            0.0000000000
     10461      3458  TIP3      H2             10.9950050248       25.7102006768      -10.8314371492  SOLV      3447            0.0000000000
     10462      3459  TIP3      OH2            11.7753450248       26.8415006768       -2.5607371492  SOLV      3448            0.0000000000
     10463      3459  TIP3      H1             11.8943750248       27.4150406768       -1.8036971492  SOLV      3448            0.0000000000
     10464      3459  TIP3      H2             12.4308050248       26.1534406768       -2.4459571492  SOLV      3448            0.0000000000
     10465      3460  TIP3      OH2            12.1233750248       22.9365306768      -10.8072871492  SOLV      3449            0.0000000000
     10466      3460  TIP3      H1             11.7767250248       23.5535906768      -10.1628571492  SOLV      3449            0.0000000000
     10467      3460  TIP3      H2             12.7820650248       23.4371006768      -11.2887371492  SOLV      3449            0.0000000000
     10468      3461  TIP3      OH2             7.7810750248       23.9994706768      -14.1200371492  SOLV      3450            0.0000000000
     10469      3461  TIP3      H1              7.6975550248       24.8877806768      -13.7733971492  SOLV      3450            0.0000000000
     10470      3461  TIP3      H2              8.6711050248       23.7341406768      -13.8883571492  SOLV      3450            0.0000000000
     10471      3462  TIP3      OH2            17.9799250248       24.7485306768       -1.7257671492  SOLV      3451            0.0000000000
     10472      3462  TIP3      H1             17.0635050248       25.0107006768       -1.8133971492  SOLV      3451            0.0000000000
     10473      3462  TIP3      H2             18.3154250248       24.7454306768       -2.6222371492  SOLV      3451            0.0000000000
     10474      3463  TIP3      OH2            16.5820250248       28.4986306768       -7.6300371492  SOLV      3452            0.0000000000
     10475      3463  TIP3      H1             15.7844650248       28.0836506768       -7.9585371492  SOLV      3452            0.0000000000
     10476      3463  TIP3      H2             17.0271350248       27.8080006768       -7.1389871492  SOLV      3452            0.0000000000
     10477      3464  TIP3      OH2             4.3555250248       27.0909906768      -15.9436471492  SOLV      3453            0.0000000000
     10478      3464  TIP3      H1              4.3107850248       28.0303006768      -15.7649471492  SOLV      3453            0.0000000000
     10479      3464  TIP3      H2              3.4678450248       26.8554806768      -16.2134371492  SOLV      3453            0.0000000000
     10480      3465  TIP3      OH2             5.1637250248       21.8726506768       -7.2705471492  SOLV      3454            0.0000000000
     10481      3465  TIP3      H1              4.9347050248       21.9319006768       -8.1980471492  SOLV      3454            0.0000000000
     10482      3465  TIP3      H2              4.7210650248       21.0812006768       -6.9641371492  SOLV      3454            0.0000000000
     10483      3466  TIP3      OH2             3.2893750248       32.2361406768        1.1742628508  SOLV      3455            0.0000000000
     10484      3466  TIP3      H1              3.4334250248       31.3342106768        0.8879328508  SOLV      3455            0.0000000000
     10485      3466  TIP3      H2              2.5171150248       32.5223506768        0.6864928508  SOLV      3455            0.0000000000
     10486      3467  TIP3      OH2             7.6307450248       32.5797106768      -16.6932771492  SOLV      3456            0.0000000000
     10487      3467  TIP3      H1              7.6951550248       31.7856706768      -16.1626371492  SOLV      3456            0.0000000000
     10488      3467  TIP3      H2              8.2836650248       32.4609906768      -17.3830771492  SOLV      3456            0.0000000000
     10489      3468  TIP3      OH2             9.9449850248       32.2059506768        0.6069028508  SOLV      3457            0.0000000000
     10490      3468  TIP3      H1              9.6163650248       32.4767606768       -0.2503571492  SOLV      3457            0.0000000000
     10491      3468  TIP3      H2             10.0968050248       31.2649306768        0.5194028508  SOLV      3457            0.0000000000
     10492      3469  TIP3      OH2            15.6795050248       32.1216806768       -2.0098671492  SOLV      3458            0.0000000000
     10493      3469  TIP3      H1             16.4249850248       32.7100506768       -2.1294671492  SOLV      3458            0.0000000000
     10494      3469  TIP3      H2             14.9221850248       32.7036506768       -1.9465571492  SOLV      3458            0.0000000000
     10495      3470  TIP3      OH2             4.1220250248       29.4364706768        0.5941928508  SOLV      3459            0.0000000000
     10496      3470  TIP3      H1              4.5301450248       28.5791306768        0.4732528508  SOLV      3459            0.0000000000
     10497      3470  TIP3      H2              3.8617850248       29.4506006768        1.5152228508  SOLV      3459            0.0000000000
     10498      3471  TIP3      OH2             8.0690550248       28.4450406768       -2.0315171492  SOLV      3460            0.0000000000
     10499      3471  TIP3      H1              7.4506650248       29.1197006768       -1.7510471492  SOLV      3460            0.0000000000
     10500      3471  TIP3      H2              8.4131750248       28.7664306768       -2.8648971492  SOLV      3460            0.0000000000
     10501      3472  TIP3      OH2             9.8511650248       28.7955106768      -16.1251571492  SOLV      3461            0.0000000000
     10502      3472  TIP3      H1              9.6706650248       28.6406306768      -17.0523271492  SOLV      3461            0.0000000000
     10503      3472  TIP3      H2             10.8012150248       28.9033806768      -16.0803671492  SOLV      3461            0.0000000000
     10504      3473  TIP3      OH2            13.0888750248       30.9165706768        1.2459628508  SOLV      3462            0.0000000000
     10505      3473  TIP3      H1             14.0419950248       31.0004806768        1.2185628508  SOLV      3462            0.0000000000
     10506      3473  TIP3      H2             12.9283350248       30.2047506768        1.8654528508  SOLV      3462            0.0000000000
     10507      3474  TIP3      OH2             8.4084250248       25.8001206768       -0.9492071492  SOLV      3463            0.0000000000
     10508      3474  TIP3      H1              8.5585150248       25.0712506768       -1.5512371492  SOLV      3463            0.0000000000
     10509      3474  TIP3      H2              8.4106650248       26.5772906768       -1.5079871492  SOLV      3463            0.0000000000
     10510      3475  TIP3      OH2             8.8209950248       24.1697006768       -3.4564671492  SOLV      3464            0.0000000000
     10511      3475  TIP3      H1              9.3567450248       24.6213706768       -4.1085371492  SOLV      3464            0.0000000000
     10512      3475  TIP3      H2              7.9689550248       24.0616806768       -3.8790571492  SOLV      3464            0.0000000000
     10513      3476  TIP3      OH2            10.4028350248       29.6093206768       -3.2169471492  SOLV      3465            0.0000000000
     10514      3476  TIP3      H1             11.1533150248       29.4530706768       -3.7901671492  SOLV      3465            0.0000000000
     10515      3476  TIP3      H2             10.0636650248       30.4609806768       -3.4923971492  SOLV      3465            0.0000000000
     10516      3477  TIP3      OH2            14.8184550248       27.4245006768        1.8115828508  SOLV      3466            0.0000000000
     10517      3477  TIP3      H1             15.0105850248       26.4934406768        1.7000328508  SOLV      3466            0.0000000000
     10518      3477  TIP3      H2             15.6760850248       27.8494506768        1.8011228508  SOLV      3466            0.0000000000
     10519      3478  TIP3      OH2            16.1351750248       30.2130206768       -0.1111471492  SOLV      3467            0.0000000000
     10520      3478  TIP3      H1             15.8536750248       30.9224806768       -0.6887671492  SOLV      3467            0.0000000000
     10521      3478  TIP3      H2             17.0776050248       30.1403206768       -0.2620271492  SOLV      3467            0.0000000000
     10522      3479  TIP3      OH2             6.8870550248       26.9984706768        0.9623528508  SOLV      3468            0.0000000000
     10523      3479  TIP3      H1              6.1199550248       26.4659506768        0.7521128508  SOLV      3468            0.0000000000
     10524      3479  TIP3      H2              7.5659550248       26.6885106768        0.3629828508  SOLV      3468            0.0000000000
     10525      3480  TIP3      OH2             9.6265450248       21.6262706768       -3.0251071492  SOLV      3469            0.0000000000
     10526      3480  TIP3      H1              9.5285050248       22.5725906768       -3.1304871492  SOLV      3469            0.0000000000
     10527      3480  TIP3      H2              8.8841650248       21.2536506768       -3.5007571492  SOLV      3469            0.0000000000
     10528      3481  TIP3      OH2            10.8905950248       25.9478106768        0.5387328508  SOLV      3470            0.0000000000
     10529      3481  TIP3      H1             10.6551350248       25.7284806768        1.4402228508  SOLV      3470            0.0000000000
     10530      3481  TIP3      H2             10.1072850248       25.7409306768        0.0289828508  SOLV      3470            0.0000000000
     10531      3482  TIP3      OH2            13.6062550248       25.0751606768       -0.3859171492  SOLV      3471            0.0000000000
     10532      3482  TIP3      H1             12.6587950248       25.1071306768       -0.2535871492  SOLV      3471            0.0000000000
     10533      3482  TIP3      H2             13.9189250248       24.4498706768        0.2679028508  SOLV      3471            0.0000000000
     10534      3483  TIP3      OH2            15.2404050248       23.7092706768        1.6192728508  SOLV      3472            0.0000000000
     10535      3483  TIP3      H1             15.1435850248       22.7570006768        1.6134628508  SOLV      3472            0.0000000000
     10536      3483  TIP3      H2             14.9187150248       23.9779506768        2.4798228508  SOLV      3472            0.0000000000
     10537      3484  TIP3      OH2             5.0673350248       24.9188506768        0.6668228508  SOLV      3473            0.0000000000
     10538      3484  TIP3      H1              5.2790750248       24.2124606768        0.0565728508  SOLV      3473            0.0000000000
     10539      3484  TIP3      H2              4.9560850248       24.4814506768        1.5109428508  SOLV      3473            0.0000000000
     10540      3485  TIP3      OH2             9.8483550248       20.9200106768       -0.3538271492  SOLV      3474            0.0000000000
     10541      3485  TIP3      H1             10.5601950248       20.2802306768       -0.3679171492  SOLV      3474            0.0000000000
     10542      3485  TIP3      H2              9.7473950248       21.1868406768       -1.2675171492  SOLV      3474            0.0000000000
     10543      3486  TIP3      OH2            10.2021050248       22.6028506768        1.6998028508  SOLV      3475            0.0000000000
     10544      3486  TIP3      H1             10.0703250248       22.1272306768        0.8796528508  SOLV      3475            0.0000000000
     10545      3486  TIP3      H2              9.6028450248       23.3472106768        1.6445128508  SOLV      3475            0.0000000000
     10546      3487  TIP3      OH2            19.6992750248       32.0187406768      -12.7043071492  SOLV      3476            0.0000000000
     10547      3487  TIP3      H1             20.5494150248       32.4398306768      -12.5771471492  SOLV      3476            0.0000000000
     10548      3487  TIP3      H2             19.7047850248       31.2787506768      -12.0971671492  SOLV      3476            0.0000000000
     10549      3488  TIP3      OH2            20.0938350248       30.0724806768      -10.8807371492  SOLV      3477            0.0000000000
     10550      3488  TIP3      H1             19.3672950248       29.5927406768      -10.4829771492  SOLV      3477            0.0000000000
     10551      3488  TIP3      H2             20.6751650248       30.2779506768      -10.1485771492  SOLV      3477            0.0000000000
     10552      3489  TIP3      OH2            20.3621450248       29.9733306768      -14.4896071492  SOLV      3478            0.0000000000
     10553      3489  TIP3      H1             19.8402550248       30.3297406768      -15.2085171492  SOLV      3478            0.0000000000
     10554      3489  TIP3      H2             20.3290650248       30.6481106768      -13.8115171492  SOLV      3478            0.0000000000
     10555      3490  TIP3      OH2            18.7110450248       27.2128906768      -15.9388971492  SOLV      3479            0.0000000000
     10556      3490  TIP3      H1             18.8074850248       27.8795906768      -16.6189271492  SOLV      3479            0.0000000000
     10557      3490  TIP3      H2             18.5710050248       26.3975206768      -16.4203471492  SOLV      3479            0.0000000000
     10558      3491  TIP3      OH2            17.8805150248       28.5931306768      -10.3178671492  SOLV      3480            0.0000000000
     10559      3491  TIP3      H1             17.7303950248       27.6479906768      -10.3380871492  SOLV      3480            0.0000000000
     10560      3491  TIP3      H2             17.5269650248       28.8742706768       -9.4739571492  SOLV      3480            0.0000000000
     10561      3492  TIP3      OH2             2.9157550248       30.6713506768       -6.3074871492  SOLV      3481            0.0000000000
     10562      3492  TIP3      H1              3.1000450248       30.5895206768       -7.2431971492  SOLV      3481            0.0000000000
     10563      3492  TIP3      H2              3.7650450248       30.5470506768       -5.8838471492  SOLV      3481            0.0000000000
     10564      3493  TIP3      OH2            18.7368050248       30.5634606768       -0.6790371492  SOLV      3482            0.0000000000
     10565      3493  TIP3      H1             19.3195350248       29.8286906768       -0.4873171492  SOLV      3482            0.0000000000
     10566      3493  TIP3      H2             19.3007350248       31.3354906768       -0.6324571492  SOLV      3482            0.0000000000
     10567      3494  TIP3      OH2            20.2335150248       28.4660406768        0.0055028508  SOLV      3483            0.0000000000
     10568      3494  TIP3      H1             19.3701850248       28.0872506768       -0.1600271492  SOLV      3483            0.0000000000
     10569      3494  TIP3      H2             20.8378850248       27.7275206768       -0.0689171492  SOLV      3483            0.0000000000
     10570      3495  TIP3      OH2            17.9584250248       24.6208706768      -16.8213471492  SOLV      3484            0.0000000000
     10571      3495  TIP3      H1             18.5690050248       24.2495506768      -16.1845271492  SOLV      3484            0.0000000000
     10572      3495  TIP3      H2             17.1215750248       24.1995606768      -16.6253471492  SOLV      3484            0.0000000000
     10573      3496  TIP3      OH2            17.5909950248       26.1757106768      -11.8553571492  SOLV      3485            0.0000000000
     10574      3496  TIP3      H1             17.8707050248       25.2687506768      -11.7311871492  SOLV      3485            0.0000000000
     10575      3496  TIP3      H2             18.3501650248       26.6098606768      -12.2444371492  SOLV      3485            0.0000000000
     10576      3497  TIP3      OH2            18.2028250248       26.7574506768       -6.4194671492  SOLV      3486            0.0000000000
     10577      3497  TIP3      H1             19.1356250248       26.9694406768       -6.4538671492  SOLV      3486            0.0000000000
     10578      3497  TIP3      H2             17.9675750248       26.8586606768       -5.4971671492  SOLV      3486            0.0000000000
     10579      3498  TIP3      OH2            18.2320150248       27.4939806768       -3.6435271492  SOLV      3487            0.0000000000
     10580      3498  TIP3      H1             17.3891450248       27.7620206768       -3.2775471492  SOLV      3487            0.0000000000
     10581      3498  TIP3      H2             18.6744450248       28.3161706768       -3.8544171492  SOLV      3487            0.0000000000
     10582      3499  TIP3      OH2             2.5132350248       25.9418506768       -0.1666071492  SOLV      3488            0.0000000000
     10583      3499  TIP3      H1              3.4327250248       25.8196806768        0.0697028508  SOLV      3488            0.0000000000
     10584      3499  TIP3      H2              2.0636850248       25.1918206768        0.2227428508  SOLV      3488            0.0000000000
     10585      3500  TIP3      OH2            20.5151750248       21.4740006768        1.7099728508  SOLV      3489            0.0000000000
     10586      3500  TIP3      H1             20.8648750248       20.8203506768        1.1044428508  SOLV      3489            0.0000000000
     10587      3500  TIP3      H2             20.6621250248       22.3114106768        1.2702328508  SOLV      3489            0.0000000000
     10588      3501  TIP3      OH2            18.2044750248       23.4386406768      -11.8071571492  SOLV      3490            0.0000000000
     10589      3501  TIP3      H1             18.3869750248       22.9897906768      -10.9816571492  SOLV      3490            0.0000000000
     10590      3501  TIP3      H2             17.6047650248       22.8540806768      -12.2706971492  SOLV      3490            0.0000000000
     10591      3502  TIP3      OH2             3.7344850248       24.2540106768       -7.2753171492  SOLV      3491            0.0000000000
     10592      3502  TIP3      H1              4.1796450248       23.4622606768       -6.9733471492  SOLV      3491            0.0000000000
     10593      3502  TIP3      H2              4.2007850248       24.9705306768       -6.8447571492  SOLV      3491            0.0000000000
     10594      3503  TIP3      OH2             2.0385150248       27.2533106768       -6.2062971492  SOLV      3492            0.0000000000
     10595      3503  TIP3      H1              2.5304950248       27.0323606768       -6.9970971492  SOLV      3492            0.0000000000
     10596      3503  TIP3      H2              2.4006050248       28.0936506768       -5.9253471492  SOLV      3492            0.0000000000
     10597      3504  TIP3      OH2            20.0348950248       23.5834606768        0.0591028508  SOLV      3493            0.0000000000
     10598      3504  TIP3      H1             19.1174650248       23.8541706768        0.0234528508  SOLV      3493            0.0000000000
     10599      3504  TIP3      H2             20.1578350248       23.0483006768       -0.7249271492  SOLV      3493            0.0000000000
     10600      3505  TIP3      OH2            20.0710950248       23.5064506768      -15.2791271492  SOLV      3494            0.0000000000
     10601      3505  TIP3      H1             20.4833550248       22.7850206768      -15.7543271492  SOLV      3494            0.0000000000
     10602      3505  TIP3      H2             20.7527450248       24.1759106768      -15.2206971492  SOLV      3494            0.0000000000
     10603      3506  TIP3      OH2             2.3521650248       23.5112206768      -12.1520571492  SOLV      3495            0.0000000000
     10604      3506  TIP3      H1              1.4270050248       23.7198806768      -12.2815071492  SOLV      3495            0.0000000000
     10605      3506  TIP3      H2              2.8061550248       23.9953006768      -12.8418271492  SOLV      3495            0.0000000000
     10606      3507  TIP3      OH2             2.3157050248       22.2491206768       -3.8078071492  SOLV      3496            0.0000000000
     10607      3507  TIP3      H1              1.6507550248       22.0031506768       -3.1647171492  SOLV      3496            0.0000000000
     10608      3507  TIP3      H2              1.8728350248       22.8711606768       -4.3850071492  SOLV      3496            0.0000000000
     10609      3508  TIP3      OH2            19.0354850248       21.6730906768       -2.1218171492  SOLV      3497            0.0000000000
     10610      3508  TIP3      H1             18.2228350248       21.9981206768       -2.5093471492  SOLV      3497            0.0000000000
     10611      3508  TIP3      H2             19.2683350248       20.9129406768       -2.6549071492  SOLV      3497            0.0000000000
     10612      3509  TIP3      OH2            12.4653350248       23.1221506768       -7.7989971492  SOLV      3498            0.0000000000
     10613      3509  TIP3      H1             11.7910150248       22.4927106768       -7.5434171492  SOLV      3498            0.0000000000
     10614      3509  TIP3      H2             13.0292550248       22.6380406768       -8.4022071492  SOLV      3498            0.0000000000
     10615      3510  TIP3      OH2            17.6080550248       21.2295506768       -7.6862871492  SOLV      3499            0.0000000000
     10616      3510  TIP3      H1             18.2118150248       21.7770906768       -8.1881871492  SOLV      3499            0.0000000000
     10617      3510  TIP3      H2             16.7382550248       21.5485906768       -7.9268771492  SOLV      3499            0.0000000000
     10618      3511  TIP3      OH2            19.3350950248       22.3684206768       -9.3531971492  SOLV      3500            0.0000000000
     10619      3511  TIP3      H1             19.9468450248       21.8539906768       -9.8798371492  SOLV      3500            0.0000000000
     10620      3511  TIP3      H2             19.7174350248       23.2456306768       -9.3297571492  SOLV      3500            0.0000000000
     10621      3512  TIP3      OH2             4.7920850248       21.7561806768       -9.9770071492  SOLV      3501            0.0000000000
     10622      3512  TIP3      H1              4.0150650248       21.5216706768      -10.4844171492  SOLV      3501            0.0000000000
     10623      3512  TIP3      H2              5.3224450248       20.9593906768       -9.9682071492  SOLV      3501            0.0000000000
     10624      3513  TIP3      OH2             3.6284250248       21.5539906768      -14.1733971492  SOLV      3502            0.0000000000
     10625      3513  TIP3      H1              4.0674950248       22.1650406768      -14.7650471492  SOLV      3502            0.0000000000
     10626      3513  TIP3      H2              2.9946650248       22.0924006768      -13.6993971492  SOLV      3502            0.0000000000
     10627      3514  TIP3      OH2             9.3713450248       21.6828906768      -10.1636971492  SOLV      3503            0.0000000000
     10628      3514  TIP3      H1             10.2456850248       22.0713206768      -10.1932671492  SOLV      3503            0.0000000000
     10629      3514  TIP3      H2              9.2354250248       21.4676706768       -9.2409771492  SOLV      3503            0.0000000000
     10630      3515  TIP3      OH2            14.9281850248       21.7128706768       -8.5145271492  SOLV      3504            0.0000000000
     10631      3515  TIP3      H1             15.0043450248       21.8080306768       -9.4639271492  SOLV      3504            0.0000000000
     10632      3515  TIP3      H2             14.6531050248       20.8051606768       -8.3856171492  SOLV      3504            0.0000000000
     10633      3516  TIP3      OH2            16.2814450248       21.7386506768      -12.8220271492  SOLV      3505            0.0000000000
     10634      3516  TIP3      H1             15.5785550248       22.3535706768      -13.0318871492  SOLV      3505            0.0000000000
     10635      3516  TIP3      H2             15.8365850248       20.9013206768      -12.6909371492  SOLV      3505            0.0000000000
     10636      3517  TIP3      OH2             5.4893350248       23.4701406768      -15.7309871492  SOLV      3506            0.0000000000
     10637      3517  TIP3      H1              5.9806750248       22.8403806768      -16.2584371492  SOLV      3506            0.0000000000
     10638      3517  TIP3      H2              6.1129650248       23.7660806768      -15.0678671492  SOLV      3506            0.0000000000
     10639      3518  TIP3      OH2            10.5153450248       23.7632906768      -13.2739371492  SOLV      3507            0.0000000000
     10640      3518  TIP3      H1             10.6934750248       23.1166106768      -12.5910771492  SOLV      3507            0.0000000000
     10641      3518  TIP3      H2             10.4619650248       24.5970606768      -12.8068271492  SOLV      3507            0.0000000000
     10642      3519  TIP3      OH2             4.7498850248       22.2703706768       -0.4593871492  SOLV      3508            0.0000000000
     10643      3519  TIP3      H1              4.3837050248       21.5046306768       -0.0169171492  SOLV      3508            0.0000000000
     10644      3519  TIP3      H2              5.6627350248       22.2993906768       -0.1728771492  SOLV      3508            0.0000000000
     10645      3520  TIP3      OH2             6.7229650248       21.6208106768        1.0763228508  SOLV      3509            0.0000000000
     10646      3520  TIP3      H1              7.6213250248       21.3468306768        0.8916628508  SOLV      3509            0.0000000000
     10647      3520  TIP3      H2              6.3362750248       20.8784106768        1.5405828508  SOLV      3509            0.0000000000
     10648      3521  TIP3      OH2            15.1441950248       20.9533406768        1.2586028508  SOLV      3510            0.0000000000
     10649      3521  TIP3      H1             15.2209150248       20.5274106768        2.1123728508  SOLV      3510            0.0000000000
     10650      3521  TIP3      H2             16.0378550248       20.9668106768        0.9159528508  SOLV      3510            0.0000000000
     10651      3522  TIP3      OH2            24.0279750248       29.7816906768       -5.0064471492  SOLV      3511            0.0000000000
     10652      3522  TIP3      H1             24.0691850248       29.1560206768       -4.2832071492  SOLV      3511            0.0000000000
     10653      3522  TIP3      H2             24.7307450248       30.4055506768       -4.8244071492  SOLV      3511            0.0000000000
     10654      3523  TIP3      OH2            21.5613350248       27.8918406768      -11.0786571492  SOLV      3512            0.0000000000
     10655      3523  TIP3      H1             21.1136750248       28.7377106768      -11.0970071492  SOLV      3512            0.0000000000
     10656      3523  TIP3      H2             21.0004550248       27.3122606768      -11.5941471492  SOLV      3512            0.0000000000
     10657      3524  TIP3      OH2            22.2719450248       30.0538006768       -8.9528571492  SOLV      3513            0.0000000000
     10658      3524  TIP3      H1             22.4852950248       29.2839606768       -8.4255571492  SOLV      3513            0.0000000000
     10659      3524  TIP3      H2             23.0097050248       30.1434706768       -9.5560971492  SOLV      3513            0.0000000000
     10660      3525  TIP3      OH2            26.3444450248       25.0955006768       -8.5933771492  SOLV      3514            0.0000000000
     10661      3525  TIP3      H1             26.3875550248       25.9553506768       -9.0117471492  SOLV      3514            0.0000000000
     10662      3525  TIP3      H2             25.8868550248       24.5429706768       -9.2270571492  SOLV      3514            0.0000000000
     10663      3526  TIP3      OH2            22.9645950248       27.4920806768       -7.8312371492  SOLV      3515            0.0000000000
     10664      3526  TIP3      H1             23.6182550248       26.9422506768       -7.3992271492  SOLV      3515            0.0000000000
     10665      3526  TIP3      H2             22.9885250248       27.2179806768       -8.7480371492  SOLV      3515            0.0000000000
     10666      3527  TIP3      OH2            25.1546350248       24.0133406768       -4.5192971492  SOLV      3516            0.0000000000
     10667      3527  TIP3      H1             24.9358050248       24.5434006768       -5.2856971492  SOLV      3516            0.0000000000
     10668      3527  TIP3      H2             24.4867250248       24.2398906768       -3.8721571492  SOLV      3516            0.0000000000
     10669      3528  TIP3      OH2            24.7483650248       25.9055206768       -6.5670771492  SOLV      3517            0.0000000000
     10670      3528  TIP3      H1             25.3619950248       26.5382806768       -6.1938371492  SOLV      3517            0.0000000000
     10671      3528  TIP3      H2             25.2604350248       25.4330206768       -7.2233871492  SOLV      3517            0.0000000000
     10672      3529  TIP3      OH2            29.1811050248       21.3188506768       -7.0668071492  SOLV      3518            0.0000000000
     10673      3529  TIP3      H1             29.0635250248       20.3704506768       -7.1209771492  SOLV      3518            0.0000000000
     10674      3529  TIP3      H2             28.3261150248       21.6514606768       -6.7936971492  SOLV      3518            0.0000000000
     10675      3530  TIP3      OH2            26.4498650248       22.2223006768       -6.2891771492  SOLV      3519            0.0000000000
     10676      3530  TIP3      H1             25.5882350248       22.1351206768       -6.6968871492  SOLV      3519            0.0000000000
     10677      3530  TIP3      H2             26.4274350248       23.0783106768       -5.8614171492  SOLV      3519            0.0000000000
     10678      3531  TIP3      OH2            26.5408750248       27.1877506768       -5.1941571492  SOLV      3520            0.0000000000
     10679      3531  TIP3      H1             25.8990850248       27.1474806768       -4.4851471492  SOLV      3520            0.0000000000
     10680      3531  TIP3      H2             26.5780750248       28.1142206768       -5.4318571492  SOLV      3520            0.0000000000
     10681      3532  TIP3      OH2            26.5377850248       27.4087606768      -10.2821571492  SOLV      3521            0.0000000000
     10682      3532  TIP3      H1             25.6450750248       27.0683706768      -10.3407771492  SOLV      3521            0.0000000000
     10683      3532  TIP3      H2             26.9884450248       27.0318506768      -11.0378371492  SOLV      3521            0.0000000000
     10684      3533  TIP3      OH2            24.2909250248       27.5081006768       -3.3269571492  SOLV      3522            0.0000000000
     10685      3533  TIP3      H1             24.2528650248       27.9082606768       -2.4582471492  SOLV      3522            0.0000000000
     10686      3533  TIP3      H2             23.8000350248       26.6913406768       -3.2366671492  SOLV      3522            0.0000000000
     10687      3534  TIP3      OH2            20.8990050248       24.6242806768       -9.4764871492  SOLV      3523            0.0000000000
     10688      3534  TIP3      H1             21.5297750248       24.5954906768       -8.7570971492  SOLV      3523            0.0000000000
     10689      3534  TIP3      H2             21.3484350248       24.1991506768      -10.2068971492  SOLV      3523            0.0000000000
     10690      3535  TIP3      OH2            22.1732150248       25.3704806768      -14.0524471492  SOLV      3524            0.0000000000
     10691      3535  TIP3      H1             22.6473850248       25.9614706768      -14.6373571492  SOLV      3524            0.0000000000
     10692      3535  TIP3      H2             21.4558550248       25.9007706768      -13.7054371492  SOLV      3524            0.0000000000
     10693      3536  TIP3      OH2            23.9476550248       26.4651406768      -10.3689871492  SOLV      3525            0.0000000000
     10694      3536  TIP3      H1             23.0584550248       26.5646906768      -10.7090271492  SOLV      3525            0.0000000000
     10695      3536  TIP3      H2             24.2441450248       25.6234406768      -10.7151971492  SOLV      3525            0.0000000000
     10696      3537  TIP3      OH2            25.4412550248       23.7604206768      -10.8903071492  SOLV      3526            0.0000000000
     10697      3537  TIP3      H1             25.1242050248       22.8579506768      -10.9257671492  SOLV      3526            0.0000000000
     10698      3537  TIP3      H2             26.2226650248       23.7621606768      -11.4431471492  SOLV      3526            0.0000000000
     10699      3538  TIP3      OH2            21.7429350248       29.9808806768       -2.1254671492  SOLV      3527            0.0000000000
     10700      3538  TIP3      H1             21.9657950248       29.5628406768       -1.2937171492  SOLV      3527            0.0000000000
     10701      3538  TIP3      H2             21.1409450248       29.3683806768       -2.5481871492  SOLV      3527            0.0000000000
     10702      3539  TIP3      OH2            23.3768850248       24.7341506768       -2.5673271492  SOLV      3528            0.0000000000
     10703      3539  TIP3      H1             22.4841150248       25.0726906768       -2.6349271492  SOLV      3528            0.0000000000
     10704      3539  TIP3      H2             23.2781650248       23.8787606768       -2.1492471492  SOLV      3528            0.0000000000
     10705      3540  TIP3      OH2            26.6370750248       23.9994706768      -14.1200371492  SOLV      3529            0.0000000000
     10706      3540  TIP3      H1             26.5535550248       24.8877806768      -13.7733971492  SOLV      3529            0.0000000000
     10707      3540  TIP3      H2             27.5271050248       23.7341406768      -13.8883571492  SOLV      3529            0.0000000000
     10708      3541  TIP3      OH2            24.0197250248       21.8726506768       -7.2705471492  SOLV      3530            0.0000000000
     10709      3541  TIP3      H1             23.7907050248       21.9319006768       -8.1980471492  SOLV      3530            0.0000000000
     10710      3541  TIP3      H2             23.5770650248       21.0812006768       -6.9641371492  SOLV      3530            0.0000000000
     10711      3542  TIP3      OH2            22.1453750248       32.2361406768        1.1742628508  SOLV      3531            0.0000000000
     10712      3542  TIP3      H1             22.2894250248       31.3342106768        0.8879328508  SOLV      3531            0.0000000000
     10713      3542  TIP3      H2             21.3731150248       32.5223506768        0.6864928508  SOLV      3531            0.0000000000
     10714      3543  TIP3      OH2            22.9780250248       29.4364706768        0.5941928508  SOLV      3532            0.0000000000
     10715      3543  TIP3      H1             23.3861450248       28.5791306768        0.4732528508  SOLV      3532            0.0000000000
     10716      3543  TIP3      H2             22.7177850248       29.4506006768        1.5152228508  SOLV      3532            0.0000000000
     10717      3544  TIP3      OH2            27.2644250248       25.8001206768       -0.9492071492  SOLV      3533            0.0000000000
     10718      3544  TIP3      H1             27.4145150248       25.0712506768       -1.5512371492  SOLV      3533            0.0000000000
     10719      3544  TIP3      H2             27.2666650248       26.5772906768       -1.5079871492  SOLV      3533            0.0000000000
     10720      3545  TIP3      OH2            27.6769950248       24.1697006768       -3.4564671492  SOLV      3534            0.0000000000
     10721      3545  TIP3      H1             28.2127450248       24.6213706768       -4.1085371492  SOLV      3534            0.0000000000
     10722      3545  TIP3      H2             26.8249550248       24.0616806768       -3.8790571492  SOLV      3534            0.0000000000
     10723      3546  TIP3      OH2            25.7430550248       26.9984706768        0.9623528508  SOLV      3535            0.0000000000
     10724      3546  TIP3      H1             24.9759550248       26.4659506768        0.7521128508  SOLV      3535            0.0000000000
     10725      3546  TIP3      H2             26.4219550248       26.6885106768        0.3629828508  SOLV      3535            0.0000000000
     10726      3547  TIP3      OH2            28.4825450248       21.6262706768       -3.0251071492  SOLV      3536            0.0000000000
     10727      3547  TIP3      H1             28.3845050248       22.5725906768       -3.1304871492  SOLV      3536            0.0000000000
     10728      3547  TIP3      H2             27.7401650248       21.2536506768       -3.5007571492  SOLV      3536            0.0000000000
     10729      3548  TIP3      OH2            23.9233350248       24.9188506768        0.6668228508  SOLV      3537            0.0000000000
     10730      3548  TIP3      H1             24.1350750248       24.2124606768        0.0565728508  SOLV      3537            0.0000000000
     10731      3548  TIP3      H2             23.8120850248       24.4814506768        1.5109428508  SOLV      3537            0.0000000000
     10732      3549  TIP3      OH2            28.7043550248       20.9200106768       -0.3538271492  SOLV      3538            0.0000000000
     10733      3549  TIP3      H1             29.4161950248       20.2802306768       -0.3679171492  SOLV      3538            0.0000000000
     10734      3549  TIP3      H2             28.6033950248       21.1868406768       -1.2675171492  SOLV      3538            0.0000000000
     10735      3550  TIP3      OH2            29.0581050248       22.6028506768        1.6998028508  SOLV      3539            0.0000000000
     10736      3550  TIP3      H1             28.9263250248       22.1272306768        0.8796528508  SOLV      3539            0.0000000000
     10737      3550  TIP3      H2             28.4588450248       23.3472106768        1.6445128508  SOLV      3539            0.0000000000
     10738      3551  TIP3      OH2            21.3692350248       25.9418506768       -0.1666071492  SOLV      3540            0.0000000000
     10739      3551  TIP3      H1             22.2887250248       25.8196806768        0.0697028508  SOLV      3540            0.0000000000
     10740      3551  TIP3      H2             20.9196850248       25.1918206768        0.2227428508  SOLV      3540            0.0000000000
     10741      3552  TIP3      OH2            22.5904850248       24.2540106768       -7.2753171492  SOLV      3541            0.0000000000
     10742      3552  TIP3      H1             23.0356450248       23.4622606768       -6.9733471492  SOLV      3541            0.0000000000
     10743      3552  TIP3      H2             23.0567850248       24.9705306768       -6.8447571492  SOLV      3541            0.0000000000
     10744      3553  TIP3      OH2            20.8945150248       27.2533106768       -6.2062971492  SOLV      3542            0.0000000000
     10745      3553  TIP3      H1             21.3864950248       27.0323606768       -6.9970971492  SOLV      3542            0.0000000000
     10746      3553  TIP3      H2             21.2566050248       28.0936506768       -5.9253471492  SOLV      3542            0.0000000000
     10747      3554  TIP3      OH2            21.2081650248       23.5112206768      -12.1520571492  SOLV      3543            0.0000000000
     10748      3554  TIP3      H1             20.2830050248       23.7198806768      -12.2815071492  SOLV      3543            0.0000000000
     10749      3554  TIP3      H2             21.6621550248       23.9953006768      -12.8418271492  SOLV      3543            0.0000000000
     10750      3555  TIP3      OH2            21.1717050248       22.2491206768       -3.8078071492  SOLV      3544            0.0000000000
     10751      3555  TIP3      H1             20.5067550248       22.0031506768       -3.1647171492  SOLV      3544            0.0000000000
     10752      3555  TIP3      H2             20.7288350248       22.8711606768       -4.3850071492  SOLV      3544            0.0000000000
     10753      3556  TIP3      OH2            23.6480850248       21.7561806768       -9.9770071492  SOLV      3545            0.0000000000
     10754      3556  TIP3      H1             22.8710650248       21.5216706768      -10.4844171492  SOLV      3545            0.0000000000
     10755      3556  TIP3      H2             24.1784450248       20.9593906768       -9.9682071492  SOLV      3545            0.0000000000
     10756      3557  TIP3      OH2            22.4844250248       21.5539906768      -14.1733971492  SOLV      3546            0.0000000000
     10757      3557  TIP3      H1             22.9234950248       22.1650406768      -14.7650471492  SOLV      3546            0.0000000000
     10758      3557  TIP3      H2             21.8506650248       22.0924006768      -13.6993971492  SOLV      3546            0.0000000000
     10759      3558  TIP3      OH2            28.2273450248       21.6828906768      -10.1636971492  SOLV      3547            0.0000000000
     10760      3558  TIP3      H1             29.1016850248       22.0713206768      -10.1932671492  SOLV      3547            0.0000000000
     10761      3558  TIP3      H2             28.0914250248       21.4676706768       -9.2409771492  SOLV      3547            0.0000000000
     10762      3559  TIP3      OH2            24.3453350248       23.4701406768      -15.7309871492  SOLV      3548            0.0000000000
     10763      3559  TIP3      H1             24.8366750248       22.8403806768      -16.2584371492  SOLV      3548            0.0000000000
     10764      3559  TIP3      H2             24.9689650248       23.7660806768      -15.0678671492  SOLV      3548            0.0000000000
     10765      3560  TIP3      OH2            23.6058850248       22.2703706768       -0.4593871492  SOLV      3549            0.0000000000
     10766      3560  TIP3      H1             23.2397050248       21.5046306768       -0.0169171492  SOLV      3549            0.0000000000
     10767      3560  TIP3      H2             24.5187350248       22.2993906768       -0.1728771492  SOLV      3549            0.0000000000
     10768      3561  TIP3      OH2            25.5789650248       21.6208106768        1.0763228508  SOLV      3550            0.0000000000
     10769      3561  TIP3      H1             26.4773250248       21.3468306768        0.8916628508  SOLV      3550            0.0000000000
     10770      3561  TIP3      H2             25.1922750248       20.8784106768        1.5405828508  SOLV      3550            0.0000000000
     10771      3562  TIP3      OH2           -23.8416549752      -25.6555893232        8.8377428508  SOLV      3551            0.0000000000
     10772      3562  TIP3      H1            -23.7525449752      -24.7117693232        8.7054528508  SOLV      3551            0.0000000000
     10773      3562  TIP3      H2            -24.4798949752      -25.9309493232        8.1796828508  SOLV      3551            0.0000000000
     10774      3563  TIP3      OH2           -24.9085249752      -26.4005193232       12.2565628508  SOLV      3552            0.0000000000
     10775      3563  TIP3      H1            -24.9467749752      -27.0468893232       12.9615228508  SOLV      3552            0.0000000000
     10776      3563  TIP3      H2            -25.2308749752      -26.8670793232       11.4854328508  SOLV      3552            0.0000000000
     10777      3564  TIP3      OH2           -21.2025049752      -23.4614793232       10.5580728508  SOLV      3553            0.0000000000
     10778      3564  TIP3      H1            -21.6432349752      -24.1818793232       11.0086328508  SOLV      3553            0.0000000000
     10779      3564  TIP3      H2            -21.2155349752      -22.7407593232       11.1878428508  SOLV      3553            0.0000000000
     10780      3565  TIP3      OH2           -24.0909549752      -18.3573093232       10.7701128508  SOLV      3554            0.0000000000
     10781      3565  TIP3      H1            -23.4713149752      -19.0338393232       10.4970328508  SOLV      3554            0.0000000000
     10782      3565  TIP3      H2            -24.2992149752      -18.5752293232       11.6786028508  SOLV      3554            0.0000000000
     10783      3566  TIP3      OH2           -26.5190849752      -23.9683793232       12.6626628508  SOLV      3555            0.0000000000
     10784      3566  TIP3      H1            -26.2152949752      -24.6542393232       12.0680728508  SOLV      3555            0.0000000000
     10785      3566  TIP3      H2            -25.7976849752      -23.8495093232       13.2804628508  SOLV      3555            0.0000000000
     10786      3567  TIP3      OH2           -17.8561049752      -32.3668493232       13.5232828508  SOLV      3556            0.0000000000
     10787      3567  TIP3      H1            -17.8068849752      -31.7567293232       14.2591928508  SOLV      3556            0.0000000000
     10788      3567  TIP3      H2            -17.4305949752      -31.9057593232       12.8003928508  SOLV      3556            0.0000000000
     10789      3568  TIP3      OH2           -23.3783849752      -29.5741393232       12.9901428508  SOLV      3557            0.0000000000
     10790      3568  TIP3      H1            -23.2357949752      -30.5204393232       13.0103028508  SOLV      3557            0.0000000000
     10791      3568  TIP3      H2            -23.4844849752      -29.3671593232       12.0616328508  SOLV      3557            0.0000000000
     10792      3569  TIP3      OH2           -22.5012849752      -31.3419393232        8.6634528508  SOLV      3558            0.0000000000
     10793      3569  TIP3      H1            -21.8548549752      -31.6706193232        9.2882128508  SOLV      3558            0.0000000000
     10794      3569  TIP3      H2            -21.9913449752      -30.8240393232        8.0405928508  SOLV      3558            0.0000000000
     10795      3570  TIP3      OH2           -17.4646449752      -30.8889293232       15.7592628508  SOLV      3559            0.0000000000
     10796      3570  TIP3      H1            -18.1531849752      -30.2308593232       15.6639228508  SOLV      3559            0.0000000000
     10797      3570  TIP3      H2            -17.4491849752      -31.0861393232       16.6958028508  SOLV      3559            0.0000000000
     10798      3571  TIP3      OH2           -24.0443849752      -23.0545493232        7.8806128508  SOLV      3560            0.0000000000
     10799      3571  TIP3      H1            -24.3398749752      -23.3773193232        7.0293028508  SOLV      3560            0.0000000000
     10800      3571  TIP3      H2            -24.3686049752      -22.1548793232        7.9218728508  SOLV      3560            0.0000000000
     10801      3572  TIP3      OH2           -20.7374449752      -32.0510093232       10.6440428508  SOLV      3561            0.0000000000
     10802      3572  TIP3      H1            -20.9526449752      -32.8166693232       11.1766428508  SOLV      3561            0.0000000000
     10803      3572  TIP3      H2            -20.0817049752      -31.5785493232       11.1568928508  SOLV      3561            0.0000000000
     10804      3573  TIP3      OH2           -20.6907349752      -21.6224093232       12.9060028508  SOLV      3562            0.0000000000
     10805      3573  TIP3      H1            -21.6323649752      -21.5640193232       13.0676928508  SOLV      3562            0.0000000000
     10806      3573  TIP3      H2            -20.4141249752      -20.7163593232       12.7689728508  SOLV      3562            0.0000000000
     10807      3574  TIP3      OH2           -22.4386149752      -19.8410593232        9.5311628508  SOLV      3563            0.0000000000
     10808      3574  TIP3      H1            -22.0133849752      -20.5482693232        9.0461228508  SOLV      3563            0.0000000000
     10809      3574  TIP3      H2            -22.1216149752      -19.0397893232        9.1143828508  SOLV      3563            0.0000000000
     10810      3575  TIP3      OH2           -21.2789649752      -21.9402093232        8.0398228508  SOLV      3564            0.0000000000
     10811      3575  TIP3      H1            -21.5364849752      -22.6301993232        7.4284128508  SOLV      3564            0.0000000000
     10812      3575  TIP3      H2            -21.2078849752      -22.3830893232        8.8854128508  SOLV      3564            0.0000000000
     10813      3576  TIP3      OH2           -19.5929449752      -23.3735393232       16.5171728508  SOLV      3565            0.0000000000
     10814      3576  TIP3      H1            -19.4533149752      -23.9652893232       15.7778728508  SOLV      3565            0.0000000000
     10815      3576  TIP3      H2            -19.4256649752      -22.5009493232       16.1610528508  SOLV      3565            0.0000000000
     10816      3577  TIP3      OH2           -25.1204049752      -26.4115893232        6.2897728508  SOLV      3566            0.0000000000
     10817      3577  TIP3      H1            -25.8318549752      -25.8766193232        5.9378228508  SOLV      3566            0.0000000000
     10818      3577  TIP3      H2            -24.4294449752      -26.3563793232        5.6296628508  SOLV      3566            0.0000000000
     10819      3578  TIP3      OH2           -25.0664849752      -27.9541593232        3.3282728508  SOLV      3567            0.0000000000
     10820      3578  TIP3      H1            -24.3654949752      -27.9314693232        3.9796728508  SOLV      3567            0.0000000000
     10821      3578  TIP3      H2            -24.7641949752      -28.5821893232        2.6722028508  SOLV      3567            0.0000000000
     10822      3579  TIP3      OH2           -17.7510149752      -27.0337393232       14.5832128508  SOLV      3568            0.0000000000
     10823      3579  TIP3      H1            -18.4036049752      -26.3391793232       14.6723028508  SOLV      3568            0.0000000000
     10824      3579  TIP3      H2            -17.2859849752      -26.8236493232       13.7733728508  SOLV      3568            0.0000000000
     10825      3580  TIP3      OH2           -21.7146349752      -26.2022593232        7.2413628508  SOLV      3569            0.0000000000
     10826      3580  TIP3      H1            -22.4465349752      -25.9738893232        7.8144228508  SOLV      3569            0.0000000000
     10827      3580  TIP3      H2            -21.2674149752      -26.9159893232        7.6961128508  SOLV      3569            0.0000000000
     10828      3581  TIP3      OH2           -28.7025149752      -22.1435793232       11.8050828508  SOLV      3570            0.0000000000
     10829      3581  TIP3      H1            -28.7973849752      -22.7222693232       11.0485428508  SOLV      3570            0.0000000000
     10830      3581  TIP3      H2            -27.9731549752      -22.5150093232       12.3013628508  SOLV      3570            0.0000000000
     10831      3582  TIP3      OH2           -23.3934949752      -21.2998893232       13.4914128508  SOLV      3571            0.0000000000
     10832      3582  TIP3      H1            -23.6338349752      -20.6375793232       14.1393328508  SOLV      3571            0.0000000000
     10833      3582  TIP3      H2            -23.5916749752      -22.1343693232       13.9163728508  SOLV      3571            0.0000000000
     10834      3583  TIP3      OH2           -22.8436849752      -27.0399693232        4.9264828508  SOLV      3572            0.0000000000
     10835      3583  TIP3      H1            -22.2641349752      -26.8899393232        5.6733728508  SOLV      3572            0.0000000000
     10836      3583  TIP3      H2            -22.4296849752      -26.5692293232        4.2031228508  SOLV      3572            0.0000000000
     10837      3584  TIP3      OH2           -25.1171949752      -20.3031193232        8.3617928508  SOLV      3573            0.0000000000
     10838      3584  TIP3      H1            -24.6434349752      -20.0074893232        9.1392128508  SOLV      3573            0.0000000000
     10839      3584  TIP3      H2            -25.6802649752      -19.5649593232        8.1287528508  SOLV      3573            0.0000000000
     10840      3585  TIP3      OH2           -17.9557049752      -20.9236893232        3.1158428508  SOLV      3574            0.0000000000
     10841      3585  TIP3      H1            -17.8823549752      -19.9846693232        3.2863728508  SOLV      3574            0.0000000000
     10842      3585  TIP3      H2            -17.0501949752      -21.2288293232        3.0595728508  SOLV      3574            0.0000000000
     10843      3586  TIP3      OH2           -17.0378649752      -20.6929393232       18.0945128508  SOLV      3575            0.0000000000
     10844      3586  TIP3      H1            -17.0871849752      -21.6481293232       18.0572728508  SOLV      3575            0.0000000000
     10845      3586  TIP3      H2            -17.8646349752      -20.4254093232       18.4958928508  SOLV      3575            0.0000000000
     10846      3587  TIP3      OH2           -25.6448849752      -17.3466493232        6.7767128508  SOLV      3576            0.0000000000
     10847      3587  TIP3      H1            -25.7202849752      -17.4679293232        5.8302328508  SOLV      3576            0.0000000000
     10848      3587  TIP3      H2            -25.6120149752      -16.3973793232        6.8951728508  SOLV      3576            0.0000000000
     10849      3588  TIP3      OH2           -31.9915049752      -18.5579493232        8.5576128508  SOLV      3577            0.0000000000
     10850      3588  TIP3      H1            -31.8394649752      -18.9059093232        9.4362628508  SOLV      3577            0.0000000000
     10851      3588  TIP3      H2            -32.8424649752      -18.9142193232        8.3023328508  SOLV      3577            0.0000000000
     10852      3589  TIP3      OH2           -22.8744749752      -18.2669193232        6.5281728508  SOLV      3578            0.0000000000
     10853      3589  TIP3      H1            -23.8094949752      -18.1667293232        6.7068728508  SOLV      3578            0.0000000000
     10854      3589  TIP3      H2            -22.5942849752      -18.9763193232        7.1064928508  SOLV      3578            0.0000000000
     10855      3590  TIP3      OH2           -21.3663749752      -26.0071393232        2.5562728508  SOLV      3579            0.0000000000
     10856      3590  TIP3      H1            -21.3242949752      -26.2297493232        1.6262728508  SOLV      3579            0.0000000000
     10857      3590  TIP3      H2            -20.5171649752      -25.6084293232        2.7462628508  SOLV      3579            0.0000000000
     10858      3591  TIP3      OH2           -24.4946649752      -28.7432093232        7.3909228508  SOLV      3580            0.0000000000
     10859      3591  TIP3      H1            -24.9036349752      -27.9283493232        7.0994028508  SOLV      3580            0.0000000000
     10860      3591  TIP3      H2            -23.7740449752      -28.8831993232        6.7766328508  SOLV      3580            0.0000000000
     10861      3592  TIP3      OH2           -23.4898949752      -29.2971693232       10.2048928508  SOLV      3581            0.0000000000
     10862      3592  TIP3      H1            -23.6854449752      -28.6914893232        9.4899528508  SOLV      3581            0.0000000000
     10863      3592  TIP3      H2            -23.3086349752      -30.1306493232        9.7705228508  SOLV      3581            0.0000000000
     10864      3593  TIP3      OH2           -19.7559849752      -16.8253193232       19.2011928508  SOLV      3582            0.0000000000
     10865      3593  TIP3      H1            -19.5561149752      -16.4011293232       18.3667228508  SOLV      3582            0.0000000000
     10866      3593  TIP3      H2            -19.1006149752      -16.4814993232       19.8082328508  SOLV      3582            0.0000000000
     10867      3594  TIP3      OH2           -26.9578649752      -24.3428093232        5.6458928508  SOLV      3583            0.0000000000
     10868      3594  TIP3      H1            -27.7027649752      -24.8502793232        5.3236828508  SOLV      3583            0.0000000000
     10869      3594  TIP3      H2            -27.0921449752      -24.2940093232        6.5923728508  SOLV      3583            0.0000000000
     10870      3595  TIP3      OH2           -19.8079749752      -25.2099893232       14.4326528508  SOLV      3584            0.0000000000
     10871      3595  TIP3      H1            -19.1660949752      -24.7533593232       13.8888728508  SOLV      3584            0.0000000000
     10872      3595  TIP3      H2            -20.6382849752      -25.0967493232       13.9700628508  SOLV      3584            0.0000000000
     10873      3596  TIP3      OH2           -23.0601849752      -31.5288193232        3.8451528508  SOLV      3585            0.0000000000
     10874      3596  TIP3      H1            -23.9987649752      -31.4172593232        3.6940328508  SOLV      3585            0.0000000000
     10875      3596  TIP3      H2            -22.7629749752      -30.6721293232        4.1517228508  SOLV      3585            0.0000000000
     10876      3597  TIP3      OH2           -22.3418349752      -29.6615493232        5.5058928508  SOLV      3586            0.0000000000
     10877      3597  TIP3      H1            -21.4499349752      -29.7990493232        5.8250128508  SOLV      3586            0.0000000000
     10878      3597  TIP3      H2            -22.2854749752      -28.8709393232        4.9692428508  SOLV      3586            0.0000000000
     10879      3598  TIP3      OH2           -24.8324549752      -22.8843793232        4.6713528508  SOLV      3587            0.0000000000
     10880      3598  TIP3      H1            -25.1276149752      -22.0575893232        5.0528328508  SOLV      3587            0.0000000000
     10881      3598  TIP3      H2            -25.5354549752      -23.5036893232        4.8674928508  SOLV      3587            0.0000000000
     10882      3599  TIP3      OH2           -23.1882949752      -21.6969293232       16.8333028508  SOLV      3588            0.0000000000
     10883      3599  TIP3      H1            -24.0888649752      -21.5136693232       16.5656928508  SOLV      3588            0.0000000000
     10884      3599  TIP3      H2            -23.1541849752      -21.4379993232       17.7541828508  SOLV      3588            0.0000000000
     10885      3600  TIP3      OH2           -17.4569649752      -29.4521393232        5.2005628508  SOLV      3589            0.0000000000
     10886      3600  TIP3      H1            -18.0113349752      -29.8483393232        4.5283128508  SOLV      3589            0.0000000000
     10887      3600  TIP3      H2            -17.3566049752      -28.5416193232        4.9228928508  SOLV      3589            0.0000000000
     10888      3601  TIP3      OH2           -17.4937649752      -23.6519693232       18.0377128508  SOLV      3590            0.0000000000
     10889      3601  TIP3      H1            -18.3449149752      -23.4135893232       17.6703528508  SOLV      3590            0.0000000000
     10890      3601  TIP3      H2            -16.9034249752      -23.6686493232       17.2844228508  SOLV      3590            0.0000000000
     10891      3602  TIP3      OH2           -19.1617949752      -20.6660993232        5.6657728508  SOLV      3591            0.0000000000
     10892      3602  TIP3      H1            -19.5346849752      -21.4917193232        5.9748328508  SOLV      3591            0.0000000000
     10893      3602  TIP3      H2            -18.8844449752      -20.8491593232        4.7681128508  SOLV      3591            0.0000000000
     10894      3603  TIP3      OH2           -22.0014049752      -25.8581493232       12.6869628508  SOLV      3592            0.0000000000
     10895      3603  TIP3      H1            -22.9297149752      -26.0899593232       12.6598928508  SOLV      3592            0.0000000000
     10896      3603  TIP3      H2            -21.5502949752      -26.6351693232       12.3568428508  SOLV      3592            0.0000000000
     10897      3604  TIP3      OH2           -29.4580949752      -21.5299893232        8.8198328508  SOLV      3593            0.0000000000
     10898      3604  TIP3      H1            -28.9308749752      -20.7565493232        8.6197128508  SOLV      3593            0.0000000000
     10899      3604  TIP3      H2            -30.3382449752      -21.3050693232        8.5182328508  SOLV      3593            0.0000000000
     10900      3605  TIP3      OH2           -28.0308649752      -23.8669993232        8.3962628508  SOLV      3594            0.0000000000
     10901      3605  TIP3      H1            -28.2718649752      -22.9415593232        8.4377928508  SOLV      3594            0.0000000000
     10902      3605  TIP3      H2            -28.7715049752      -24.3258693232        8.7926528508  SOLV      3594            0.0000000000
     10903      3606  TIP3      OH2           -27.5162049752      -19.7176393232       14.7113728508  SOLV      3595            0.0000000000
     10904      3606  TIP3      H1            -27.1537349752      -18.8630793232       14.4778128508  SOLV      3595            0.0000000000
     10905      3606  TIP3      H2            -26.9846849752      -20.0094793232       15.4520028508  SOLV      3595            0.0000000000
     10906      3607  TIP3      OH2           -29.3477849752      -18.8452393232        7.9414828508  SOLV      3596            0.0000000000
     10907      3607  TIP3      H1            -30.2977349752      -18.7394993232        7.9928128508  SOLV      3596            0.0000000000
     10908      3607  TIP3      H2            -28.9959749752      -18.0244993232        8.2862328508  SOLV      3596            0.0000000000
     10909      3608  TIP3      OH2           -23.9721249752      -23.6185693232       14.4119328508  SOLV      3597            0.0000000000
     10910      3608  TIP3      H1            -24.3979949752      -23.8463993232       15.2383328508  SOLV      3597            0.0000000000
     10911      3608  TIP3      H2            -23.3915449752      -24.3573893232       14.2294628508  SOLV      3597            0.0000000000
     10912      3609  TIP3      OH2           -21.7692349752      -22.6895193232        3.4858328508  SOLV      3598            0.0000000000
     10913      3609  TIP3      H1            -21.4159249752      -23.0695393232        4.2901828508  SOLV      3598            0.0000000000
     10914      3609  TIP3      H2            -22.7178849752      -22.7830393232        3.5727628508  SOLV      3598            0.0000000000
     10915      3610  TIP3      OH2           -21.3137049752      -19.0666193232       16.8814128508  SOLV      3599            0.0000000000
     10916      3610  TIP3      H1            -21.9153849752      -19.6223293232       16.3860428508  SOLV      3599            0.0000000000
     10917      3610  TIP3      H2            -21.0323349752      -18.3996393232       16.2551528508  SOLV      3599            0.0000000000
     10918      3611  TIP3      OH2           -17.2657949752      -18.2102693232        3.6868528508  SOLV      3600            0.0000000000
     10919      3611  TIP3      H1            -16.5220049752      -17.6242193232        3.5470128508  SOLV      3600            0.0000000000
     10920      3611  TIP3      H2            -17.9599849752      -17.6416893232        4.0200928508  SOLV      3600            0.0000000000
     10921      3612  TIP3      OH2           -20.9033049752      -24.0173193232        5.7126228508  SOLV      3601            0.0000000000
     10922      3612  TIP3      H1            -21.1805449752      -24.7453893232        6.2687328508  SOLV      3601            0.0000000000
     10923      3612  TIP3      H2            -19.9760049752      -23.8981193232        5.9178828508  SOLV      3601            0.0000000000
     10924      3613  TIP3      OH2           -27.6784549752      -21.5779093232        1.9328328508  SOLV      3602            0.0000000000
     10925      3613  TIP3      H1            -27.4394749752      -22.3260993232        1.3857228508  SOLV      3602            0.0000000000
     10926      3613  TIP3      H2            -27.9473249752      -21.9657393232        2.7656128508  SOLV      3602            0.0000000000
     10927      3614  TIP3      OH2           -28.7413949752      -22.0075293232        4.3890928508  SOLV      3603            0.0000000000
     10928      3614  TIP3      H1            -28.5945949752      -22.5275493232        5.1791828508  SOLV      3603            0.0000000000
     10929      3614  TIP3      H2            -28.7442249752      -21.1007693232        4.6956828508  SOLV      3603            0.0000000000
     10930      3615  TIP3      OH2           -26.0036749752      -20.3101693232        5.1385128508  SOLV      3604            0.0000000000
     10931      3615  TIP3      H1            -26.8200649752      -19.8131993232        5.1909428508  SOLV      3604            0.0000000000
     10932      3615  TIP3      H2            -25.4740449752      -19.8348193232        4.4983928508  SOLV      3604            0.0000000000
     10933      3616  TIP3      OH2           -28.6653649752      -19.2664493232        5.1202028508  SOLV      3605            0.0000000000
     10934      3616  TIP3      H1            -28.5044949752      -18.4666993232        4.6194628508  SOLV      3605            0.0000000000
     10935      3616  TIP3      H2            -28.8625849752      -18.9598493232        6.0052628508  SOLV      3605            0.0000000000
     10936      3617  TIP3      OH2           -21.1299749752      -28.0693693232       11.2259628508  SOLV      3606            0.0000000000
     10937      3617  TIP3      H1            -21.9275349752      -28.4843493232       10.8974628508  SOLV      3606            0.0000000000
     10938      3617  TIP3      H2            -20.6848649752      -28.7599993232       11.7170128508  SOLV      3606            0.0000000000
     10939      3618  TIP3      OH2           -20.0435149752      -18.8131193232       12.8483128508  SOLV      3607            0.0000000000
     10940      3618  TIP3      H1            -20.1990849752      -18.1346793232       12.1912428508  SOLV      3607            0.0000000000
     10941      3618  TIP3      H2            -19.1108749752      -18.7411893232       13.0513728508  SOLV      3607            0.0000000000
     10942      3619  TIP3      OH2           -21.0359849752      -19.8977793232        2.3052328508  SOLV      3608            0.0000000000
     10943      3619  TIP3      H1            -20.7529449752      -20.6922593232        2.7579228508  SOLV      3608            0.0000000000
     10944      3619  TIP3      H2            -20.2961949752      -19.6646793232        1.7443428508  SOLV      3608            0.0000000000
     10945      3620  TIP3      OH2           -24.7289149752      -22.9411193232        1.8985228508  SOLV      3609            0.0000000000
     10946      3620  TIP3      H1            -24.9975049752      -22.7609093232        2.7994128508  SOLV      3609            0.0000000000
     10947      3620  TIP3      H2            -24.9353549752      -23.8664993232        1.7671028508  SOLV      3609            0.0000000000
     10948      3621  TIP3      OH2           -22.0324949752      -24.4463193232       16.8461328508  SOLV      3610            0.0000000000
     10949      3621  TIP3      H1            -21.2870149752      -23.8579493232       16.7265328508  SOLV      3610            0.0000000000
     10950      3621  TIP3      H2            -22.7898149752      -23.8643493232       16.9094428508  SOLV      3610            0.0000000000
     10951      3622  TIP3      OH2           -18.4710049752      -25.4180693232        2.1766528508  SOLV      3611            0.0000000000
     10952      3622  TIP3      H1            -18.7445249752      -25.8425193232        1.3634828508  SOLV      3611            0.0000000000
     10953      3622  TIP3      H2            -18.4315949752      -24.4866193232        1.9596928508  SOLV      3611            0.0000000000
     10954      3623  TIP3      OH2           -27.9636649752      -17.0821193232        3.7322028508  SOLV      3612            0.0000000000
     10955      3623  TIP3      H1            -27.0305949752      -16.9242493232        3.8760428508  SOLV      3612            0.0000000000
     10956      3623  TIP3      H2            -28.2277849752      -16.4068193232        3.1073528508  SOLV      3612            0.0000000000
     10957      3624  TIP3      OH2           -17.3277149752      -18.1625493232       13.0775028508  SOLV      3613            0.0000000000
     10958      3624  TIP3      H1            -17.3490449752      -17.9777093232       14.0164428508  SOLV      3613            0.0000000000
     10959      3624  TIP3      H2            -16.6370949752      -17.5941493232       12.7366428508  SOLV      3613            0.0000000000
     10960      3625  TIP3      OH2           -17.7644249752      -18.5954393232       15.9994128508  SOLV      3614            0.0000000000
     10961      3625  TIP3      H1            -18.2515549752      -19.3310293232       15.6281528508  SOLV      3614            0.0000000000
     10962      3625  TIP3      H2            -17.2151549752      -18.9890493232       16.6773528508  SOLV      3614            0.0000000000
     10963      3626  TIP3      OH2           -18.0127249752      -24.5492593232        6.1516928508  SOLV      3615            0.0000000000
     10964      3626  TIP3      H1            -17.1625849752      -24.1281693232        6.2788528508  SOLV      3615            0.0000000000
     10965      3626  TIP3      H2            -18.0072149752      -25.2892493232        6.7588328508  SOLV      3615            0.0000000000
     10966      3627  TIP3      OH2           -17.6181649752      -26.4955193232        7.9752628508  SOLV      3616            0.0000000000
     10967      3627  TIP3      H1            -18.3447049752      -26.9752593232        8.3730228508  SOLV      3616            0.0000000000
     10968      3627  TIP3      H2            -17.0368349752      -26.2900493232        8.7074228508  SOLV      3616            0.0000000000
     10969      3628  TIP3      OH2           -17.8590449752      -23.7107693232       12.9230228508  SOLV      3617            0.0000000000
     10970      3628  TIP3      H1            -17.0256249752      -24.0887693232       12.6423828508  SOLV      3617            0.0000000000
     10971      3628  TIP3      H2            -17.7470149752      -22.7676493232       12.8039328508  SOLV      3617            0.0000000000
     10972      3629  TIP3      OH2           -19.3728149752      -20.8330193232       15.2298628508  SOLV      3618            0.0000000000
     10973      3629  TIP3      H1            -20.0202849752      -20.5078693232       15.8553828508  SOLV      3618            0.0000000000
     10974      3629  TIP3      H2            -19.8904149752      -21.2732493232       14.5556928508  SOLV      3618            0.0000000000
     10975      3630  TIP3      OH2           -17.3498549752      -26.5946693232        4.3663928508  SOLV      3619            0.0000000000
     10976      3630  TIP3      H1            -17.8717449752      -26.2382593232        3.6474828508  SOLV      3619            0.0000000000
     10977      3630  TIP3      H2            -17.3829349752      -25.9198893232        5.0444828508  SOLV      3619            0.0000000000
     10978      3631  TIP3      OH2           -19.0009549752      -29.3551093232        2.9171028508  SOLV      3620            0.0000000000
     10979      3631  TIP3      H1            -18.9045149752      -28.6884093232        2.2370728508  SOLV      3620            0.0000000000
     10980      3631  TIP3      H2            -19.1409949752      -30.1704793232        2.4356528508  SOLV      3620            0.0000000000
     10981      3632  TIP3      OH2           -19.8314849752      -27.9748693232        8.5381328508  SOLV      3621            0.0000000000
     10982      3632  TIP3      H1            -19.9816049752      -28.9200093232        8.5179128508  SOLV      3621            0.0000000000
     10983      3632  TIP3      H2            -20.1850349752      -27.6937293232        9.3820428508  SOLV      3621            0.0000000000
     10984      3633  TIP3      OH2           -18.9751949752      -26.0045393232       18.1769628508  SOLV      3622            0.0000000000
     10985      3633  TIP3      H1            -18.3924649752      -26.7393093232       18.3686828508  SOLV      3622            0.0000000000
     10986      3633  TIP3      H2            -18.4112649752      -25.2325093232       18.2235428508  SOLV      3622            0.0000000000
     10987      3634  TIP3      OH2           -19.7535749752      -31.9471293232        2.0346528508  SOLV      3623            0.0000000000
     10988      3634  TIP3      H1            -19.1429949752      -32.3184493232        2.6714728508  SOLV      3623            0.0000000000
     10989      3634  TIP3      H2            -20.5904249752      -32.3684393232        2.2306528508  SOLV      3623            0.0000000000
     10990      3635  TIP3      OH2           -20.1210049752      -30.3922893232        7.0006428508  SOLV      3624            0.0000000000
     10991      3635  TIP3      H1            -19.8412949752      -31.2992493232        7.1248128508  SOLV      3624            0.0000000000
     10992      3635  TIP3      H2            -19.3618349752      -29.9581393232        6.6115628508  SOLV      3624            0.0000000000
     10993      3636  TIP3      OH2           -19.5091749752      -29.8105493232       12.4365328508  SOLV      3625            0.0000000000
     10994      3636  TIP3      H1            -18.5763749752      -29.5985593232       12.4021328508  SOLV      3625            0.0000000000
     10995      3636  TIP3      H2            -19.7444249752      -29.7093393232       13.3588328508  SOLV      3625            0.0000000000
     10996      3637  TIP3      OH2           -19.4799849752      -29.0740193232       15.2124728508  SOLV      3626            0.0000000000
     10997      3637  TIP3      H1            -20.3228549752      -28.8059793232       15.5784528508  SOLV      3626            0.0000000000
     10998      3637  TIP3      H2            -19.0375549752      -28.2518293232       15.0015828508  SOLV      3626            0.0000000000
     10999      3638  TIP3      OH2           -20.5891149752      -18.0726093232        8.6496828508  SOLV      3627            0.0000000000
     11000      3638  TIP3      H1            -19.9368249752      -18.4203993232        8.0415928508  SOLV      3627            0.0000000000
     11001      3638  TIP3      H2            -20.0787349752      -17.5842893232        9.2956528508  SOLV      3627            0.0000000000
     11002      3639  TIP3      OH2           -23.5938949752      -17.4844593232       17.6546828508  SOLV      3628            0.0000000000
     11003      3639  TIP3      H1            -22.9170049752      -18.1172293232       17.4146028508  SOLV      3628            0.0000000000
     11004      3639  TIP3      H2            -23.2720149752      -17.0834093232       18.4620128508  SOLV      3628            0.0000000000
     11005      3640  TIP3      OH2           -30.3811449752      -17.3125693232       14.5284228508  SOLV      3629            0.0000000000
     11006      3640  TIP3      H1            -31.2459249752      -17.2407193232       14.9324328508  SOLV      3629            0.0000000000
     11007      3640  TIP3      H2            -30.4362449752      -16.7658393232       13.7446728508  SOLV      3629            0.0000000000
     11008      3641  TIP3      OH2           -25.6705849752      -17.4246793232       13.7040228508  SOLV      3630            0.0000000000
     11009      3641  TIP3      H1            -26.1271849752      -16.8957093232       13.0498628508  SOLV      3630            0.0000000000
     11010      3641  TIP3      H2            -25.5077849752      -16.8215393232       14.4292528508  SOLV      3630            0.0000000000
     11011      3642  TIP3      OH2           -23.3429549752      -18.5467193232       14.6490528508  SOLV      3631            0.0000000000
     11012      3642  TIP3      H1            -24.2475849752      -18.3816993232       14.3832628508  SOLV      3631            0.0000000000
     11013      3642  TIP3      H2            -22.9140949752      -17.6934993232       14.5833928508  SOLV      3631            0.0000000000
     11014      3643  TIP3      OH2           -20.7387649752      -16.9768093232       14.9438328508  SOLV      3632            0.0000000000
     11015      3643  TIP3      H1            -20.9205649752      -16.0609193232       14.7333228508  SOLV      3632            0.0000000000
     11016      3643  TIP3      H2            -20.5619849752      -17.3870993232       14.0972928508  SOLV      3632            0.0000000000
     11017      3644  TIP3      OH2           -31.2922849752      -19.5798393232       11.0638728508  SOLV      3633            0.0000000000
     11018      3644  TIP3      H1            -31.5112149752      -20.4960993232       11.2334728508  SOLV      3633            0.0000000000
     11019      3644  TIP3      H2            -30.4680649752      -19.4397993232       11.5300128508  SOLV      3633            0.0000000000
     11020      3645  TIP3      OH2           -28.7550349752      -19.1099093232       11.9126728508  SOLV      3634            0.0000000000
     11021      3645  TIP3      H1            -28.5424649752      -19.9980093232       11.6257628508  SOLV      3634            0.0000000000
     11022      3645  TIP3      H2            -28.6905249752      -19.1441393232       12.8670728508  SOLV      3634            0.0000000000
     11023      3646  TIP3      OH2           -18.6093149752      -18.2932693232        6.6568428508  SOLV      3635            0.0000000000
     11024      3646  TIP3      H1            -18.8036049752      -19.0410593232        6.0918028508  SOLV      3635            0.0000000000
     11025      3646  TIP3      H2            -18.6483049752      -17.5352593232        6.0736328508  SOLV      3635            0.0000000000
     11026      3647  TIP3      OH2           -32.3645049752      -18.1457093232        2.6053228508  SOLV      3636            0.0000000000
     11027      3647  TIP3      H1            -32.6320449752      -17.8594193232        3.4786328508  SOLV      3636            0.0000000000
     11028      3647  TIP3      H2            -31.5932449752      -18.6917893232        2.7575728508  SOLV      3636            0.0000000000
     11029      3648  TIP3      OH2           -19.3916949752      -19.5420293232       18.8070228508  SOLV      3637            0.0000000000
     11030      3648  TIP3      H1            -20.1735049752      -19.7282293232       18.2870828508  SOLV      3637            0.0000000000
     11031      3648  TIP3      H2            -19.4637049752      -18.6125993232       19.0242728508  SOLV      3637            0.0000000000
     11032      3649  TIP3      OH2            -4.9856549752      -25.6555893232        8.8377428508  SOLV      3638            0.0000000000
     11033      3649  TIP3      H1             -4.8965449752      -24.7117693232        8.7054528508  SOLV      3638            0.0000000000
     11034      3649  TIP3      H2             -5.6238949752      -25.9309493232        8.1796828508  SOLV      3638            0.0000000000
     11035      3650  TIP3      OH2            -6.0525249752      -26.4005193232       12.2565628508  SOLV      3639            0.0000000000
     11036      3650  TIP3      H1             -6.0907749752      -27.0468893232       12.9615228508  SOLV      3639            0.0000000000
     11037      3650  TIP3      H2             -6.3748749752      -26.8670793232       11.4854328508  SOLV      3639            0.0000000000
     11038      3651  TIP3      OH2           -13.6840249752      -26.7863093232       13.8495528508  SOLV      3640            0.0000000000
     11039      3651  TIP3      H1            -13.6428149752      -27.4119793232       14.5727928508  SOLV      3640            0.0000000000
     11040      3651  TIP3      H2            -12.9812549752      -26.1624493232       14.0315928508  SOLV      3640            0.0000000000
     11041      3652  TIP3      OH2            -2.3465049752      -23.4614793232       10.5580728508  SOLV      3641            0.0000000000
     11042      3652  TIP3      H1             -2.7872349752      -24.1818793232       11.0086328508  SOLV      3641            0.0000000000
     11043      3652  TIP3      H2             -2.3595349752      -22.7407593232       11.1878428508  SOLV      3641            0.0000000000
     11044      3653  TIP3      OH2           -12.7607149752      -22.3364193232       12.3844628508  SOLV      3642            0.0000000000
     11045      3653  TIP3      H1            -13.1301949752      -23.1383693232       12.0148928508  SOLV      3642            0.0000000000
     11046      3653  TIP3      H2            -11.8196049752      -22.5049293232       12.4308028508  SOLV      3642            0.0000000000
     11047      3654  TIP3      OH2           -16.1506649752      -28.6761593232        7.7773428508  SOLV      3643            0.0000000000
     11048      3654  TIP3      H1            -16.5983249752      -27.8302893232        7.7589928508  SOLV      3643            0.0000000000
     11049      3654  TIP3      H2            -16.7115449752      -29.2557393232        7.2618528508  SOLV      3643            0.0000000000
     11050      3655  TIP3      OH2           -15.4400549752      -26.5141993232        9.9031428508  SOLV      3644            0.0000000000
     11051      3655  TIP3      H1            -15.2267049752      -27.2840393232       10.4304428508  SOLV      3644            0.0000000000
     11052      3655  TIP3      H2            -14.7022949752      -26.4245293232        9.2999028508  SOLV      3644            0.0000000000
     11053      3656  TIP3      OH2            -5.2349549752      -18.3573093232       10.7701128508  SOLV      3645            0.0000000000
     11054      3656  TIP3      H1             -4.6153149752      -19.0338393232       10.4970328508  SOLV      3645            0.0000000000
     11055      3656  TIP3      H2             -5.4432149752      -18.5752293232       11.6786028508  SOLV      3645            0.0000000000
     11056      3657  TIP3      OH2            -7.6630849752      -23.9683793232       12.6626628508  SOLV      3646            0.0000000000
     11057      3657  TIP3      H1             -7.3592949752      -24.6542393232       12.0680728508  SOLV      3646            0.0000000000
     11058      3657  TIP3      H2             -6.9416849752      -23.8495093232       13.2804628508  SOLV      3646            0.0000000000
     11059      3658  TIP3      OH2             0.9998950248      -32.3668493232       13.5232828508  SOLV      3647            0.0000000000
     11060      3658  TIP3      H1              1.0491150248      -31.7567293232       14.2591928508  SOLV      3647            0.0000000000
     11061      3658  TIP3      H2              1.4254050248      -31.9057593232       12.8003928508  SOLV      3647            0.0000000000
     11062      3659  TIP3      OH2            -4.5223849752      -29.5741393232       12.9901428508  SOLV      3648            0.0000000000
     11063      3659  TIP3      H1             -4.3797949752      -30.5204393232       13.0103028508  SOLV      3648            0.0000000000
     11064      3659  TIP3      H2             -4.6284849752      -29.3671593232       12.0616328508  SOLV      3648            0.0000000000
     11065      3660  TIP3      OH2           -11.3675549752      -31.4724993232       10.2626228508  SOLV      3649            0.0000000000
     11066      3660  TIP3      H1            -11.3244449752      -30.6126493232        9.8442528508  SOLV      3649            0.0000000000
     11067      3660  TIP3      H2            -11.8251449752      -32.0250293232        9.6289428508  SOLV      3649            0.0000000000
     11068      3661  TIP3      OH2            -3.6452849752      -31.3419393232        8.6634528508  SOLV      3650            0.0000000000
     11069      3661  TIP3      H1             -2.9988549752      -31.6706193232        9.2882128508  SOLV      3650            0.0000000000
     11070      3661  TIP3      H2             -3.1353449752      -30.8240393232        8.0405928508  SOLV      3650            0.0000000000
     11071      3662  TIP3      OH2           -14.7474049752      -29.0759193232       11.0247628508  SOLV      3651            0.0000000000
     11072      3662  TIP3      H1            -14.0937449752      -29.6257493232       11.4567728508  SOLV      3651            0.0000000000
     11073      3662  TIP3      H2            -14.7234749752      -29.3500193232       10.1079628508  SOLV      3651            0.0000000000
     11074      3663  TIP3      OH2            -9.5909549752      -27.5257893232       10.2399128508  SOLV      3652            0.0000000000
     11075      3663  TIP3      H1             -8.9748549752      -28.0522493232       10.7493128508  SOLV      3652            0.0000000000
     11076      3663  TIP3      H2            -10.1770749752      -28.1659193232        9.8362728508  SOLV      3652            0.0000000000
     11077      3664  TIP3      OH2             1.3913550248      -30.8889293232       15.7592628508  SOLV      3653            0.0000000000
     11078      3664  TIP3      H1              0.7028150248      -30.2308593232       15.6639228508  SOLV      3653            0.0000000000
     11079      3664  TIP3      H2              1.4068150248      -31.0861393232       16.6958028508  SOLV      3653            0.0000000000
     11080      3665  TIP3      OH2           -12.5573649752      -32.5546593232       14.3367028508  SOLV      3654            0.0000000000
     11081      3665  TIP3      H1            -12.7761949752      -32.0245993232       13.5703028508  SOLV      3654            0.0000000000
     11082      3665  TIP3      H2            -13.2252749752      -32.3281093232       14.9838428508  SOLV      3654            0.0000000000
     11083      3666  TIP3      OH2            -5.1883849752      -23.0545493232        7.8806128508  SOLV      3655            0.0000000000
     11084      3666  TIP3      H1             -5.4838749752      -23.3773193232        7.0293028508  SOLV      3655            0.0000000000
     11085      3666  TIP3      H2             -5.5126049752      -22.1548793232        7.9218728508  SOLV      3655            0.0000000000
     11086      3667  TIP3      OH2            -9.9882249752      -24.8790893232       14.6240728508  SOLV      3656            0.0000000000
     11087      3667  TIP3      H1            -10.7283149752      -24.2809393232       14.7275928508  SOLV      3656            0.0000000000
     11088      3667  TIP3      H2             -9.2742749752      -24.3251293232       14.3084328508  SOLV      3656            0.0000000000
     11089      3668  TIP3      OH2            -1.8814449752      -32.0510093232       10.6440428508  SOLV      3657            0.0000000000
     11090      3668  TIP3      H1             -2.0966449752      -32.8166693232       11.1766428508  SOLV      3657            0.0000000000
     11091      3668  TIP3      H2             -1.2257049752      -31.5785493232       11.1568928508  SOLV      3657            0.0000000000
     11092      3669  TIP3      OH2           -12.9636349752      -30.6624793232       12.2889228508  SOLV      3658            0.0000000000
     11093      3669  TIP3      H1            -12.3500049752      -30.0297193232       12.6621628508  SOLV      3658            0.0000000000
     11094      3669  TIP3      H2            -12.4515649752      -31.1349793232       11.6326128508  SOLV      3658            0.0000000000
     11095      3670  TIP3      OH2           -11.5807949752      -22.9147893232       15.4112228508  SOLV      3659            0.0000000000
     11096      3670  TIP3      H1            -11.5860349752      -22.0354393232       15.0331528508  SOLV      3659            0.0000000000
     11097      3670  TIP3      H2            -12.4343849752      -22.9983793232       15.8362128508  SOLV      3659            0.0000000000
     11098      3671  TIP3      OH2           -15.4597049752      -23.2439993232        6.1931528508  SOLV      3660            0.0000000000
     11099      3671  TIP3      H1            -15.7316149752      -23.0148993232        5.3044428508  SOLV      3660            0.0000000000
     11100      3671  TIP3      H2            -15.4141349752      -22.4061193232        6.6536828508  SOLV      3660            0.0000000000
     11101      3672  TIP3      OH2            -1.8347349752      -21.6224093232       12.9060028508  SOLV      3661            0.0000000000
     11102      3672  TIP3      H1             -2.7763649752      -21.5640193232       13.0676928508  SOLV      3661            0.0000000000
     11103      3672  TIP3      H2             -1.5581249752      -20.7163593232       12.7689728508  SOLV      3661            0.0000000000
     11104      3673  TIP3      OH2            -3.5826149752      -19.8410593232        9.5311628508  SOLV      3662            0.0000000000
     11105      3673  TIP3      H1             -3.1573849752      -20.5482693232        9.0461228508  SOLV      3662            0.0000000000
     11106      3673  TIP3      H2             -3.2656149752      -19.0397893232        9.1143828508  SOLV      3662            0.0000000000
     11107      3674  TIP3      OH2            -2.4229649752      -21.9402093232        8.0398228508  SOLV      3663            0.0000000000
     11108      3674  TIP3      H1             -2.6804849752      -22.6301993232        7.4284128508  SOLV      3663            0.0000000000
     11109      3674  TIP3      H2             -2.3518849752      -22.3830893232        8.8854128508  SOLV      3663            0.0000000000
     11110      3675  TIP3      OH2            -0.7369449752      -23.3735393232       16.5171728508  SOLV      3664            0.0000000000
     11111      3675  TIP3      H1             -0.5973149752      -23.9652893232       15.7778728508  SOLV      3664            0.0000000000
     11112      3675  TIP3      H2             -0.5696649752      -22.5009493232       16.1610528508  SOLV      3664            0.0000000000
     11113      3676  TIP3      OH2            -6.2644049752      -26.4115893232        6.2897728508  SOLV      3665            0.0000000000
     11114      3676  TIP3      H1             -6.9758549752      -25.8766193232        5.9378228508  SOLV      3665            0.0000000000
     11115      3676  TIP3      H2             -5.5734449752      -26.3563793232        5.6296628508  SOLV      3665            0.0000000000
     11116      3677  TIP3      OH2            -6.2104849752      -27.9541593232        3.3282728508  SOLV      3666            0.0000000000
     11117      3677  TIP3      H1             -5.5094949752      -27.9314693232        3.9796728508  SOLV      3666            0.0000000000
     11118      3677  TIP3      H2             -5.9081949752      -28.5821893232        2.6722028508  SOLV      3666            0.0000000000
     11119      3678  TIP3      OH2             1.1049850248      -27.0337393232       14.5832128508  SOLV      3667            0.0000000000
     11120      3678  TIP3      H1              0.4523950248      -26.3391793232       14.6723028508  SOLV      3667            0.0000000000
     11121      3678  TIP3      H2              1.5700150248      -26.8236493232       13.7733728508  SOLV      3667            0.0000000000
     11122      3679  TIP3      OH2            -2.8586349752      -26.2022593232        7.2413628508  SOLV      3668            0.0000000000
     11123      3679  TIP3      H1             -3.5905349752      -25.9738893232        7.8144228508  SOLV      3668            0.0000000000
     11124      3679  TIP3      H2             -2.4114149752      -26.9159893232        7.6961128508  SOLV      3668            0.0000000000
     11125      3680  TIP3      OH2            -2.9612849752      -28.0279993232       16.3090628508  SOLV      3669            0.0000000000
     11126      3680  TIP3      H1             -2.8813749752      -27.2645593232       16.8809128508  SOLV      3669            0.0000000000
     11127      3680  TIP3      H2             -3.5625149752      -27.7487593232       15.6185728508  SOLV      3669            0.0000000000
     11128      3681  TIP3      OH2           -11.2132649752      -25.5716393232        9.1238628508  SOLV      3670            0.0000000000
     11129      3681  TIP3      H1            -11.5437449752      -25.9422993232        8.3055628508  SOLV      3670            0.0000000000
     11130      3681  TIP3      H2            -10.6248549752      -26.2422393232        9.4706928508  SOLV      3670            0.0000000000
     11131      3682  TIP3      OH2            -9.8465149752      -22.1435793232       11.8050828508  SOLV      3671            0.0000000000
     11132      3682  TIP3      H1             -9.9413849752      -22.7222693232       11.0485428508  SOLV      3671            0.0000000000
     11133      3682  TIP3      H2             -9.1171549752      -22.5150093232       12.3013628508  SOLV      3671            0.0000000000
     11134      3683  TIP3      OH2           -10.8467149752      -26.8030793232       12.7573628508  SOLV      3672            0.0000000000
     11135      3683  TIP3      H1            -10.2814649752      -26.6816593232       11.9944828508  SOLV      3672            0.0000000000
     11136      3683  TIP3      H2            -10.5278249752      -26.1655793232       13.3962128508  SOLV      3672            0.0000000000
     11137      3684  TIP3      OH2            -4.5374949752      -21.2998893232       13.4914128508  SOLV      3673            0.0000000000
     11138      3684  TIP3      H1             -4.7778349752      -20.6375793232       14.1393328508  SOLV      3673            0.0000000000
     11139      3684  TIP3      H2             -4.7356749752      -22.1343693232       13.9163728508  SOLV      3673            0.0000000000
     11140      3685  TIP3      OH2            -9.9666449752      -22.4038093232       17.4745528508  SOLV      3674            0.0000000000
     11141      3685  TIP3      H1            -10.2778949752      -21.6214893232       17.9298728508  SOLV      3674            0.0000000000
     11142      3685  TIP3      H2            -10.6166249752      -22.5568993232       16.7887528508  SOLV      3674            0.0000000000
     11143      3686  TIP3      OH2            -3.9876849752      -27.0399693232        4.9264828508  SOLV      3675            0.0000000000
     11144      3686  TIP3      H1             -3.4081349752      -26.8899393232        5.6733728508  SOLV      3675            0.0000000000
     11145      3686  TIP3      H2             -3.5736849752      -26.5692293232        4.2031228508  SOLV      3675            0.0000000000
     11146      3687  TIP3      OH2           -13.0466549752      -26.2056993232       16.7031228508  SOLV      3676            0.0000000000
     11147      3687  TIP3      H1            -12.9763349752      -25.5550193232       17.4016228508  SOLV      3676            0.0000000000
     11148      3687  TIP3      H2            -13.9374349752      -26.1029493232       16.3682128508  SOLV      3676            0.0000000000
     11149      3688  TIP3      OH2            -6.2611949752      -20.3031193232        8.3617928508  SOLV      3677            0.0000000000
     11150      3688  TIP3      H1             -5.7874349752      -20.0074893232        9.1392128508  SOLV      3677            0.0000000000
     11151      3688  TIP3      H2             -6.8242649752      -19.5649593232        8.1287528508  SOLV      3677            0.0000000000
     11152      3689  TIP3      OH2           -11.7270549752      -20.3323093232       18.2379328508  SOLV      3678            0.0000000000
     11153      3689  TIP3      H1            -11.7195249752      -20.4683393232       17.2904828508  SOLV      3678            0.0000000000
     11154      3689  TIP3      H2            -12.6430149752      -20.4494993232       18.4899328508  SOLV      3678            0.0000000000
     11155      3690  TIP3      OH2           -12.2229949752      -26.5022093232        6.7131428508  SOLV      3679            0.0000000000
     11156      3690  TIP3      H1            -12.5148649752      -25.7340393232        6.2222728508  SOLV      3679            0.0000000000
     11157      3690  TIP3      H2            -12.8974749752      -27.1615893232        6.5502828508  SOLV      3679            0.0000000000
     11158      3691  TIP3      OH2             0.9002950248      -20.9236893232        3.1158428508  SOLV      3680            0.0000000000
     11159      3691  TIP3      H1              0.9736450248      -19.9846693232        3.2863728508  SOLV      3680            0.0000000000
     11160      3691  TIP3      H2              1.8058050248      -21.2288293232        3.0595728508  SOLV      3680            0.0000000000
     11161      3692  TIP3      OH2           -16.1299849752      -24.1392893232       15.5281228508  SOLV      3681            0.0000000000
     11162      3692  TIP3      H1            -16.6311449752      -24.1673493232       14.7130928508  SOLV      3681            0.0000000000
     11163      3692  TIP3      H2            -16.1246149752      -25.0449693232       15.8378528508  SOLV      3681            0.0000000000
     11164      3693  TIP3      OH2           -16.3797149752      -21.3589093232       12.4121428508  SOLV      3682            0.0000000000
     11165      3693  TIP3      H1            -15.4336549752      -21.5032093232       12.3930928508  SOLV      3682            0.0000000000
     11166      3693  TIP3      H2            -16.4920849752      -20.5746293232       12.9492628508  SOLV      3682            0.0000000000
     11167      3694  TIP3      OH2             1.8181350248      -20.6929393232       18.0945128508  SOLV      3683            0.0000000000
     11168      3694  TIP3      H1              1.7688150248      -21.6481293232       18.0572728508  SOLV      3683            0.0000000000
     11169      3694  TIP3      H2              0.9913650248      -20.4254093232       18.4958928508  SOLV      3683            0.0000000000
     11170      3695  TIP3      OH2            -7.2034649752      -21.1190193232       16.9706528508  SOLV      3684            0.0000000000
     11171      3695  TIP3      H1             -7.1160049752      -20.2925593232       17.4455628508  SOLV      3684            0.0000000000
     11172      3695  TIP3      H2             -8.0669549752      -21.4486393232       17.2195828508  SOLV      3684            0.0000000000
     11173      3696  TIP3      OH2            -6.7888849752      -17.3466493232        6.7767128508  SOLV      3685            0.0000000000
     11174      3696  TIP3      H1             -6.8642849752      -17.4679293232        5.8302328508  SOLV      3685            0.0000000000
     11175      3696  TIP3      H2             -6.7560149752      -16.3973793232        6.8951728508  SOLV      3685            0.0000000000
     11176      3697  TIP3      OH2           -13.1355049752      -18.5579493232        8.5576128508  SOLV      3686            0.0000000000
     11177      3697  TIP3      H1            -12.9834649752      -18.9059093232        9.4362628508  SOLV      3686            0.0000000000
     11178      3697  TIP3      H2            -13.9864649752      -18.9142193232        8.3023328508  SOLV      3686            0.0000000000
     11179      3698  TIP3      OH2            -3.6872849752      -18.1926293232        3.7789528508  SOLV      3687            0.0000000000
     11180      3698  TIP3      H1             -3.3124449752      -18.9370193232        3.3082128508  SOLV      3687            0.0000000000
     11181      3698  TIP3      H2             -3.6829149752      -18.4625693232        4.6972828508  SOLV      3687            0.0000000000
     11182      3699  TIP3      OH2            -4.0184749752      -18.2669193232        6.5281728508  SOLV      3688            0.0000000000
     11183      3699  TIP3      H1             -4.9534949752      -18.1667293232        6.7068728508  SOLV      3688            0.0000000000
     11184      3699  TIP3      H2             -3.7382849752      -18.9763193232        7.1064928508  SOLV      3688            0.0000000000
     11185      3700  TIP3      OH2            -1.0298849752      -29.1996893232       18.5747328508  SOLV      3689            0.0000000000
     11186      3700  TIP3      H1             -1.4372049752      -28.7191293232       17.8540628508  SOLV      3689            0.0000000000
     11187      3700  TIP3      H2             -0.9893149752      -30.1050893232       18.2668128508  SOLV      3689            0.0000000000
     11188      3701  TIP3      OH2           -13.8809349752      -22.8157493232       16.5714028508  SOLV      3690            0.0000000000
     11189      3701  TIP3      H1            -13.6648049752      -23.1771893232       17.4309828508  SOLV      3690            0.0000000000
     11190      3701  TIP3      H2            -14.7364649752      -23.1903693232       16.3617528508  SOLV      3690            0.0000000000
     11191      3702  TIP3      OH2            -3.2728649752      -30.8681393232       16.7949728508  SOLV      3691            0.0000000000
     11192      3702  TIP3      H1             -3.7869149752      -30.9939193232       17.5925728508  SOLV      3691            0.0000000000
     11193      3702  TIP3      H2             -3.4283949752      -29.9558293232       16.5505928508  SOLV      3691            0.0000000000
     11194      3703  TIP3      OH2            -2.5103749752      -26.0071393232        2.5562728508  SOLV      3692            0.0000000000
     11195      3703  TIP3      H1             -2.4682949752      -26.2297493232        1.6262728508  SOLV      3692            0.0000000000
     11196      3703  TIP3      H2             -1.6611649752      -25.6084293232        2.7462628508  SOLV      3692            0.0000000000
     11197      3704  TIP3      OH2           -11.1711249752      -29.3802493232       13.6618428508  SOLV      3693            0.0000000000
     11198      3704  TIP3      H1            -11.8129149752      -29.4205193232       14.3708528508  SOLV      3693            0.0000000000
     11199      3704  TIP3      H2            -11.1339249752      -28.4537793232       13.4241428508  SOLV      3693            0.0000000000
     11200      3705  TIP3      OH2           -11.1742149752      -29.1592393232        8.5738428508  SOLV      3694            0.0000000000
     11201      3705  TIP3      H1            -12.0669249752      -29.4996293232        8.5152228508  SOLV      3694            0.0000000000
     11202      3705  TIP3      H2            -10.7235549752      -29.5361493232        7.8181628508  SOLV      3694            0.0000000000
     11203      3706  TIP3      OH2            -5.6386649752      -28.7432093232        7.3909228508  SOLV      3695            0.0000000000
     11204      3706  TIP3      H1             -6.0476349752      -27.9283493232        7.0994028508  SOLV      3695            0.0000000000
     11205      3706  TIP3      H2             -4.9180449752      -28.8831993232        6.7766328508  SOLV      3695            0.0000000000
     11206      3707  TIP3      OH2            -6.5365049752      -28.5675693232       18.8789928508  SOLV      3696            0.0000000000
     11207      3707  TIP3      H1             -7.0991249752      -29.2724093232       19.1997728508  SOLV      3696            0.0000000000
     11208      3707  TIP3      H2             -5.7101649752      -28.6883793232       19.3467528508  SOLV      3696            0.0000000000
     11209      3708  TIP3      OH2            -4.6338949752      -29.2971693232       10.2048928508  SOLV      3697            0.0000000000
     11210      3708  TIP3      H1             -4.8294449752      -28.6914893232        9.4899528508  SOLV      3697            0.0000000000
     11211      3708  TIP3      H2             -4.4526349752      -30.1306493232        9.7705228508  SOLV      3697            0.0000000000
     11212      3709  TIP3      OH2           -13.4210749752      -29.0598993232       15.5290428508  SOLV      3698            0.0000000000
     11213      3709  TIP3      H1            -13.4591349752      -28.6597393232       16.3977528508  SOLV      3698            0.0000000000
     11214      3709  TIP3      H2            -13.9119649752      -29.8766593232       15.6193328508  SOLV      3698            0.0000000000
     11215      3710  TIP3      OH2           -10.0553349752      -31.6856693232        2.3276428508  SOLV      3699            0.0000000000
     11216      3710  TIP3      H1            -10.4862649752      -32.1306593232        3.0573828508  SOLV      3699            0.0000000000
     11217      3710  TIP3      H2            -10.7734649752      -31.3140393232        1.8153928508  SOLV      3699            0.0000000000
     11218      3711  TIP3      OH2           -16.8129949752      -31.9437193232        9.3795128508  SOLV      3700            0.0000000000
     11219      3711  TIP3      H1            -16.1822249752      -31.9725093232       10.0989028508  SOLV      3700            0.0000000000
     11220      3711  TIP3      H2            -16.3635649752      -32.3688493232        8.6491028508  SOLV      3700            0.0000000000
     11221      3712  TIP3      OH2           -15.5387849752      -31.1975193232        4.8035528508  SOLV      3701            0.0000000000
     11222      3712  TIP3      H1            -15.0646149752      -30.6065293232        4.2186428508  SOLV      3701            0.0000000000
     11223      3712  TIP3      H2            -16.2561449752      -30.6672293232        5.1505628508  SOLV      3701            0.0000000000
     11224      3713  TIP3      OH2            -5.3699749752      -27.6590393232       14.8761328508  SOLV      3702            0.0000000000
     11225      3713  TIP3      H1             -5.0464949752      -28.2900693232       14.2331828508  SOLV      3702            0.0000000000
     11226      3713  TIP3      H2             -5.8100449752      -28.1938193232       15.5368728508  SOLV      3702            0.0000000000
     11227      3714  TIP3      OH2            -8.5926849752      -31.7314893232        9.6602528508  SOLV      3703            0.0000000000
     11228      3714  TIP3      H1             -9.5035749752      -31.6748093232        9.9488528508  SOLV      3703            0.0000000000
     11229      3714  TIP3      H2             -8.0873949752      -31.7919393232       10.4709728508  SOLV      3703            0.0000000000
     11230      3715  TIP3      OH2           -13.7643449752      -30.1028593232        8.4870128508  SOLV      3704            0.0000000000
     11231      3715  TIP3      H1            -14.6535449752      -30.0033093232        8.1469728508  SOLV      3704            0.0000000000
     11232      3715  TIP3      H2            -13.4678549752      -30.9445593232        8.1408028508  SOLV      3704            0.0000000000
     11233      3716  TIP3      OH2           -10.1111649752      -30.1025993232        6.1434728508  SOLV      3705            0.0000000000
     11234      3716  TIP3      H1             -9.1796149752      -29.9735993232        6.3217828508  SOLV      3705            0.0000000000
     11235      3716  TIP3      H2            -10.3261349752      -29.4331693232        5.4939428508  SOLV      3705            0.0000000000
     11236      3717  TIP3      OH2           -11.4371449752      -28.9083793232        3.7100828508  SOLV      3706            0.0000000000
     11237      3717  TIP3      H1            -11.9796349752      -29.2879993232        3.0188428508  SOLV      3706            0.0000000000
     11238      3717  TIP3      H2            -10.6036549752      -28.7139093232        3.2814928508  SOLV      3706            0.0000000000
     11239      3718  TIP3      OH2            -0.8999849752      -16.8253193232       19.2011928508  SOLV      3707            0.0000000000
     11240      3718  TIP3      H1             -0.7001149752      -16.4011293232       18.3667228508  SOLV      3707            0.0000000000
     11241      3718  TIP3      H2             -0.2446149752      -16.4814993232       19.8082328508  SOLV      3707            0.0000000000
     11242      3719  TIP3      OH2           -13.3020049752      -24.3511893232       18.8092428508  SOLV      3708            0.0000000000
     11243      3719  TIP3      H1            -12.5697649752      -24.0965993232       19.3706928508  SOLV      3708            0.0000000000
     11244      3719  TIP3      H2            -14.0821349752      -24.1466493232       19.3247828508  SOLV      3708            0.0000000000
     11245      3720  TIP3      OH2            -7.2727149752      -28.9441893232       11.5472128508  SOLV      3709            0.0000000000
     11246      3720  TIP3      H1             -6.7083749752      -29.4905293232       11.0001728508  SOLV      3709            0.0000000000
     11247      3720  TIP3      H2             -7.4203749752      -29.4659993232       12.3359728508  SOLV      3709            0.0000000000
     11248      3721  TIP3      OH2            -8.6461249752      -30.5555793232       13.9612528508  SOLV      3710            0.0000000000
     11249      3721  TIP3      H1             -9.4815949752      -30.1016293232       14.0714928508  SOLV      3710            0.0000000000
     11250      3721  TIP3      H2             -8.1220649752      -30.2797293232       14.7132428508  SOLV      3710            0.0000000000
     11251      3722  TIP3      OH2            -8.1018649752      -24.3428093232        5.6458928508  SOLV      3711            0.0000000000
     11252      3722  TIP3      H1             -8.8467649752      -24.8502793232        5.3236828508  SOLV      3711            0.0000000000
     11253      3722  TIP3      H2             -8.2361449752      -24.2940093232        6.5923728508  SOLV      3711            0.0000000000
     11254      3723  TIP3      OH2            -0.9519749752      -25.2099893232       14.4326528508  SOLV      3712            0.0000000000
     11255      3723  TIP3      H1             -0.3100949752      -24.7533593232       13.8888728508  SOLV      3712            0.0000000000
     11256      3723  TIP3      H2             -1.7822849752      -25.0967493232       13.9700628508  SOLV      3712            0.0000000000
     11257      3724  TIP3      OH2            -4.2041849752      -31.5288193232        3.8451528508  SOLV      3713            0.0000000000
     11258      3724  TIP3      H1             -5.1427649752      -31.4172593232        3.6940328508  SOLV      3713            0.0000000000
     11259      3724  TIP3      H2             -3.9069749752      -30.6721293232        4.1517228508  SOLV      3713            0.0000000000
     11260      3725  TIP3      OH2            -6.5826549752      -24.1584793232       16.8828028508  SOLV      3714            0.0000000000
     11261      3725  TIP3      H1             -6.9280449752      -24.5402393232       17.6897628508  SOLV      3714            0.0000000000
     11262      3725  TIP3      H2             -6.7826449752      -23.2251193232       16.9540928508  SOLV      3714            0.0000000000
     11263      3726  TIP3      OH2            -3.4858349752      -29.6615493232        5.5058928508  SOLV      3715            0.0000000000
     11264      3726  TIP3      H1             -2.5939349752      -29.7990493232        5.8250128508  SOLV      3715            0.0000000000
     11265      3726  TIP3      H2             -3.4294749752      -28.8709393232        4.9692428508  SOLV      3715            0.0000000000
     11266      3727  TIP3      OH2           -12.9770349752      -25.0478093232       11.4156828508  SOLV      3716            0.0000000000
     11267      3727  TIP3      H1            -12.2323149752      -25.0502393232       10.8143328508  SOLV      3716            0.0000000000
     11268      3727  TIP3      H2            -12.8993749752      -25.8714293232       11.8971928508  SOLV      3716            0.0000000000
     11269      3728  TIP3      OH2            -5.9764549752      -22.8843793232        4.6713528508  SOLV      3717            0.0000000000
     11270      3728  TIP3      H1             -6.2716149752      -22.0575893232        5.0528328508  SOLV      3717            0.0000000000
     11271      3728  TIP3      H2             -6.6794549752      -23.5036893232        4.8674928508  SOLV      3717            0.0000000000
     11272      3729  TIP3      OH2           -15.9690649752      -26.5871193232       16.7305328508  SOLV      3718            0.0000000000
     11273      3729  TIP3      H1            -15.7462049752      -27.0051593232       17.5622828508  SOLV      3718            0.0000000000
     11274      3729  TIP3      H2            -16.5710549752      -27.1996193232       16.3078128508  SOLV      3718            0.0000000000
     11275      3730  TIP3      OH2            -8.9525749752      -27.0701293232       18.9435028508  SOLV      3719            0.0000000000
     11276      3730  TIP3      H1             -9.2484949752      -27.2358293232       18.0484128508  SOLV      3719            0.0000000000
     11277      3730  TIP3      H2             -8.0210549752      -27.2900993232       18.9328928508  SOLV      3719            0.0000000000
     11278      3731  TIP3      OH2            -4.3322949752      -21.6969293232       16.8333028508  SOLV      3720            0.0000000000
     11279      3731  TIP3      H1             -5.2328649752      -21.5136693232       16.5656928508  SOLV      3720            0.0000000000
     11280      3731  TIP3      H2             -4.2981849752      -21.4379993232       17.7541828508  SOLV      3720            0.0000000000
     11281      3732  TIP3      OH2             1.3990350248      -29.4521393232        5.2005628508  SOLV      3721            0.0000000000
     11282      3732  TIP3      H1              0.8446650248      -29.8483393232        4.5283128508  SOLV      3721            0.0000000000
     11283      3732  TIP3      H2              1.4993950248      -28.5416193232        4.9228928508  SOLV      3721            0.0000000000
     11284      3733  TIP3      OH2             1.3622350248      -23.6519693232       18.0377128508  SOLV      3722            0.0000000000
     11285      3733  TIP3      H1              0.5110850248      -23.4135893232       17.6703528508  SOLV      3722            0.0000000000
     11286      3733  TIP3      H2              1.9525750248      -23.6686493232       17.2844228508  SOLV      3722            0.0000000000
     11287      3734  TIP3      OH2            -0.3057949752      -20.6660993232        5.6657728508  SOLV      3723            0.0000000000
     11288      3734  TIP3      H1             -0.6786849752      -21.4917193232        5.9748328508  SOLV      3723            0.0000000000
     11289      3734  TIP3      H2             -0.0284449752      -20.8491593232        4.7681128508  SOLV      3723            0.0000000000
     11290      3735  TIP3      OH2            -3.1454049752      -25.8581493232       12.6869628508  SOLV      3724            0.0000000000
     11291      3735  TIP3      H1             -4.0737149752      -26.0899593232       12.6598928508  SOLV      3724            0.0000000000
     11292      3735  TIP3      H2             -2.6942949752      -26.6351693232       12.3568428508  SOLV      3724            0.0000000000
     11293      3736  TIP3      OH2           -10.6020949752      -21.5299893232        8.8198328508  SOLV      3725            0.0000000000
     11294      3736  TIP3      H1            -10.0748749752      -20.7565493232        8.6197128508  SOLV      3725            0.0000000000
     11295      3736  TIP3      H2            -11.4822449752      -21.3050693232        8.5182328508  SOLV      3725            0.0000000000
     11296      3737  TIP3      OH2           -14.8473249752      -26.6675793232        3.4070728508  SOLV      3726            0.0000000000
     11297      3737  TIP3      H1            -14.2313349752      -26.0408593232        3.7865528508  SOLV      3726            0.0000000000
     11298      3737  TIP3      H2            -15.7090649752      -26.3515993232        3.6787228508  SOLV      3726            0.0000000000
     11299      3738  TIP3      OH2            -9.1748649752      -23.8669993232        8.3962628508  SOLV      3727            0.0000000000
     11300      3738  TIP3      H1             -9.4158649752      -22.9415593232        8.4377928508  SOLV      3727            0.0000000000
     11301      3738  TIP3      H2             -9.9155049752      -24.3258693232        8.7926528508  SOLV      3727            0.0000000000
     11302      3739  TIP3      OH2            -8.6602049752      -19.7176393232       14.7113728508  SOLV      3728            0.0000000000
     11303      3739  TIP3      H1             -8.2977349752      -18.8630793232       14.4778128508  SOLV      3728            0.0000000000
     11304      3739  TIP3      H2             -8.1286849752      -20.0094793232       15.4520028508  SOLV      3728            0.0000000000
     11305      3740  TIP3      OH2           -10.4917849752      -18.8452393232        7.9414828508  SOLV      3729            0.0000000000
     11306      3740  TIP3      H1            -11.4417349752      -18.7394993232        7.9928128508  SOLV      3729            0.0000000000
     11307      3740  TIP3      H2            -10.1399749752      -18.0244993232        8.2862328508  SOLV      3729            0.0000000000
     11308      3741  TIP3      OH2            -5.1161249752      -23.6185693232       14.4119328508  SOLV      3730            0.0000000000
     11309      3741  TIP3      H1             -5.5419949752      -23.8463993232       15.2383328508  SOLV      3730            0.0000000000
     11310      3741  TIP3      H2             -4.5355449752      -24.3573893232       14.2294628508  SOLV      3730            0.0000000000
     11311      3742  TIP3      OH2            -2.9132349752      -22.6895193232        3.4858328508  SOLV      3731            0.0000000000
     11312      3742  TIP3      H1             -2.5599249752      -23.0695393232        4.2901828508  SOLV      3731            0.0000000000
     11313      3742  TIP3      H2             -3.8618849752      -22.7830393232        3.5727628508  SOLV      3731            0.0000000000
     11314      3743  TIP3      OH2            -2.4577049752      -19.0666193232       16.8814128508  SOLV      3732            0.0000000000
     11315      3743  TIP3      H1             -3.0593849752      -19.6223293232       16.3860428508  SOLV      3732            0.0000000000
     11316      3743  TIP3      H2             -2.1763349752      -18.3996393232       16.2551528508  SOLV      3732            0.0000000000
     11317      3744  TIP3      OH2             1.5902050248      -18.2102693232        3.6868528508  SOLV      3733            0.0000000000
     11318      3744  TIP3      H1              2.3339950248      -17.6242193232        3.5470128508  SOLV      3733            0.0000000000
     11319      3744  TIP3      H2              0.8960150248      -17.6416893232        4.0200928508  SOLV      3733            0.0000000000
     11320      3745  TIP3      OH2           -14.3351149752      -31.8338493232       16.2886728508  SOLV      3734            0.0000000000
     11321      3745  TIP3      H1            -15.2278849752      -31.4953093232       16.2210728508  SOLV      3734            0.0000000000
     11322      3745  TIP3      H2            -14.4338349752      -32.6892393232       16.7067528508  SOLV      3734            0.0000000000
     11323      3746  TIP3      OH2            -2.0473049752      -24.0173193232        5.7126228508  SOLV      3735            0.0000000000
     11324      3746  TIP3      H1             -2.3245449752      -24.7453893232        6.2687328508  SOLV      3735            0.0000000000
     11325      3746  TIP3      H2             -1.1200049752      -23.8981193232        5.9178828508  SOLV      3735            0.0000000000
     11326      3747  TIP3      OH2           -14.6839149752      -20.0294093232       14.7236128508  SOLV      3736            0.0000000000
     11327      3747  TIP3      H1            -14.4668849752      -20.9611693232       14.6925828508  SOLV      3736            0.0000000000
     11328      3747  TIP3      H2            -14.4375649752      -19.7549093232       15.6068928508  SOLV      3736            0.0000000000
     11329      3748  TIP3      OH2            -8.8224549752      -21.5779093232        1.9328328508  SOLV      3737            0.0000000000
     11330      3748  TIP3      H1             -8.5834749752      -22.3260993232        1.3857228508  SOLV      3737            0.0000000000
     11331      3748  TIP3      H2             -9.0913249752      -21.9657393232        2.7656128508  SOLV      3737            0.0000000000
     11332      3749  TIP3      OH2            -9.8853949752      -22.0075293232        4.3890928508  SOLV      3738            0.0000000000
     11333      3749  TIP3      H1             -9.7385949752      -22.5275493232        5.1791828508  SOLV      3738            0.0000000000
     11334      3749  TIP3      H2             -9.8882249752      -21.1007693232        4.6956828508  SOLV      3738            0.0000000000
     11335      3750  TIP3      OH2           -13.4322849752      -24.7551993232        4.8996328508  SOLV      3739            0.0000000000
     11336      3750  TIP3      H1            -14.1183549752      -24.4029493232        5.4666028508  SOLV      3739            0.0000000000
     11337      3750  TIP3      H2            -12.9094949752      -23.9922393232        4.6530628508  SOLV      3739            0.0000000000
     11338      3751  TIP3      OH2            -5.6007749752      -32.0928193232       15.1785328508  SOLV      3740            0.0000000000
     11339      3751  TIP3      H1             -4.9019849752      -32.0189493232       15.8285028508  SOLV      3740            0.0000000000
     11340      3751  TIP3      H2             -5.9816349752      -32.9573193232       15.3328228508  SOLV      3740            0.0000000000
     11341      3752  TIP3      OH2            -4.8162849752      -32.4406493232        6.2757628508  SOLV      3741            0.0000000000
     11342      3752  TIP3      H1             -4.5964549752      -31.9691093232        5.4723028508  SOLV      3741            0.0000000000
     11343      3752  TIP3      H2             -4.2578849752      -32.0463893232        6.9458228508  SOLV      3741            0.0000000000
     11344      3753  TIP3      OH2            -7.1476749752      -20.3101693232        5.1385128508  SOLV      3742            0.0000000000
     11345      3753  TIP3      H1             -7.9640649752      -19.8131993232        5.1909428508  SOLV      3742            0.0000000000
     11346      3753  TIP3      H2             -6.6180449752      -19.8348193232        4.4983928508  SOLV      3742            0.0000000000
     11347      3754  TIP3      OH2            -7.6162949752      -30.7127693232        7.1106028508  SOLV      3743            0.0000000000
     11348      3754  TIP3      H1             -6.8040349752      -30.2084493232        7.1567728508  SOLV      3743            0.0000000000
     11349      3754  TIP3      H2             -7.8609949752      -30.8577993232        8.0245628508  SOLV      3743            0.0000000000
     11350      3755  TIP3      OH2            -7.0806549752      -29.7264993232       16.2952628508  SOLV      3744            0.0000000000
     11351      3755  TIP3      H1             -6.9616249752      -29.1529593232       17.0523028508  SOLV      3744            0.0000000000
     11352      3755  TIP3      H2             -6.4251949752      -30.4145593232       16.4100428508  SOLV      3744            0.0000000000
     11353      3756  TIP3      OH2            -9.8093649752      -19.2664493232        5.1202028508  SOLV      3745            0.0000000000
     11354      3756  TIP3      H1             -9.6484949752      -18.4666993232        4.6194628508  SOLV      3745            0.0000000000
     11355      3756  TIP3      H2            -10.0065849752      -18.9598493232        6.0052628508  SOLV      3745            0.0000000000
     11356      3757  TIP3      OH2           -11.0749249752      -32.5685293232        4.7359628508  SOLV      3746            0.0000000000
     11357      3757  TIP3      H1            -11.1584449752      -31.6802193232        5.0826028508  SOLV      3746            0.0000000000
     11358      3757  TIP3      H2            -10.1848949752      -32.8338593232        4.9676428508  SOLV      3746            0.0000000000
     11359      3758  TIP3      OH2            -0.8760749752      -31.8194693232       17.1302328508  SOLV      3747            0.0000000000
     11360      3758  TIP3      H1             -1.7924949752      -31.5572993232       17.0426028508  SOLV      3747            0.0000000000
     11361      3758  TIP3      H2             -0.5405749752      -31.8225693232       16.2337628508  SOLV      3747            0.0000000000
     11362      3759  TIP3      OH2            -2.2739749752      -28.0693693232       11.2259628508  SOLV      3748            0.0000000000
     11363      3759  TIP3      H1             -3.0715349752      -28.4843493232       10.8974628508  SOLV      3748            0.0000000000
     11364      3759  TIP3      H2             -1.8288649752      -28.7599993232       11.7170128508  SOLV      3748            0.0000000000
     11365      3760  TIP3      OH2           -12.8163949752      -22.1413093232        3.7964128508  SOLV      3749            0.0000000000
     11366      3760  TIP3      H1            -12.2242449752      -21.4418293232        4.0726528508  SOLV      3749            0.0000000000
     11367      3760  TIP3      H2            -12.3570949752      -22.5743593232        3.0768728508  SOLV      3749            0.0000000000
     11368      3761  TIP3      OH2           -14.5004749752      -29.4770093232        2.9123528508  SOLV      3750            0.0000000000
     11369      3761  TIP3      H1            -14.5452149752      -28.5376993232        3.0910528508  SOLV      3750            0.0000000000
     11370      3761  TIP3      H2            -15.3881549752      -29.7125193232        2.6425628508  SOLV      3750            0.0000000000
     11371      3762  TIP3      OH2            -1.1875149752      -18.8131193232       12.8483128508  SOLV      3751            0.0000000000
     11372      3762  TIP3      H1             -1.3430849752      -18.1346793232       12.1912428508  SOLV      3751            0.0000000000
     11373      3762  TIP3      H2             -0.2548749752      -18.7411893232       13.0513728508  SOLV      3751            0.0000000000
     11374      3763  TIP3      OH2           -14.7619449752      -20.7546393232        7.7460328508  SOLV      3752            0.0000000000
     11375      3763  TIP3      H1            -15.5940849752      -20.2823693232        7.7731728508  SOLV      3752            0.0000000000
     11376      3763  TIP3      H2            -14.2161149752      -20.2448793232        7.1473428508  SOLV      3752            0.0000000000
     11377      3764  TIP3      OH2           -15.4735749752      -18.1422693232       19.0758328508  SOLV      3753            0.0000000000
     11378      3764  TIP3      H1            -14.9333549752      -18.3588693232       19.8357528508  SOLV      3753            0.0000000000
     11379      3764  TIP3      H2            -15.9547749752      -18.9476693232       18.8860828508  SOLV      3753            0.0000000000
     11380      3765  TIP3      OH2           -10.8762349752      -19.2228293232       20.6962528508  SOLV      3754            0.0000000000
     11381      3765  TIP3      H1            -10.1085149752      -19.6817493232       21.0371728508  SOLV      3754            0.0000000000
     11382      3765  TIP3      H2            -10.8976149752      -19.4488493232       19.7663728508  SOLV      3754            0.0000000000
     11383      3766  TIP3      OH2            -6.7842749752      -19.7147693232        2.0714328508  SOLV      3755            0.0000000000
     11384      3766  TIP3      H1             -7.4281749752      -20.3459093232        2.3928028508  SOLV      3755            0.0000000000
     11385      3766  TIP3      H2             -6.0224449752      -20.2459693232        1.8397828508  SOLV      3755            0.0000000000
     11386      3767  TIP3      OH2            -4.2993649752      -20.8427193232       19.4254028508  SOLV      3756            0.0000000000
     11387      3767  TIP3      H1             -4.6504149752      -21.6994193232       19.6684428508  SOLV      3756            0.0000000000
     11388      3767  TIP3      H2             -3.5730449752      -20.7000493232       20.0323028508  SOLV      3756            0.0000000000
     11389      3768  TIP3      OH2            -2.1799849752      -19.8977793232        2.3052328508  SOLV      3757            0.0000000000
     11390      3768  TIP3      H1             -1.8969449752      -20.6922593232        2.7579228508  SOLV      3757            0.0000000000
     11391      3768  TIP3      H2             -1.4401949752      -19.6646793232        1.7443428508  SOLV      3757            0.0000000000
     11392      3769  TIP3      OH2           -15.5666249752      -24.3318593232       20.0302628508  SOLV      3758            0.0000000000
     11393      3769  TIP3      H1            -15.4225749752      -25.2337893232       19.7439328508  SOLV      3758            0.0000000000
     11394      3769  TIP3      H2            -16.3388849752      -24.0456493232       19.5424928508  SOLV      3758            0.0000000000
     11395      3770  TIP3      OH2           -11.2252549752      -23.9882893232        2.1627228508  SOLV      3759            0.0000000000
     11396      3770  TIP3      H1            -11.1608449752      -24.7823293232        2.6933628508  SOLV      3759            0.0000000000
     11397      3770  TIP3      H2            -10.5723349752      -24.1070093232        1.4729228508  SOLV      3759            0.0000000000
     11398      3771  TIP3      OH2            -8.9110149752      -24.3620493232       19.4629028508  SOLV      3760            0.0000000000
     11399      3771  TIP3      H1             -9.2396349752      -24.0912393232       18.6056428508  SOLV      3760            0.0000000000
     11400      3771  TIP3      H2             -8.7591949752      -25.3030693232       19.3754028508  SOLV      3760            0.0000000000
     11401      3772  TIP3      OH2            -5.8729149752      -22.9411193232        1.8985228508  SOLV      3761            0.0000000000
     11402      3772  TIP3      H1             -6.1415049752      -22.7609093232        2.7994128508  SOLV      3761            0.0000000000
     11403      3772  TIP3      H2             -6.0793549752      -23.8664993232        1.7671028508  SOLV      3761            0.0000000000
     11404      3773  TIP3      OH2            -3.1764949752      -24.4463193232       16.8461328508  SOLV      3762            0.0000000000
     11405      3773  TIP3      H1             -2.4310149752      -23.8579493232       16.7265328508  SOLV      3762            0.0000000000
     11406      3773  TIP3      H2             -3.9338149752      -23.8643493232       16.9094428508  SOLV      3762            0.0000000000
     11407      3774  TIP3      OH2           -14.7339749752      -27.1315293232       19.4501928508  SOLV      3763            0.0000000000
     11408      3774  TIP3      H1            -14.3258549752      -27.9888693232       19.3292528508  SOLV      3763            0.0000000000
     11409      3774  TIP3      H2            -14.9942149752      -27.1173993232       20.3712228508  SOLV      3763            0.0000000000
     11410      3775  TIP3      OH2           -10.0758749752      -26.0156693232        4.4685228508  SOLV      3764            0.0000000000
     11411      3775  TIP3      H1            -10.5356749752      -26.4998393232        5.1543728508  SOLV      3764            0.0000000000
     11412      3775  TIP3      H2             -9.8210049752      -26.6841293232        3.8325728508  SOLV      3764            0.0000000000
     11413      3776  TIP3      OH2           -10.7869449752      -28.1229593232       16.8244828508  SOLV      3765            0.0000000000
     11414      3776  TIP3      H1            -11.4053349752      -27.4482993232       17.1049528508  SOLV      3765            0.0000000000
     11415      3776  TIP3      H2            -10.4428249752      -27.8015693232       15.9911028508  SOLV      3765            0.0000000000
     11416      3777  TIP3      OH2            -9.0048349752      -27.7724893232        2.7308428508  SOLV      3766            0.0000000000
     11417      3777  TIP3      H1             -9.1853349752      -27.9273693232        1.8036728508  SOLV      3766            0.0000000000
     11418      3777  TIP3      H2             -8.0547849752      -27.6646193232        2.7756328508  SOLV      3766            0.0000000000
     11419      3778  TIP3      OH2            -5.7671249752      -25.6514293232       20.1019628508  SOLV      3767            0.0000000000
     11420      3778  TIP3      H1             -4.8140049752      -25.5675193232       20.0745628508  SOLV      3767            0.0000000000
     11421      3778  TIP3      H2             -5.9276649752      -26.3632493232       20.7214528508  SOLV      3767            0.0000000000
     11422      3779  TIP3      OH2             0.3849950248      -25.4180693232        2.1766528508  SOLV      3768            0.0000000000
     11423      3779  TIP3      H1              0.1114750248      -25.8425193232        1.3634828508  SOLV      3768            0.0000000000
     11424      3779  TIP3      H2              0.4244050248      -24.4866193232        1.9596928508  SOLV      3768            0.0000000000
     11425      3780  TIP3      OH2           -10.4475749752      -30.7678793232       17.9067928508  SOLV      3769            0.0000000000
     11426      3780  TIP3      H1            -10.2974849752      -31.4967493232       17.3047628508  SOLV      3769            0.0000000000
     11427      3780  TIP3      H2            -10.4453349752      -29.9907093232       17.3480128508  SOLV      3769            0.0000000000
     11428      3781  TIP3      OH2           -10.0350049752      -32.3982993232       15.3995328508  SOLV      3770            0.0000000000
     11429      3781  TIP3      H1             -9.4992549752      -31.9466293232       14.7474628508  SOLV      3770            0.0000000000
     11430      3781  TIP3      H2            -10.8870449752      -32.5063193232       14.9769428508  SOLV      3770            0.0000000000
     11431      3782  TIP3      OH2            -8.4531649752      -26.9586793232       15.6390528508  SOLV      3771            0.0000000000
     11432      3782  TIP3      H1             -7.7026849752      -27.1149293232       15.0658328508  SOLV      3771            0.0000000000
     11433      3782  TIP3      H2             -8.7923349752      -26.1070193232       15.3636028508  SOLV      3771            0.0000000000
     11434      3783  TIP3      OH2            -4.0375449752      -29.1434993232       20.6675828508  SOLV      3772            0.0000000000
     11435      3783  TIP3      H1             -3.8454149752      -30.0745593232       20.5560328508  SOLV      3772            0.0000000000
     11436      3783  TIP3      H2             -3.1799149752      -28.7185493232       20.6571228508  SOLV      3772            0.0000000000
     11437      3784  TIP3      OH2            -2.7208249752      -26.3549793232       18.7448528508  SOLV      3773            0.0000000000
     11438      3784  TIP3      H1             -3.0023249752      -25.6455193232       18.1672328508  SOLV      3773            0.0000000000
     11439      3784  TIP3      H2             -1.7783949752      -26.4276793232       18.5939728508  SOLV      3773            0.0000000000
     11440      3785  TIP3      OH2           -11.9689449752      -29.5695293232       19.8183528508  SOLV      3774            0.0000000000
     11441      3785  TIP3      H1            -12.7360449752      -30.1020493232       19.6081128508  SOLV      3774            0.0000000000
     11442      3785  TIP3      H2            -11.2900449752      -29.8794893232       19.2189828508  SOLV      3774            0.0000000000
     11443      3786  TIP3      OH2            -7.9654049752      -30.6201893232       19.3947328508  SOLV      3775            0.0000000000
     11444      3786  TIP3      H1             -8.2008649752      -30.8395193232       20.2962228508  SOLV      3775            0.0000000000
     11445      3786  TIP3      H2             -8.7487149752      -30.8270693232       18.8849828508  SOLV      3775            0.0000000000
     11446      3787  TIP3      OH2            -5.2497449752      -31.4928393232       18.4700828508  SOLV      3776            0.0000000000
     11447      3787  TIP3      H1             -6.1972049752      -31.4608693232       18.6024128508  SOLV      3776            0.0000000000
     11448      3787  TIP3      H2             -4.9370749752      -32.1181293232       19.1239028508  SOLV      3776            0.0000000000
     11449      3788  TIP3      OH2            -9.1076649752      -17.0821193232        3.7322028508  SOLV      3777            0.0000000000
     11450      3788  TIP3      H1             -8.1745949752      -16.9242493232        3.8760428508  SOLV      3777            0.0000000000
     11451      3788  TIP3      H2             -9.3717849752      -16.4068193232        3.1073528508  SOLV      3777            0.0000000000
     11452      3789  TIP3      OH2           -15.5391749752      -22.4457393232        3.2150128508  SOLV      3778            0.0000000000
     11453      3789  TIP3      H1            -14.6252549752      -22.3668493232        3.4884028508  SOLV      3778            0.0000000000
     11454      3789  TIP3      H2            -15.5318649752      -23.1327793232        2.5485728508  SOLV      3778            0.0000000000
     11455      3790  TIP3      OH2           -16.8901149752      -17.0528893232        8.2924028508  SOLV      3779            0.0000000000
     11456      3790  TIP3      H1            -17.5374049752      -17.5147193232        7.7595228508  SOLV      3779            0.0000000000
     11457      3790  TIP3      H2            -16.5356549752      -17.7245593232        8.8750228508  SOLV      3779            0.0000000000
     11458      3791  TIP3      OH2           -16.0201949752      -18.9721893232       10.0970228508  SOLV      3780            0.0000000000
     11459      3791  TIP3      H1            -16.3545149752      -19.8524593232       10.2690428508  SOLV      3780            0.0000000000
     11460      3791  TIP3      H2            -15.7979549752      -18.6266893232       10.9615828508  SOLV      3780            0.0000000000
     11461      3792  TIP3      OH2             1.5282850248      -18.1625493232       13.0775028508  SOLV      3781            0.0000000000
     11462      3792  TIP3      H1              1.5069550248      -17.9777093232       14.0164428508  SOLV      3781            0.0000000000
     11463      3792  TIP3      H2              2.2189050248      -17.5941493232       12.7366428508  SOLV      3781            0.0000000000
     11464      3793  TIP3      OH2             1.0915750248      -18.5954393232       15.9994128508  SOLV      3782            0.0000000000
     11465      3793  TIP3      H1              0.6044450248      -19.3310293232       15.6281528508  SOLV      3782            0.0000000000
     11466      3793  TIP3      H2              1.6408450248      -18.9890493232       16.6773528508  SOLV      3782            0.0000000000
     11467      3794  TIP3      OH2            -0.4576949752      -22.8056293232       20.6374428508  SOLV      3783            0.0000000000
     11468      3794  TIP3      H1             -1.3235849752      -22.9106593232       21.0316728508  SOLV      3783            0.0000000000
     11469      3794  TIP3      H2             -0.0811049752      -22.0472993232       21.0839128508  SOLV      3783            0.0000000000
     11470      3795  TIP3      OH2             0.8432750248      -24.5492593232        6.1516928508  SOLV      3784            0.0000000000
     11471      3795  TIP3      H1              1.6934150248      -24.1281693232        6.2788528508  SOLV      3784            0.0000000000
     11472      3795  TIP3      H2              0.8487850248      -25.2892493232        6.7588328508  SOLV      3784            0.0000000000
     11473      3796  TIP3      OH2             1.2378350248      -26.4955193232        7.9752628508  SOLV      3785            0.0000000000
     11474      3796  TIP3      H1              0.5112950248      -26.9752593232        8.3730228508  SOLV      3785            0.0000000000
     11475      3796  TIP3      H2              1.8191650248      -26.2900493232        8.7074228508  SOLV      3785            0.0000000000
     11476      3797  TIP3      OH2             0.9969550248      -23.7107693232       12.9230228508  SOLV      3786            0.0000000000
     11477      3797  TIP3      H1              1.8303750248      -24.0887693232       12.6423828508  SOLV      3786            0.0000000000
     11478      3797  TIP3      H2              1.1089850248      -22.7676493232       12.8039328508  SOLV      3786            0.0000000000
     11479      3798  TIP3      OH2            -0.5168149752      -20.8330193232       15.2298628508  SOLV      3787            0.0000000000
     11480      3798  TIP3      H1             -1.1642849752      -20.5078693232       15.8553828508  SOLV      3787            0.0000000000
     11481      3798  TIP3      H2             -1.0344149752      -21.2732493232       14.5556928508  SOLV      3787            0.0000000000
     11482      3799  TIP3      OH2             1.5061450248      -26.5946693232        4.3663928508  SOLV      3788            0.0000000000
     11483      3799  TIP3      H1              0.9842550248      -26.2382593232        3.6474828508  SOLV      3788            0.0000000000
     11484      3799  TIP3      H2              1.4730650248      -25.9198893232        5.0444828508  SOLV      3788            0.0000000000
     11485      3800  TIP3      OH2            -0.1449549752      -29.3551093232        2.9171028508  SOLV      3789            0.0000000000
     11486      3800  TIP3      H1             -0.0485149752      -28.6884093232        2.2370728508  SOLV      3789            0.0000000000
     11487      3800  TIP3      H2             -0.2849949752      -30.1704793232        2.4356528508  SOLV      3789            0.0000000000
     11488      3801  TIP3      OH2            -0.9754849752      -27.9748693232        8.5381328508  SOLV      3790            0.0000000000
     11489      3801  TIP3      H1             -1.1256049752      -28.9200093232        8.5179128508  SOLV      3790            0.0000000000
     11490      3801  TIP3      H2             -1.3290349752      -27.6937293232        9.3820428508  SOLV      3790            0.0000000000
     11491      3802  TIP3      OH2           -15.9402449752      -25.8966493232       12.5485128508  SOLV      3791            0.0000000000
     11492      3802  TIP3      H1            -15.7559549752      -25.9784793232       11.6128028508  SOLV      3791            0.0000000000
     11493      3802  TIP3      H2            -15.0909549752      -26.0209493232       12.9721528508  SOLV      3791            0.0000000000
     11494      3803  TIP3      OH2            -0.1191949752      -26.0045393232       18.1769628508  SOLV      3792            0.0000000000
     11495      3803  TIP3      H1              0.4635350248      -26.7393093232       18.3686828508  SOLV      3792            0.0000000000
     11496      3803  TIP3      H2              0.4447350248      -25.2325093232       18.2235428508  SOLV      3792            0.0000000000
     11497      3804  TIP3      OH2             1.3775150248      -28.1019593232       18.8615028508  SOLV      3793            0.0000000000
     11498      3804  TIP3      H1              0.5141850248      -28.4807493232       18.6959728508  SOLV      3793            0.0000000000
     11499      3804  TIP3      H2              1.9818850248      -28.8404793232       18.7870828508  SOLV      3793            0.0000000000
     11500      3805  TIP3      OH2            -0.8975749752      -31.9471293232        2.0346528508  SOLV      3794            0.0000000000
     11501      3805  TIP3      H1             -0.2869949752      -32.3184493232        2.6714728508  SOLV      3794            0.0000000000
     11502      3805  TIP3      H2             -1.7344249752      -32.3684393232        2.2306528508  SOLV      3794            0.0000000000
     11503      3806  TIP3      OH2            -1.2650049752      -30.3922893232        7.0006428508  SOLV      3795            0.0000000000
     11504      3806  TIP3      H1             -0.9852949752      -31.2992493232        7.1248128508  SOLV      3795            0.0000000000
     11505      3806  TIP3      H2             -0.5058349752      -29.9581393232        6.6115628508  SOLV      3795            0.0000000000
     11506      3807  TIP3      OH2            -0.6531749752      -29.8105493232       12.4365328508  SOLV      3796            0.0000000000
     11507      3807  TIP3      H1              0.2796250248      -29.5985593232       12.4021328508  SOLV      3796            0.0000000000
     11508      3807  TIP3      H2             -0.8884249752      -29.7093393232       13.3588328508  SOLV      3796            0.0000000000
     11509      3808  TIP3      OH2            -0.6239849752      -29.0740193232       15.2124728508  SOLV      3797            0.0000000000
     11510      3808  TIP3      H1             -1.4668549752      -28.8059793232       15.5784528508  SOLV      3797            0.0000000000
     11511      3808  TIP3      H2             -0.1815549752      -28.2518293232       15.0015828508  SOLV      3797            0.0000000000
     11512      3809  TIP3      OH2           -15.1215149752      -32.3139893232       11.5806828508  SOLV      3798            0.0000000000
     11513      3809  TIP3      H1            -14.6763549752      -33.1057393232       11.8826528508  SOLV      3798            0.0000000000
     11514      3809  TIP3      H2            -14.6552149752      -31.5974693232       12.0112428508  SOLV      3798            0.0000000000
     11515      3810  TIP3      OH2           -16.8174849752      -29.3146893232       12.6497028508  SOLV      3799            0.0000000000
     11516      3810  TIP3      H1            -16.3255049752      -29.5356393232       11.8589028508  SOLV      3799            0.0000000000
     11517      3810  TIP3      H2            -16.4553949752      -28.4743493232       12.9306528508  SOLV      3799            0.0000000000
     11518      3811  TIP3      OH2            -1.7331149752      -18.0726093232        8.6496828508  SOLV      3800            0.0000000000
     11519      3811  TIP3      H1             -1.0808249752      -18.4203993232        8.0415928508  SOLV      3800            0.0000000000
     11520      3811  TIP3      H2             -1.2227349752      -17.5842893232        9.2956528508  SOLV      3800            0.0000000000
     11521      3812  TIP3      OH2           -14.3483649752      -21.1434693232       19.1927728508  SOLV      3801            0.0000000000
     11522      3812  TIP3      H1            -15.1691149752      -20.9688193232       18.7322428508  SOLV      3801            0.0000000000
     11523      3812  TIP3      H2            -14.6005849752      -21.2169993232       20.1132128508  SOLV      3801            0.0000000000
     11524      3813  TIP3      OH2           -11.3940749752      -20.1693493232       15.4511728508  SOLV      3802            0.0000000000
     11525      3813  TIP3      H1            -11.8189649752      -19.3594993232       15.1686328508  SOLV      3802            0.0000000000
     11526      3813  TIP3      H2            -10.4897949752      -20.0839393232       15.1491528508  SOLV      3802            0.0000000000
     11527      3814  TIP3      OH2            -7.0829349752      -18.7703493232       18.4105428508  SOLV      3803            0.0000000000
     11528      3814  TIP3      H1             -6.8981849752      -19.1037393232       19.2885728508  SOLV      3803            0.0000000000
     11529      3814  TIP3      H2             -6.2364849752      -18.4604893232       18.0884628508  SOLV      3803            0.0000000000
     11530      3815  TIP3      OH2            -4.7378949752      -17.4844593232       17.6546828508  SOLV      3804            0.0000000000
     11531      3815  TIP3      H1             -4.0610049752      -18.1172293232       17.4146028508  SOLV      3804            0.0000000000
     11532      3815  TIP3      H2             -4.4160149752      -17.0834093232       18.4620128508  SOLV      3804            0.0000000000
     11533      3816  TIP3      OH2           -13.9924049752      -16.9129593232       15.4987028508  SOLV      3805            0.0000000000
     11534      3816  TIP3      H1            -14.7127649752      -16.4728593232       15.0474728508  SOLV      3805            0.0000000000
     11535      3816  TIP3      H2            -14.3580049752      -17.1634893232       16.3471028508  SOLV      3805            0.0000000000
     11536      3817  TIP3      OH2           -11.5251449752      -17.3125693232       14.5284228508  SOLV      3806            0.0000000000
     11537      3817  TIP3      H1            -12.3899249752      -17.2407193232       14.9324328508  SOLV      3806            0.0000000000
     11538      3817  TIP3      H2            -11.5802449752      -16.7658393232       13.7446728508  SOLV      3806            0.0000000000
     11539      3818  TIP3      OH2            -6.8145849752      -17.4246793232       13.7040228508  SOLV      3807            0.0000000000
     11540      3818  TIP3      H1             -7.2711849752      -16.8957093232       13.0498628508  SOLV      3807            0.0000000000
     11541      3818  TIP3      H2             -6.6517849752      -16.8215393232       14.4292528508  SOLV      3807            0.0000000000
     11542      3819  TIP3      OH2            -4.4869549752      -18.5467193232       14.6490528508  SOLV      3808            0.0000000000
     11543      3819  TIP3      H1             -5.3915849752      -18.3816993232       14.3832628508  SOLV      3808            0.0000000000
     11544      3819  TIP3      H2             -4.0580949752      -17.6934993232       14.5833928508  SOLV      3808            0.0000000000
     11545      3820  TIP3      OH2            -1.8827649752      -16.9768093232       14.9438328508  SOLV      3809            0.0000000000
     11546      3820  TIP3      H1             -2.0645649752      -16.0609193232       14.7333228508  SOLV      3809            0.0000000000
     11547      3820  TIP3      H2             -1.7059849752      -17.3870993232       14.0972928508  SOLV      3809            0.0000000000
     11548      3821  TIP3      OH2           -14.5775949752      -18.2897093232       12.4088828508  SOLV      3810            0.0000000000
     11549      3821  TIP3      H1            -14.5959949752      -18.7151993232       13.2661128508  SOLV      3810            0.0000000000
     11550      3821  TIP3      H2            -13.7728049752      -18.6082093232       12.0001028508  SOLV      3810            0.0000000000
     11551      3822  TIP3      OH2           -12.4362849752      -19.5798393232       11.0638728508  SOLV      3811            0.0000000000
     11552      3822  TIP3      H1            -12.6552149752      -20.4960993232       11.2334728508  SOLV      3811            0.0000000000
     11553      3822  TIP3      H2            -11.6120649752      -19.4397993232       11.5300128508  SOLV      3811            0.0000000000
     11554      3823  TIP3      OH2            -9.8990349752      -19.1099093232       11.9126728508  SOLV      3812            0.0000000000
     11555      3823  TIP3      H1             -9.6864649752      -19.9980093232       11.6257628508  SOLV      3812            0.0000000000
     11556      3823  TIP3      H2             -9.8345249752      -19.1441393232       12.8670728508  SOLV      3812            0.0000000000
     11557      3824  TIP3      OH2           -15.3266249752      -19.0657893232        5.5801128508  SOLV      3813            0.0000000000
     11558      3824  TIP3      H1            -16.0116349752      -19.1038993232        4.9126228508  SOLV      3813            0.0000000000
     11559      3824  TIP3      H2            -15.3229049752      -18.1530293232        5.8683228508  SOLV      3813            0.0000000000
     11560      3825  TIP3      OH2            -6.4622749752      -17.8562993232        3.9777328508  SOLV      3814            0.0000000000
     11561      3825  TIP3      H1             -5.5962549752      -17.4895593232        3.7995528508  SOLV      3814            0.0000000000
     11562      3825  TIP3      H2             -6.7089949752      -18.2954993232        3.1638128508  SOLV      3814            0.0000000000
     11563      3826  TIP3      OH2             0.2466850248      -18.2932693232        6.6568428508  SOLV      3815            0.0000000000
     11564      3826  TIP3      H1              0.0523950248      -19.0410593232        6.0918028508  SOLV      3815            0.0000000000
     11565      3826  TIP3      H2              0.2076950248      -17.5352593232        6.0736328508  SOLV      3815            0.0000000000
     11566      3827  TIP3      OH2           -13.5085049752      -18.1457093232        2.6053228508  SOLV      3816            0.0000000000
     11567      3827  TIP3      H1            -13.7760449752      -17.8594193232        3.4786328508  SOLV      3816            0.0000000000
     11568      3827  TIP3      H2            -12.7372449752      -18.6917893232        2.7575728508  SOLV      3816            0.0000000000
     11569      3828  TIP3      OH2            -0.5356949752      -19.5420293232       18.8070228508  SOLV      3817            0.0000000000
     11570      3828  TIP3      H1             -1.3175049752      -19.7282293232       18.2870828508  SOLV      3817            0.0000000000
     11571      3828  TIP3      H2             -0.6077049752      -18.6125993232       19.0242728508  SOLV      3817            0.0000000000
     11572      3829  TIP3      OH2            13.8703450248      -25.6555893232        8.8377428508  SOLV      3818            0.0000000000
     11573      3829  TIP3      H1             13.9594550248      -24.7117693232        8.7054528508  SOLV      3818            0.0000000000
     11574      3829  TIP3      H2             13.2321050248      -25.9309493232        8.1796828508  SOLV      3818            0.0000000000
     11575      3830  TIP3      OH2            12.8034750248      -26.4005193232       12.2565628508  SOLV      3819            0.0000000000
     11576      3830  TIP3      H1             12.7652250248      -27.0468893232       12.9615228508  SOLV      3819            0.0000000000
     11577      3830  TIP3      H2             12.4811250248      -26.8670793232       11.4854328508  SOLV      3819            0.0000000000
     11578      3831  TIP3      OH2             5.1719750248      -26.7863093232       13.8495528508  SOLV      3820            0.0000000000
     11579      3831  TIP3      H1              5.2131850248      -27.4119793232       14.5727928508  SOLV      3820            0.0000000000
     11580      3831  TIP3      H2              5.8747450248      -26.1624493232       14.0315928508  SOLV      3820            0.0000000000
     11581      3832  TIP3      OH2            16.5094950248      -23.4614793232       10.5580728508  SOLV      3821            0.0000000000
     11582      3832  TIP3      H1             16.0687650248      -24.1818793232       11.0086328508  SOLV      3821            0.0000000000
     11583      3832  TIP3      H2             16.4964650248      -22.7407593232       11.1878428508  SOLV      3821            0.0000000000
     11584      3833  TIP3      OH2             6.0952850248      -22.3364193232       12.3844628508  SOLV      3822            0.0000000000
     11585      3833  TIP3      H1              5.7258050248      -23.1383693232       12.0148928508  SOLV      3822            0.0000000000
     11586      3833  TIP3      H2              7.0363950248      -22.5049293232       12.4308028508  SOLV      3822            0.0000000000
     11587      3834  TIP3      OH2             2.7053350248      -28.6761593232        7.7773428508  SOLV      3823            0.0000000000
     11588      3834  TIP3      H1              2.2576750248      -27.8302893232        7.7589928508  SOLV      3823            0.0000000000
     11589      3834  TIP3      H2              2.1444550248      -29.2557393232        7.2618528508  SOLV      3823            0.0000000000
     11590      3835  TIP3      OH2             3.4159450248      -26.5141993232        9.9031428508  SOLV      3824            0.0000000000
     11591      3835  TIP3      H1              3.6292950248      -27.2840393232       10.4304428508  SOLV      3824            0.0000000000
     11592      3835  TIP3      H2              4.1537050248      -26.4245293232        9.2999028508  SOLV      3824            0.0000000000
     11593      3836  TIP3      OH2            13.6210450248      -18.3573093232       10.7701128508  SOLV      3825            0.0000000000
     11594      3836  TIP3      H1             14.2406850248      -19.0338393232       10.4970328508  SOLV      3825            0.0000000000
     11595      3836  TIP3      H2             13.4127850248      -18.5752293232       11.6786028508  SOLV      3825            0.0000000000
     11596      3837  TIP3      OH2            11.1929150248      -23.9683793232       12.6626628508  SOLV      3826            0.0000000000
     11597      3837  TIP3      H1             11.4967050248      -24.6542393232       12.0680728508  SOLV      3826            0.0000000000
     11598      3837  TIP3      H2             11.9143150248      -23.8495093232       13.2804628508  SOLV      3826            0.0000000000
     11599      3838  TIP3      OH2            19.8558950248      -32.3668493232       13.5232828508  SOLV      3827            0.0000000000
     11600      3838  TIP3      H1             19.9051150248      -31.7567293232       14.2591928508  SOLV      3827            0.0000000000
     11601      3838  TIP3      H2             20.2814050248      -31.9057593232       12.8003928508  SOLV      3827            0.0000000000
     11602      3839  TIP3      OH2            14.3336150248      -29.5741393232       12.9901428508  SOLV      3828            0.0000000000
     11603      3839  TIP3      H1             14.4762050248      -30.5204393232       13.0103028508  SOLV      3828            0.0000000000
     11604      3839  TIP3      H2             14.2275150248      -29.3671593232       12.0616328508  SOLV      3828            0.0000000000
     11605      3840  TIP3      OH2             7.4884450248      -31.4724993232       10.2626228508  SOLV      3829            0.0000000000
     11606      3840  TIP3      H1              7.5315550248      -30.6126493232        9.8442528508  SOLV      3829            0.0000000000
     11607      3840  TIP3      H2              7.0308550248      -32.0250293232        9.6289428508  SOLV      3829            0.0000000000
     11608      3841  TIP3      OH2            15.2107150248      -31.3419393232        8.6634528508  SOLV      3830            0.0000000000
     11609      3841  TIP3      H1             15.8571450248      -31.6706193232        9.2882128508  SOLV      3830            0.0000000000
     11610      3841  TIP3      H2             15.7206550248      -30.8240393232        8.0405928508  SOLV      3830            0.0000000000
     11611      3842  TIP3      OH2             4.1085950248      -29.0759193232       11.0247628508  SOLV      3831            0.0000000000
     11612      3842  TIP3      H1              4.7622550248      -29.6257493232       11.4567728508  SOLV      3831            0.0000000000
     11613      3842  TIP3      H2              4.1325250248      -29.3500193232       10.1079628508  SOLV      3831            0.0000000000
     11614      3843  TIP3      OH2             9.2650450248      -27.5257893232       10.2399128508  SOLV      3832            0.0000000000
     11615      3843  TIP3      H1              9.8811450248      -28.0522493232       10.7493128508  SOLV      3832            0.0000000000
     11616      3843  TIP3      H2              8.6789250248      -28.1659193232        9.8362728508  SOLV      3832            0.0000000000
     11617      3844  TIP3      OH2            20.2473550248      -30.8889293232       15.7592628508  SOLV      3833            0.0000000000
     11618      3844  TIP3      H1             19.5588150248      -30.2308593232       15.6639228508  SOLV      3833            0.0000000000
     11619      3844  TIP3      H2             20.2628150248      -31.0861393232       16.6958028508  SOLV      3833            0.0000000000
     11620      3845  TIP3      OH2             6.2986350248      -32.5546593232       14.3367028508  SOLV      3834            0.0000000000
     11621      3845  TIP3      H1              6.0798050248      -32.0245993232       13.5703028508  SOLV      3834            0.0000000000
     11622      3845  TIP3      H2              5.6307250248      -32.3281093232       14.9838428508  SOLV      3834            0.0000000000
     11623      3846  TIP3      OH2            13.6676150248      -23.0545493232        7.8806128508  SOLV      3835            0.0000000000
     11624      3846  TIP3      H1             13.3721250248      -23.3773193232        7.0293028508  SOLV      3835            0.0000000000
     11625      3846  TIP3      H2             13.3433950248      -22.1548793232        7.9218728508  SOLV      3835            0.0000000000
     11626      3847  TIP3      OH2             8.8677750248      -24.8790893232       14.6240728508  SOLV      3836            0.0000000000
     11627      3847  TIP3      H1              8.1276850248      -24.2809393232       14.7275928508  SOLV      3836            0.0000000000
     11628      3847  TIP3      H2              9.5817250248      -24.3251293232       14.3084328508  SOLV      3836            0.0000000000
     11629      3848  TIP3      OH2            16.9745550248      -32.0510093232       10.6440428508  SOLV      3837            0.0000000000
     11630      3848  TIP3      H1             16.7593550248      -32.8166693232       11.1766428508  SOLV      3837            0.0000000000
     11631      3848  TIP3      H2             17.6302950248      -31.5785493232       11.1568928508  SOLV      3837            0.0000000000
     11632      3849  TIP3      OH2             5.8923650248      -30.6624793232       12.2889228508  SOLV      3838            0.0000000000
     11633      3849  TIP3      H1              6.5059950248      -30.0297193232       12.6621628508  SOLV      3838            0.0000000000
     11634      3849  TIP3      H2              6.4044350248      -31.1349793232       11.6326128508  SOLV      3838            0.0000000000
     11635      3850  TIP3      OH2             7.2752050248      -22.9147893232       15.4112228508  SOLV      3839            0.0000000000
     11636      3850  TIP3      H1              7.2699650248      -22.0354393232       15.0331528508  SOLV      3839            0.0000000000
     11637      3850  TIP3      H2              6.4216150248      -22.9983793232       15.8362128508  SOLV      3839            0.0000000000
     11638      3851  TIP3      OH2             3.3962950248      -23.2439993232        6.1931528508  SOLV      3840            0.0000000000
     11639      3851  TIP3      H1              3.1243850248      -23.0148993232        5.3044428508  SOLV      3840            0.0000000000
     11640      3851  TIP3      H2              3.4418650248      -22.4061193232        6.6536828508  SOLV      3840            0.0000000000
     11641      3852  TIP3      OH2            17.0212650248      -21.6224093232       12.9060028508  SOLV      3841            0.0000000000
     11642      3852  TIP3      H1             16.0796350248      -21.5640193232       13.0676928508  SOLV      3841            0.0000000000
     11643      3852  TIP3      H2             17.2978750248      -20.7163593232       12.7689728508  SOLV      3841            0.0000000000
     11644      3853  TIP3      OH2            15.2733850248      -19.8410593232        9.5311628508  SOLV      3842            0.0000000000
     11645      3853  TIP3      H1             15.6986150248      -20.5482693232        9.0461228508  SOLV      3842            0.0000000000
     11646      3853  TIP3      H2             15.5903850248      -19.0397893232        9.1143828508  SOLV      3842            0.0000000000
     11647      3854  TIP3      OH2            16.4330350248      -21.9402093232        8.0398228508  SOLV      3843            0.0000000000
     11648      3854  TIP3      H1             16.1755150248      -22.6301993232        7.4284128508  SOLV      3843            0.0000000000
     11649      3854  TIP3      H2             16.5041150248      -22.3830893232        8.8854128508  SOLV      3843            0.0000000000
     11650      3855  TIP3      OH2            18.1190550248      -23.3735393232       16.5171728508  SOLV      3844            0.0000000000
     11651      3855  TIP3      H1             18.2586850248      -23.9652893232       15.7778728508  SOLV      3844            0.0000000000
     11652      3855  TIP3      H2             18.2863350248      -22.5009493232       16.1610528508  SOLV      3844            0.0000000000
     11653      3856  TIP3      OH2            12.5915950248      -26.4115893232        6.2897728508  SOLV      3845            0.0000000000
     11654      3856  TIP3      H1             11.8801450248      -25.8766193232        5.9378228508  SOLV      3845            0.0000000000
     11655      3856  TIP3      H2             13.2825550248      -26.3563793232        5.6296628508  SOLV      3845            0.0000000000
     11656      3857  TIP3      OH2            12.6455150248      -27.9541593232        3.3282728508  SOLV      3846            0.0000000000
     11657      3857  TIP3      H1             13.3465050248      -27.9314693232        3.9796728508  SOLV      3846            0.0000000000
     11658      3857  TIP3      H2             12.9478050248      -28.5821893232        2.6722028508  SOLV      3846            0.0000000000
     11659      3858  TIP3      OH2            19.9609850248      -27.0337393232       14.5832128508  SOLV      3847            0.0000000000
     11660      3858  TIP3      H1             19.3083950248      -26.3391793232       14.6723028508  SOLV      3847            0.0000000000
     11661      3858  TIP3      H2             20.4260150248      -26.8236493232       13.7733728508  SOLV      3847            0.0000000000
     11662      3859  TIP3      OH2            15.9973650248      -26.2022593232        7.2413628508  SOLV      3848            0.0000000000
     11663      3859  TIP3      H1             15.2654650248      -25.9738893232        7.8144228508  SOLV      3848            0.0000000000
     11664      3859  TIP3      H2             16.4445850248      -26.9159893232        7.6961128508  SOLV      3848            0.0000000000
     11665      3860  TIP3      OH2            15.8947150248      -28.0279993232       16.3090628508  SOLV      3849            0.0000000000
     11666      3860  TIP3      H1             15.9746250248      -27.2645593232       16.8809128508  SOLV      3849            0.0000000000
     11667      3860  TIP3      H2             15.2934850248      -27.7487593232       15.6185728508  SOLV      3849            0.0000000000
     11668      3861  TIP3      OH2             7.6427350248      -25.5716393232        9.1238628508  SOLV      3850            0.0000000000
     11669      3861  TIP3      H1              7.3122550248      -25.9422993232        8.3055628508  SOLV      3850            0.0000000000
     11670      3861  TIP3      H2              8.2311450248      -26.2422393232        9.4706928508  SOLV      3850            0.0000000000
     11671      3862  TIP3      OH2             9.0094850248      -22.1435793232       11.8050828508  SOLV      3851            0.0000000000
     11672      3862  TIP3      H1              8.9146150248      -22.7222693232       11.0485428508  SOLV      3851            0.0000000000
     11673      3862  TIP3      H2              9.7388450248      -22.5150093232       12.3013628508  SOLV      3851            0.0000000000
     11674      3863  TIP3      OH2             8.0092850248      -26.8030793232       12.7573628508  SOLV      3852            0.0000000000
     11675      3863  TIP3      H1              8.5745350248      -26.6816593232       11.9944828508  SOLV      3852            0.0000000000
     11676      3863  TIP3      H2              8.3281750248      -26.1655793232       13.3962128508  SOLV      3852            0.0000000000
     11677      3864  TIP3      OH2            14.3185050248      -21.2998893232       13.4914128508  SOLV      3853            0.0000000000
     11678      3864  TIP3      H1             14.0781650248      -20.6375793232       14.1393328508  SOLV      3853            0.0000000000
     11679      3864  TIP3      H2             14.1203250248      -22.1343693232       13.9163728508  SOLV      3853            0.0000000000
     11680      3865  TIP3      OH2             8.8893550248      -22.4038093232       17.4745528508  SOLV      3854            0.0000000000
     11681      3865  TIP3      H1              8.5781050248      -21.6214893232       17.9298728508  SOLV      3854            0.0000000000
     11682      3865  TIP3      H2              8.2393750248      -22.5568993232       16.7887528508  SOLV      3854            0.0000000000
     11683      3866  TIP3      OH2            14.8683150248      -27.0399693232        4.9264828508  SOLV      3855            0.0000000000
     11684      3866  TIP3      H1             15.4478650248      -26.8899393232        5.6733728508  SOLV      3855            0.0000000000
     11685      3866  TIP3      H2             15.2823150248      -26.5692293232        4.2031228508  SOLV      3855            0.0000000000
     11686      3867  TIP3      OH2             5.8093450248      -26.2056993232       16.7031228508  SOLV      3856            0.0000000000
     11687      3867  TIP3      H1              5.8796650248      -25.5550193232       17.4016228508  SOLV      3856            0.0000000000
     11688      3867  TIP3      H2              4.9185650248      -26.1029493232       16.3682128508  SOLV      3856            0.0000000000
     11689      3868  TIP3      OH2            12.5948050248      -20.3031193232        8.3617928508  SOLV      3857            0.0000000000
     11690      3868  TIP3      H1             13.0685650248      -20.0074893232        9.1392128508  SOLV      3857            0.0000000000
     11691      3868  TIP3      H2             12.0317350248      -19.5649593232        8.1287528508  SOLV      3857            0.0000000000
     11692      3869  TIP3      OH2             7.1289450248      -20.3323093232       18.2379328508  SOLV      3858            0.0000000000
     11693      3869  TIP3      H1              7.1364750248      -20.4683393232       17.2904828508  SOLV      3858            0.0000000000
     11694      3869  TIP3      H2              6.2129850248      -20.4494993232       18.4899328508  SOLV      3858            0.0000000000
     11695      3870  TIP3      OH2             6.6330050248      -26.5022093232        6.7131428508  SOLV      3859            0.0000000000
     11696      3870  TIP3      H1              6.3411350248      -25.7340393232        6.2222728508  SOLV      3859            0.0000000000
     11697      3870  TIP3      H2              5.9585250248      -27.1615893232        6.5502828508  SOLV      3859            0.0000000000
     11698      3871  TIP3      OH2            19.7562950248      -20.9236893232        3.1158428508  SOLV      3860            0.0000000000
     11699      3871  TIP3      H1             19.8296450248      -19.9846693232        3.2863728508  SOLV      3860            0.0000000000
     11700      3871  TIP3      H2             20.6618050248      -21.2288293232        3.0595728508  SOLV      3860            0.0000000000
     11701      3872  TIP3      OH2             2.7260150248      -24.1392893232       15.5281228508  SOLV      3861            0.0000000000
     11702      3872  TIP3      H1              2.2248550248      -24.1673493232       14.7130928508  SOLV      3861            0.0000000000
     11703      3872  TIP3      H2              2.7313850248      -25.0449693232       15.8378528508  SOLV      3861            0.0000000000
     11704      3873  TIP3      OH2             2.4762850248      -21.3589093232       12.4121428508  SOLV      3862            0.0000000000
     11705      3873  TIP3      H1              3.4223450248      -21.5032093232       12.3930928508  SOLV      3862            0.0000000000
     11706      3873  TIP3      H2              2.3639150248      -20.5746293232       12.9492628508  SOLV      3862            0.0000000000
     11707      3874  TIP3      OH2            20.6741350248      -20.6929393232       18.0945128508  SOLV      3863            0.0000000000
     11708      3874  TIP3      H1             20.6248150248      -21.6481293232       18.0572728508  SOLV      3863            0.0000000000
     11709      3874  TIP3      H2             19.8473650248      -20.4254093232       18.4958928508  SOLV      3863            0.0000000000
     11710      3875  TIP3      OH2            11.6525350248      -21.1190193232       16.9706528508  SOLV      3864            0.0000000000
     11711      3875  TIP3      H1             11.7399950248      -20.2925593232       17.4455628508  SOLV      3864            0.0000000000
     11712      3875  TIP3      H2             10.7890450248      -21.4486393232       17.2195828508  SOLV      3864            0.0000000000
     11713      3876  TIP3      OH2            12.0671150248      -17.3466493232        6.7767128508  SOLV      3865            0.0000000000
     11714      3876  TIP3      H1             11.9917150248      -17.4679293232        5.8302328508  SOLV      3865            0.0000000000
     11715      3876  TIP3      H2             12.0999850248      -16.3973793232        6.8951728508  SOLV      3865            0.0000000000
     11716      3877  TIP3      OH2             5.7204950248      -18.5579493232        8.5576128508  SOLV      3866            0.0000000000
     11717      3877  TIP3      H1              5.8725350248      -18.9059093232        9.4362628508  SOLV      3866            0.0000000000
     11718      3877  TIP3      H2              4.8695350248      -18.9142193232        8.3023328508  SOLV      3866            0.0000000000
     11719      3878  TIP3      OH2            15.1687150248      -18.1926293232        3.7789528508  SOLV      3867            0.0000000000
     11720      3878  TIP3      H1             15.5435550248      -18.9370193232        3.3082128508  SOLV      3867            0.0000000000
     11721      3878  TIP3      H2             15.1730850248      -18.4625693232        4.6972828508  SOLV      3867            0.0000000000
     11722      3879  TIP3      OH2            14.8375250248      -18.2669193232        6.5281728508  SOLV      3868            0.0000000000
     11723      3879  TIP3      H1             13.9025050248      -18.1667293232        6.7068728508  SOLV      3868            0.0000000000
     11724      3879  TIP3      H2             15.1177150248      -18.9763193232        7.1064928508  SOLV      3868            0.0000000000
     11725      3880  TIP3      OH2            17.8261150248      -29.1996893232       18.5747328508  SOLV      3869            0.0000000000
     11726      3880  TIP3      H1             17.4187950248      -28.7191293232       17.8540628508  SOLV      3869            0.0000000000
     11727      3880  TIP3      H2             17.8666850248      -30.1050893232       18.2668128508  SOLV      3869            0.0000000000
     11728      3881  TIP3      OH2             4.9750650248      -22.8157493232       16.5714028508  SOLV      3870            0.0000000000
     11729      3881  TIP3      H1              5.1911950248      -23.1771893232       17.4309828508  SOLV      3870            0.0000000000
     11730      3881  TIP3      H2              4.1195350248      -23.1903693232       16.3617528508  SOLV      3870            0.0000000000
     11731      3882  TIP3      OH2            15.5831350248      -30.8681393232       16.7949728508  SOLV      3871            0.0000000000
     11732      3882  TIP3      H1             15.0690850248      -30.9939193232       17.5925728508  SOLV      3871            0.0000000000
     11733      3882  TIP3      H2             15.4276050248      -29.9558293232       16.5505928508  SOLV      3871            0.0000000000
     11734      3883  TIP3      OH2            16.3456250248      -26.0071393232        2.5562728508  SOLV      3872            0.0000000000
     11735      3883  TIP3      H1             16.3877050248      -26.2297493232        1.6262728508  SOLV      3872            0.0000000000
     11736      3883  TIP3      H2             17.1948350248      -25.6084293232        2.7462628508  SOLV      3872            0.0000000000
     11737      3884  TIP3      OH2             7.6848750248      -29.3802493232       13.6618428508  SOLV      3873            0.0000000000
     11738      3884  TIP3      H1              7.0430850248      -29.4205193232       14.3708528508  SOLV      3873            0.0000000000
     11739      3884  TIP3      H2              7.7220750248      -28.4537793232       13.4241428508  SOLV      3873            0.0000000000
     11740      3885  TIP3      OH2             7.6817850248      -29.1592393232        8.5738428508  SOLV      3874            0.0000000000
     11741      3885  TIP3      H1              6.7890750248      -29.4996293232        8.5152228508  SOLV      3874            0.0000000000
     11742      3885  TIP3      H2              8.1324450248      -29.5361493232        7.8181628508  SOLV      3874            0.0000000000
     11743      3886  TIP3      OH2            13.2173350248      -28.7432093232        7.3909228508  SOLV      3875            0.0000000000
     11744      3886  TIP3      H1             12.8083650248      -27.9283493232        7.0994028508  SOLV      3875            0.0000000000
     11745      3886  TIP3      H2             13.9379550248      -28.8831993232        6.7766328508  SOLV      3875            0.0000000000
     11746      3887  TIP3      OH2            12.3194950248      -28.5675693232       18.8789928508  SOLV      3876            0.0000000000
     11747      3887  TIP3      H1             11.7568750248      -29.2724093232       19.1997728508  SOLV      3876            0.0000000000
     11748      3887  TIP3      H2             13.1458350248      -28.6883793232       19.3467528508  SOLV      3876            0.0000000000
     11749      3888  TIP3      OH2            14.2221050248      -29.2971693232       10.2048928508  SOLV      3877            0.0000000000
     11750      3888  TIP3      H1             14.0265550248      -28.6914893232        9.4899528508  SOLV      3877            0.0000000000
     11751      3888  TIP3      H2             14.4033650248      -30.1306493232        9.7705228508  SOLV      3877            0.0000000000
     11752      3889  TIP3      OH2             5.4349250248      -29.0598993232       15.5290428508  SOLV      3878            0.0000000000
     11753      3889  TIP3      H1              5.3968650248      -28.6597393232       16.3977528508  SOLV      3878            0.0000000000
     11754      3889  TIP3      H2              4.9440350248      -29.8766593232       15.6193328508  SOLV      3878            0.0000000000
     11755      3890  TIP3      OH2             8.8006650248      -31.6856693232        2.3276428508  SOLV      3879            0.0000000000
     11756      3890  TIP3      H1              8.3697350248      -32.1306593232        3.0573828508  SOLV      3879            0.0000000000
     11757      3890  TIP3      H2              8.0825350248      -31.3140393232        1.8153928508  SOLV      3879            0.0000000000
     11758      3891  TIP3      OH2             2.0430050248      -31.9437193232        9.3795128508  SOLV      3880            0.0000000000
     11759      3891  TIP3      H1              2.6737750248      -31.9725093232       10.0989028508  SOLV      3880            0.0000000000
     11760      3891  TIP3      H2              2.4924350248      -32.3688493232        8.6491028508  SOLV      3880            0.0000000000
     11761      3892  TIP3      OH2             3.3172150248      -31.1975193232        4.8035528508  SOLV      3881            0.0000000000
     11762      3892  TIP3      H1              3.7913850248      -30.6065293232        4.2186428508  SOLV      3881            0.0000000000
     11763      3892  TIP3      H2              2.5998550248      -30.6672293232        5.1505628508  SOLV      3881            0.0000000000
     11764      3893  TIP3      OH2            13.4860250248      -27.6590393232       14.8761328508  SOLV      3882            0.0000000000
     11765      3893  TIP3      H1             13.8095050248      -28.2900693232       14.2331828508  SOLV      3882            0.0000000000
     11766      3893  TIP3      H2             13.0459550248      -28.1938193232       15.5368728508  SOLV      3882            0.0000000000
     11767      3894  TIP3      OH2            10.2633150248      -31.7314893232        9.6602528508  SOLV      3883            0.0000000000
     11768      3894  TIP3      H1              9.3524250248      -31.6748093232        9.9488528508  SOLV      3883            0.0000000000
     11769      3894  TIP3      H2             10.7686050248      -31.7919393232       10.4709728508  SOLV      3883            0.0000000000
     11770      3895  TIP3      OH2             5.0916550248      -30.1028593232        8.4870128508  SOLV      3884            0.0000000000
     11771      3895  TIP3      H1              4.2024550248      -30.0033093232        8.1469728508  SOLV      3884            0.0000000000
     11772      3895  TIP3      H2              5.3881450248      -30.9445593232        8.1408028508  SOLV      3884            0.0000000000
     11773      3896  TIP3      OH2             8.7448350248      -30.1025993232        6.1434728508  SOLV      3885            0.0000000000
     11774      3896  TIP3      H1              9.6763850248      -29.9735993232        6.3217828508  SOLV      3885            0.0000000000
     11775      3896  TIP3      H2              8.5298650248      -29.4331693232        5.4939428508  SOLV      3885            0.0000000000
     11776      3897  TIP3      OH2             7.4188550248      -28.9083793232        3.7100828508  SOLV      3886            0.0000000000
     11777      3897  TIP3      H1              6.8763650248      -29.2879993232        3.0188428508  SOLV      3886            0.0000000000
     11778      3897  TIP3      H2              8.2523450248      -28.7139093232        3.2814928508  SOLV      3886            0.0000000000
     11779      3898  TIP3      OH2            17.9560150248      -16.8253193232       19.2011928508  SOLV      3887            0.0000000000
     11780      3898  TIP3      H1             18.1558850248      -16.4011293232       18.3667228508  SOLV      3887            0.0000000000
     11781      3898  TIP3      H2             18.6113850248      -16.4814993232       19.8082328508  SOLV      3887            0.0000000000
     11782      3899  TIP3      OH2             5.5539950248      -24.3511893232       18.8092428508  SOLV      3888            0.0000000000
     11783      3899  TIP3      H1              6.2862350248      -24.0965993232       19.3706928508  SOLV      3888            0.0000000000
     11784      3899  TIP3      H2              4.7738650248      -24.1466493232       19.3247828508  SOLV      3888            0.0000000000
     11785      3900  TIP3      OH2            11.5832850248      -28.9441893232       11.5472128508  SOLV      3889            0.0000000000
     11786      3900  TIP3      H1             12.1476250248      -29.4905293232       11.0001728508  SOLV      3889            0.0000000000
     11787      3900  TIP3      H2             11.4356250248      -29.4659993232       12.3359728508  SOLV      3889            0.0000000000
     11788      3901  TIP3      OH2            10.2098750248      -30.5555793232       13.9612528508  SOLV      3890            0.0000000000
     11789      3901  TIP3      H1              9.3744050248      -30.1016293232       14.0714928508  SOLV      3890            0.0000000000
     11790      3901  TIP3      H2             10.7339350248      -30.2797293232       14.7132428508  SOLV      3890            0.0000000000
     11791      3902  TIP3      OH2            10.7541350248      -24.3428093232        5.6458928508  SOLV      3891            0.0000000000
     11792      3902  TIP3      H1             10.0092350248      -24.8502793232        5.3236828508  SOLV      3891            0.0000000000
     11793      3902  TIP3      H2             10.6198550248      -24.2940093232        6.5923728508  SOLV      3891            0.0000000000
     11794      3903  TIP3      OH2            17.9040250248      -25.2099893232       14.4326528508  SOLV      3892            0.0000000000
     11795      3903  TIP3      H1             18.5459050248      -24.7533593232       13.8888728508  SOLV      3892            0.0000000000
     11796      3903  TIP3      H2             17.0737150248      -25.0967493232       13.9700628508  SOLV      3892            0.0000000000
     11797      3904  TIP3      OH2            14.6518150248      -31.5288193232        3.8451528508  SOLV      3893            0.0000000000
     11798      3904  TIP3      H1             13.7132350248      -31.4172593232        3.6940328508  SOLV      3893            0.0000000000
     11799      3904  TIP3      H2             14.9490250248      -30.6721293232        4.1517228508  SOLV      3893            0.0000000000
     11800      3905  TIP3      OH2            12.2733450248      -24.1584793232       16.8828028508  SOLV      3894            0.0000000000
     11801      3905  TIP3      H1             11.9279550248      -24.5402393232       17.6897628508  SOLV      3894            0.0000000000
     11802      3905  TIP3      H2             12.0733550248      -23.2251193232       16.9540928508  SOLV      3894            0.0000000000
     11803      3906  TIP3      OH2            15.3701650248      -29.6615493232        5.5058928508  SOLV      3895            0.0000000000
     11804      3906  TIP3      H1             16.2620650248      -29.7990493232        5.8250128508  SOLV      3895            0.0000000000
     11805      3906  TIP3      H2             15.4265250248      -28.8709393232        4.9692428508  SOLV      3895            0.0000000000
     11806      3907  TIP3      OH2             5.8789650248      -25.0478093232       11.4156828508  SOLV      3896            0.0000000000
     11807      3907  TIP3      H1              6.6236850248      -25.0502393232       10.8143328508  SOLV      3896            0.0000000000
     11808      3907  TIP3      H2              5.9566250248      -25.8714293232       11.8971928508  SOLV      3896            0.0000000000
     11809      3908  TIP3      OH2            12.8795450248      -22.8843793232        4.6713528508  SOLV      3897            0.0000000000
     11810      3908  TIP3      H1             12.5843850248      -22.0575893232        5.0528328508  SOLV      3897            0.0000000000
     11811      3908  TIP3      H2             12.1765450248      -23.5036893232        4.8674928508  SOLV      3897            0.0000000000
     11812      3909  TIP3      OH2             2.8869350248      -26.5871193232       16.7305328508  SOLV      3898            0.0000000000
     11813      3909  TIP3      H1              3.1097950248      -27.0051593232       17.5622828508  SOLV      3898            0.0000000000
     11814      3909  TIP3      H2              2.2849450248      -27.1996193232       16.3078128508  SOLV      3898            0.0000000000
     11815      3910  TIP3      OH2             9.9034250248      -27.0701293232       18.9435028508  SOLV      3899            0.0000000000
     11816      3910  TIP3      H1              9.6075050248      -27.2358293232       18.0484128508  SOLV      3899            0.0000000000
     11817      3910  TIP3      H2             10.8349450248      -27.2900993232       18.9328928508  SOLV      3899            0.0000000000
     11818      3911  TIP3      OH2            14.5237050248      -21.6969293232       16.8333028508  SOLV      3900            0.0000000000
     11819      3911  TIP3      H1             13.6231350248      -21.5136693232       16.5656928508  SOLV      3900            0.0000000000
     11820      3911  TIP3      H2             14.5578150248      -21.4379993232       17.7541828508  SOLV      3900            0.0000000000
     11821      3912  TIP3      OH2            20.2550350248      -29.4521393232        5.2005628508  SOLV      3901            0.0000000000
     11822      3912  TIP3      H1             19.7006650248      -29.8483393232        4.5283128508  SOLV      3901            0.0000000000
     11823      3912  TIP3      H2             20.3553950248      -28.5416193232        4.9228928508  SOLV      3901            0.0000000000
     11824      3913  TIP3      OH2            20.2182350248      -23.6519693232       18.0377128508  SOLV      3902            0.0000000000
     11825      3913  TIP3      H1             19.3670850248      -23.4135893232       17.6703528508  SOLV      3902            0.0000000000
     11826      3913  TIP3      H2             20.8085750248      -23.6686493232       17.2844228508  SOLV      3902            0.0000000000
     11827      3914  TIP3      OH2            18.5502050248      -20.6660993232        5.6657728508  SOLV      3903            0.0000000000
     11828      3914  TIP3      H1             18.1773150248      -21.4917193232        5.9748328508  SOLV      3903            0.0000000000
     11829      3914  TIP3      H2             18.8275550248      -20.8491593232        4.7681128508  SOLV      3903            0.0000000000
     11830      3915  TIP3      OH2            15.7105950248      -25.8581493232       12.6869628508  SOLV      3904            0.0000000000
     11831      3915  TIP3      H1             14.7822850248      -26.0899593232       12.6598928508  SOLV      3904            0.0000000000
     11832      3915  TIP3      H2             16.1617050248      -26.6351693232       12.3568428508  SOLV      3904            0.0000000000
     11833      3916  TIP3      OH2             8.2539050248      -21.5299893232        8.8198328508  SOLV      3905            0.0000000000
     11834      3916  TIP3      H1              8.7811250248      -20.7565493232        8.6197128508  SOLV      3905            0.0000000000
     11835      3916  TIP3      H2              7.3737550248      -21.3050693232        8.5182328508  SOLV      3905            0.0000000000
     11836      3917  TIP3      OH2             4.0086750248      -26.6675793232        3.4070728508  SOLV      3906            0.0000000000
     11837      3917  TIP3      H1              4.6246650248      -26.0408593232        3.7865528508  SOLV      3906            0.0000000000
     11838      3917  TIP3      H2              3.1469350248      -26.3515993232        3.6787228508  SOLV      3906            0.0000000000
     11839      3918  TIP3      OH2             9.6811350248      -23.8669993232        8.3962628508  SOLV      3907            0.0000000000
     11840      3918  TIP3      H1              9.4401350248      -22.9415593232        8.4377928508  SOLV      3907            0.0000000000
     11841      3918  TIP3      H2              8.9404950248      -24.3258693232        8.7926528508  SOLV      3907            0.0000000000
     11842      3919  TIP3      OH2            10.1957950248      -19.7176393232       14.7113728508  SOLV      3908            0.0000000000
     11843      3919  TIP3      H1             10.5582650248      -18.8630793232       14.4778128508  SOLV      3908            0.0000000000
     11844      3919  TIP3      H2             10.7273150248      -20.0094793232       15.4520028508  SOLV      3908            0.0000000000
     11845      3920  TIP3      OH2             8.3642150248      -18.8452393232        7.9414828508  SOLV      3909            0.0000000000
     11846      3920  TIP3      H1              7.4142650248      -18.7394993232        7.9928128508  SOLV      3909            0.0000000000
     11847      3920  TIP3      H2              8.7160250248      -18.0244993232        8.2862328508  SOLV      3909            0.0000000000
     11848      3921  TIP3      OH2            13.7398750248      -23.6185693232       14.4119328508  SOLV      3910            0.0000000000
     11849      3921  TIP3      H1             13.3140050248      -23.8463993232       15.2383328508  SOLV      3910            0.0000000000
     11850      3921  TIP3      H2             14.3204550248      -24.3573893232       14.2294628508  SOLV      3910            0.0000000000
     11851      3922  TIP3      OH2            15.9427650248      -22.6895193232        3.4858328508  SOLV      3911            0.0000000000
     11852      3922  TIP3      H1             16.2960750248      -23.0695393232        4.2901828508  SOLV      3911            0.0000000000
     11853      3922  TIP3      H2             14.9941150248      -22.7830393232        3.5727628508  SOLV      3911            0.0000000000
     11854      3923  TIP3      OH2            16.3982950248      -19.0666193232       16.8814128508  SOLV      3912            0.0000000000
     11855      3923  TIP3      H1             15.7966150248      -19.6223293232       16.3860428508  SOLV      3912            0.0000000000
     11856      3923  TIP3      H2             16.6796650248      -18.3996393232       16.2551528508  SOLV      3912            0.0000000000
     11857      3924  TIP3      OH2            20.4462050248      -18.2102693232        3.6868528508  SOLV      3913            0.0000000000
     11858      3924  TIP3      H1             21.1899950248      -17.6242193232        3.5470128508  SOLV      3913            0.0000000000
     11859      3924  TIP3      H2             19.7520150248      -17.6416893232        4.0200928508  SOLV      3913            0.0000000000
     11860      3925  TIP3      OH2             4.5208850248      -31.8338493232       16.2886728508  SOLV      3914            0.0000000000
     11861      3925  TIP3      H1              3.6281150248      -31.4953093232       16.2210728508  SOLV      3914            0.0000000000
     11862      3925  TIP3      H2              4.4221650248      -32.6892393232       16.7067528508  SOLV      3914            0.0000000000
     11863      3926  TIP3      OH2            16.8086950248      -24.0173193232        5.7126228508  SOLV      3915            0.0000000000
     11864      3926  TIP3      H1             16.5314550248      -24.7453893232        6.2687328508  SOLV      3915            0.0000000000
     11865      3926  TIP3      H2             17.7359950248      -23.8981193232        5.9178828508  SOLV      3915            0.0000000000
     11866      3927  TIP3      OH2             4.1720850248      -20.0294093232       14.7236128508  SOLV      3916            0.0000000000
     11867      3927  TIP3      H1              4.3891150248      -20.9611693232       14.6925828508  SOLV      3916            0.0000000000
     11868      3927  TIP3      H2              4.4184350248      -19.7549093232       15.6068928508  SOLV      3916            0.0000000000
     11869      3928  TIP3      OH2            10.0335450248      -21.5779093232        1.9328328508  SOLV      3917            0.0000000000
     11870      3928  TIP3      H1             10.2725250248      -22.3260993232        1.3857228508  SOLV      3917            0.0000000000
     11871      3928  TIP3      H2              9.7646750248      -21.9657393232        2.7656128508  SOLV      3917            0.0000000000
     11872      3929  TIP3      OH2             8.9706050248      -22.0075293232        4.3890928508  SOLV      3918            0.0000000000
     11873      3929  TIP3      H1              9.1174050248      -22.5275493232        5.1791828508  SOLV      3918            0.0000000000
     11874      3929  TIP3      H2              8.9677750248      -21.1007693232        4.6956828508  SOLV      3918            0.0000000000
     11875      3930  TIP3      OH2             5.4237150248      -24.7551993232        4.8996328508  SOLV      3919            0.0000000000
     11876      3930  TIP3      H1              4.7376450248      -24.4029493232        5.4666028508  SOLV      3919            0.0000000000
     11877      3930  TIP3      H2              5.9465050248      -23.9922393232        4.6530628508  SOLV      3919            0.0000000000
     11878      3931  TIP3      OH2            13.2552250248      -32.0928193232       15.1785328508  SOLV      3920            0.0000000000
     11879      3931  TIP3      H1             13.9540150248      -32.0189493232       15.8285028508  SOLV      3920            0.0000000000
     11880      3931  TIP3      H2             12.8743650248      -32.9573193232       15.3328228508  SOLV      3920            0.0000000000
     11881      3932  TIP3      OH2            14.0397150248      -32.4406493232        6.2757628508  SOLV      3921            0.0000000000
     11882      3932  TIP3      H1             14.2595450248      -31.9691093232        5.4723028508  SOLV      3921            0.0000000000
     11883      3932  TIP3      H2             14.5981150248      -32.0463893232        6.9458228508  SOLV      3921            0.0000000000
     11884      3933  TIP3      OH2            11.7083250248      -20.3101693232        5.1385128508  SOLV      3922            0.0000000000
     11885      3933  TIP3      H1             10.8919350248      -19.8131993232        5.1909428508  SOLV      3922            0.0000000000
     11886      3933  TIP3      H2             12.2379550248      -19.8348193232        4.4983928508  SOLV      3922            0.0000000000
     11887      3934  TIP3      OH2            11.2397050248      -30.7127693232        7.1106028508  SOLV      3923            0.0000000000
     11888      3934  TIP3      H1             12.0519650248      -30.2084493232        7.1567728508  SOLV      3923            0.0000000000
     11889      3934  TIP3      H2             10.9950050248      -30.8577993232        8.0245628508  SOLV      3923            0.0000000000
     11890      3935  TIP3      OH2            11.7753450248      -29.7264993232       16.2952628508  SOLV      3924            0.0000000000
     11891      3935  TIP3      H1             11.8943750248      -29.1529593232       17.0523028508  SOLV      3924            0.0000000000
     11892      3935  TIP3      H2             12.4308050248      -30.4145593232       16.4100428508  SOLV      3924            0.0000000000
     11893      3936  TIP3      OH2             9.0466350248      -19.2664493232        5.1202028508  SOLV      3925            0.0000000000
     11894      3936  TIP3      H1              9.2075050248      -18.4666993232        4.6194628508  SOLV      3925            0.0000000000
     11895      3936  TIP3      H2              8.8494150248      -18.9598493232        6.0052628508  SOLV      3925            0.0000000000
     11896      3937  TIP3      OH2             7.7810750248      -32.5685293232        4.7359628508  SOLV      3926            0.0000000000
     11897      3937  TIP3      H1              7.6975550248      -31.6802193232        5.0826028508  SOLV      3926            0.0000000000
     11898      3937  TIP3      H2              8.6711050248      -32.8338593232        4.9676428508  SOLV      3926            0.0000000000
     11899      3938  TIP3      OH2            17.9799250248      -31.8194693232       17.1302328508  SOLV      3927            0.0000000000
     11900      3938  TIP3      H1             17.0635050248      -31.5572993232       17.0426028508  SOLV      3927            0.0000000000
     11901      3938  TIP3      H2             18.3154250248      -31.8225693232       16.2337628508  SOLV      3927            0.0000000000
     11902      3939  TIP3      OH2            16.5820250248      -28.0693693232       11.2259628508  SOLV      3928            0.0000000000
     11903      3939  TIP3      H1             15.7844650248      -28.4843493232       10.8974628508  SOLV      3928            0.0000000000
     11904      3939  TIP3      H2             17.0271350248      -28.7599993232       11.7170128508  SOLV      3928            0.0000000000
     11905      3940  TIP3      OH2             6.0396050248      -22.1413093232        3.7964128508  SOLV      3929            0.0000000000
     11906      3940  TIP3      H1              6.6317550248      -21.4418293232        4.0726528508  SOLV      3929            0.0000000000
     11907      3940  TIP3      H2              6.4989050248      -22.5743593232        3.0768728508  SOLV      3929            0.0000000000
     11908      3941  TIP3      OH2             4.3555250248      -29.4770093232        2.9123528508  SOLV      3930            0.0000000000
     11909      3941  TIP3      H1              4.3107850248      -28.5376993232        3.0910528508  SOLV      3930            0.0000000000
     11910      3941  TIP3      H2              3.4678450248      -29.7125193232        2.6425628508  SOLV      3930            0.0000000000
     11911      3942  TIP3      OH2            17.6684850248      -18.8131193232       12.8483128508  SOLV      3931            0.0000000000
     11912      3942  TIP3      H1             17.5129150248      -18.1346793232       12.1912428508  SOLV      3931            0.0000000000
     11913      3942  TIP3      H2             18.6011250248      -18.7411893232       13.0513728508  SOLV      3931            0.0000000000
     11914      3943  TIP3      OH2             4.0940550248      -20.7546393232        7.7460328508  SOLV      3932            0.0000000000
     11915      3943  TIP3      H1              3.2619150248      -20.2823693232        7.7731728508  SOLV      3932            0.0000000000
     11916      3943  TIP3      H2              4.6398850248      -20.2448793232        7.1473428508  SOLV      3932            0.0000000000
     11917      3944  TIP3      OH2             3.3824250248      -18.1422693232       19.0758328508  SOLV      3933            0.0000000000
     11918      3944  TIP3      H1              3.9226450248      -18.3588693232       19.8357528508  SOLV      3933            0.0000000000
     11919      3944  TIP3      H2              2.9012250248      -18.9476693232       18.8860828508  SOLV      3933            0.0000000000
     11920      3945  TIP3      OH2             7.9797650248      -19.2228293232       20.6962528508  SOLV      3934            0.0000000000
     11921      3945  TIP3      H1              8.7474850248      -19.6817493232       21.0371728508  SOLV      3934            0.0000000000
     11922      3945  TIP3      H2              7.9583850248      -19.4488493232       19.7663728508  SOLV      3934            0.0000000000
     11923      3946  TIP3      OH2            12.0717250248      -19.7147693232        2.0714328508  SOLV      3935            0.0000000000
     11924      3946  TIP3      H1             11.4278250248      -20.3459093232        2.3928028508  SOLV      3935            0.0000000000
     11925      3946  TIP3      H2             12.8335550248      -20.2459693232        1.8397828508  SOLV      3935            0.0000000000
     11926      3947  TIP3      OH2            14.5566350248      -20.8427193232       19.4254028508  SOLV      3936            0.0000000000
     11927      3947  TIP3      H1             14.2055850248      -21.6994193232       19.6684428508  SOLV      3936            0.0000000000
     11928      3947  TIP3      H2             15.2829550248      -20.7000493232       20.0323028508  SOLV      3936            0.0000000000
     11929      3948  TIP3      OH2            16.6760150248      -19.8977793232        2.3052328508  SOLV      3937            0.0000000000
     11930      3948  TIP3      H1             16.9590550248      -20.6922593232        2.7579228508  SOLV      3937            0.0000000000
     11931      3948  TIP3      H2             17.4158050248      -19.6646793232        1.7443428508  SOLV      3937            0.0000000000
     11932      3949  TIP3      OH2             3.2893750248      -24.3318593232       20.0302628508  SOLV      3938            0.0000000000
     11933      3949  TIP3      H1              3.4334250248      -25.2337893232       19.7439328508  SOLV      3938            0.0000000000
     11934      3949  TIP3      H2              2.5171150248      -24.0456493232       19.5424928508  SOLV      3938            0.0000000000
     11935      3950  TIP3      OH2             7.6307450248      -23.9882893232        2.1627228508  SOLV      3939            0.0000000000
     11936      3950  TIP3      H1              7.6951550248      -24.7823293232        2.6933628508  SOLV      3939            0.0000000000
     11937      3950  TIP3      H2              8.2836650248      -24.1070093232        1.4729228508  SOLV      3939            0.0000000000
     11938      3951  TIP3      OH2             9.9449850248      -24.3620493232       19.4629028508  SOLV      3940            0.0000000000
     11939      3951  TIP3      H1              9.6163650248      -24.0912393232       18.6056428508  SOLV      3940            0.0000000000
     11940      3951  TIP3      H2             10.0968050248      -25.3030693232       19.3754028508  SOLV      3940            0.0000000000
     11941      3952  TIP3      OH2            12.9830850248      -22.9411193232        1.8985228508  SOLV      3941            0.0000000000
     11942      3952  TIP3      H1             12.7144950248      -22.7609093232        2.7994128508  SOLV      3941            0.0000000000
     11943      3952  TIP3      H2             12.7766450248      -23.8664993232        1.7671028508  SOLV      3941            0.0000000000
     11944      3953  TIP3      OH2            15.6795050248      -24.4463193232       16.8461328508  SOLV      3942            0.0000000000
     11945      3953  TIP3      H1             16.4249850248      -23.8579493232       16.7265328508  SOLV      3942            0.0000000000
     11946      3953  TIP3      H2             14.9221850248      -23.8643493232       16.9094428508  SOLV      3942            0.0000000000
     11947      3954  TIP3      OH2             4.1220250248      -27.1315293232       19.4501928508  SOLV      3943            0.0000000000
     11948      3954  TIP3      H1              4.5301450248      -27.9888693232       19.3292528508  SOLV      3943            0.0000000000
     11949      3954  TIP3      H2              3.8617850248      -27.1173993232       20.3712228508  SOLV      3943            0.0000000000
     11950      3955  TIP3      OH2             8.7801250248      -26.0156693232        4.4685228508  SOLV      3944            0.0000000000
     11951      3955  TIP3      H1              8.3203250248      -26.4998393232        5.1543728508  SOLV      3944            0.0000000000
     11952      3955  TIP3      H2              9.0349950248      -26.6841293232        3.8325728508  SOLV      3944            0.0000000000
     11953      3956  TIP3      OH2             8.0690550248      -28.1229593232       16.8244828508  SOLV      3945            0.0000000000
     11954      3956  TIP3      H1              7.4506650248      -27.4482993232       17.1049528508  SOLV      3945            0.0000000000
     11955      3956  TIP3      H2              8.4131750248      -27.8015693232       15.9911028508  SOLV      3945            0.0000000000
     11956      3957  TIP3      OH2             9.8511650248      -27.7724893232        2.7308428508  SOLV      3946            0.0000000000
     11957      3957  TIP3      H1              9.6706650248      -27.9273693232        1.8036728508  SOLV      3946            0.0000000000
     11958      3957  TIP3      H2             10.8012150248      -27.6646193232        2.7756328508  SOLV      3946            0.0000000000
     11959      3958  TIP3      OH2            13.0888750248      -25.6514293232       20.1019628508  SOLV      3947            0.0000000000
     11960      3958  TIP3      H1             14.0419950248      -25.5675193232       20.0745628508  SOLV      3947            0.0000000000
     11961      3958  TIP3      H2             12.9283350248      -26.3632493232       20.7214528508  SOLV      3947            0.0000000000
     11962      3959  TIP3      OH2            19.2409950248      -25.4180693232        2.1766528508  SOLV      3948            0.0000000000
     11963      3959  TIP3      H1             18.9674750248      -25.8425193232        1.3634828508  SOLV      3948            0.0000000000
     11964      3959  TIP3      H2             19.2804050248      -24.4866193232        1.9596928508  SOLV      3948            0.0000000000
     11965      3960  TIP3      OH2             8.4084250248      -30.7678793232       17.9067928508  SOLV      3949            0.0000000000
     11966      3960  TIP3      H1              8.5585150248      -31.4967493232       17.3047628508  SOLV      3949            0.0000000000
     11967      3960  TIP3      H2              8.4106650248      -29.9907093232       17.3480128508  SOLV      3949            0.0000000000
     11968      3961  TIP3      OH2             8.8209950248      -32.3982993232       15.3995328508  SOLV      3950            0.0000000000
     11969      3961  TIP3      H1              9.3567450248      -31.9466293232       14.7474628508  SOLV      3950            0.0000000000
     11970      3961  TIP3      H2              7.9689550248      -32.5063193232       14.9769428508  SOLV      3950            0.0000000000
     11971      3962  TIP3      OH2            10.4028350248      -26.9586793232       15.6390528508  SOLV      3951            0.0000000000
     11972      3962  TIP3      H1             11.1533150248      -27.1149293232       15.0658328508  SOLV      3951            0.0000000000
     11973      3962  TIP3      H2             10.0636650248      -26.1070193232       15.3636028508  SOLV      3951            0.0000000000
     11974      3963  TIP3      OH2            16.1351750248      -26.3549793232       18.7448528508  SOLV      3952            0.0000000000
     11975      3963  TIP3      H1             15.8536750248      -25.6455193232       18.1672328508  SOLV      3952            0.0000000000
     11976      3963  TIP3      H2             17.0776050248      -26.4276793232       18.5939728508  SOLV      3952            0.0000000000
     11977      3964  TIP3      OH2             6.8870550248      -29.5695293232       19.8183528508  SOLV      3953            0.0000000000
     11978      3964  TIP3      H1              6.1199550248      -30.1020493232       19.6081128508  SOLV      3953            0.0000000000
     11979      3964  TIP3      H2              7.5659550248      -29.8794893232       19.2189828508  SOLV      3953            0.0000000000
     11980      3965  TIP3      OH2            10.8905950248      -30.6201893232       19.3947328508  SOLV      3954            0.0000000000
     11981      3965  TIP3      H1             10.6551350248      -30.8395193232       20.2962228508  SOLV      3954            0.0000000000
     11982      3965  TIP3      H2             10.1072850248      -30.8270693232       18.8849828508  SOLV      3954            0.0000000000
     11983      3966  TIP3      OH2            13.6062550248      -31.4928393232       18.4700828508  SOLV      3955            0.0000000000
     11984      3966  TIP3      H1             12.6587950248      -31.4608693232       18.6024128508  SOLV      3955            0.0000000000
     11985      3966  TIP3      H2             13.9189250248      -32.1181293232       19.1239028508  SOLV      3955            0.0000000000
     11986      3967  TIP3      OH2             5.0673350248      -31.6491493232       19.5228228508  SOLV      3956            0.0000000000
     11987      3967  TIP3      H1              5.2790750248      -32.3555393232       18.9125728508  SOLV      3956            0.0000000000
     11988      3967  TIP3      H2              4.9560850248      -32.0865493232       20.3669428508  SOLV      3956            0.0000000000
     11989      3968  TIP3      OH2             9.7483350248      -17.0821193232        3.7322028508  SOLV      3957            0.0000000000
     11990      3968  TIP3      H1             10.6814050248      -16.9242493232        3.8760428508  SOLV      3957            0.0000000000
     11991      3968  TIP3      H2              9.4842150248      -16.4068193232        3.1073528508  SOLV      3957            0.0000000000
     11992      3969  TIP3      OH2             3.3168250248      -22.4457393232        3.2150128508  SOLV      3958            0.0000000000
     11993      3969  TIP3      H1              4.2307450248      -22.3668493232        3.4884028508  SOLV      3958            0.0000000000
     11994      3969  TIP3      H2              3.3241350248      -23.1327793232        2.5485728508  SOLV      3958            0.0000000000
     11995      3970  TIP3      OH2             1.9658850248      -17.0528893232        8.2924028508  SOLV      3959            0.0000000000
     11996      3970  TIP3      H1              1.3185950248      -17.5147193232        7.7595228508  SOLV      3959            0.0000000000
     11997      3970  TIP3      H2              2.3203450248      -17.7245593232        8.8750228508  SOLV      3959            0.0000000000
     11998      3971  TIP3      OH2             2.8358050248      -18.9721893232       10.0970228508  SOLV      3960            0.0000000000
     11999      3971  TIP3      H1              2.5014850248      -19.8524593232       10.2690428508  SOLV      3960            0.0000000000
     12000      3971  TIP3      H2              3.0580450248      -18.6266893232       10.9615828508  SOLV      3960            0.0000000000
     12001      3972  TIP3      OH2            20.3842850248      -18.1625493232       13.0775028508  SOLV      3961            0.0000000000
     12002      3972  TIP3      H1             20.3629550248      -17.9777093232       14.0164428508  SOLV      3961            0.0000000000
     12003      3972  TIP3      H2             21.0749050248      -17.5941493232       12.7366428508  SOLV      3961            0.0000000000
     12004      3973  TIP3      OH2            19.9475750248      -18.5954393232       15.9994128508  SOLV      3962            0.0000000000
     12005      3973  TIP3      H1             19.4604450248      -19.3310293232       15.6281528508  SOLV      3962            0.0000000000
     12006      3973  TIP3      H2             20.4968450248      -18.9890493232       16.6773528508  SOLV      3962            0.0000000000
     12007      3974  TIP3      OH2            18.3983050248      -22.8056293232       20.6374428508  SOLV      3963            0.0000000000
     12008      3974  TIP3      H1             17.5324150248      -22.9106593232       21.0316728508  SOLV      3963            0.0000000000
     12009      3974  TIP3      H2             18.7748950248      -22.0472993232       21.0839128508  SOLV      3963            0.0000000000
     12010      3975  TIP3      OH2            19.6992750248      -24.5492593232        6.1516928508  SOLV      3964            0.0000000000
     12011      3975  TIP3      H1             20.5494150248      -24.1281693232        6.2788528508  SOLV      3964            0.0000000000
     12012      3975  TIP3      H2             19.7047850248      -25.2892493232        6.7588328508  SOLV      3964            0.0000000000
     12013      3976  TIP3      OH2            20.0938350248      -26.4955193232        7.9752628508  SOLV      3965            0.0000000000
     12014      3976  TIP3      H1             19.3672950248      -26.9752593232        8.3730228508  SOLV      3965            0.0000000000
     12015      3976  TIP3      H2             20.6751650248      -26.2900493232        8.7074228508  SOLV      3965            0.0000000000
     12016      3977  TIP3      OH2            19.8529550248      -23.7107693232       12.9230228508  SOLV      3966            0.0000000000
     12017      3977  TIP3      H1             20.6863750248      -24.0887693232       12.6423828508  SOLV      3966            0.0000000000
     12018      3977  TIP3      H2             19.9649850248      -22.7676493232       12.8039328508  SOLV      3966            0.0000000000
     12019      3978  TIP3      OH2            18.3391850248      -20.8330193232       15.2298628508  SOLV      3967            0.0000000000
     12020      3978  TIP3      H1             17.6917150248      -20.5078693232       15.8553828508  SOLV      3967            0.0000000000
     12021      3978  TIP3      H2             17.8215850248      -21.2732493232       14.5556928508  SOLV      3967            0.0000000000
     12022      3979  TIP3      OH2            20.3621450248      -26.5946693232        4.3663928508  SOLV      3968            0.0000000000
     12023      3979  TIP3      H1             19.8402550248      -26.2382593232        3.6474828508  SOLV      3968            0.0000000000
     12024      3979  TIP3      H2             20.3290650248      -25.9198893232        5.0444828508  SOLV      3968            0.0000000000
     12025      3980  TIP3      OH2            18.7110450248      -29.3551093232        2.9171028508  SOLV      3969            0.0000000000
     12026      3980  TIP3      H1             18.8074850248      -28.6884093232        2.2370728508  SOLV      3969            0.0000000000
     12027      3980  TIP3      H2             18.5710050248      -30.1704793232        2.4356528508  SOLV      3969            0.0000000000
     12028      3981  TIP3      OH2            17.8805150248      -27.9748693232        8.5381328508  SOLV      3970            0.0000000000
     12029      3981  TIP3      H1             17.7303950248      -28.9200093232        8.5179128508  SOLV      3970            0.0000000000
     12030      3981  TIP3      H2             17.5269650248      -27.6937293232        9.3820428508  SOLV      3970            0.0000000000
     12031      3982  TIP3      OH2             2.9157550248      -25.8966493232       12.5485128508  SOLV      3971            0.0000000000
     12032      3982  TIP3      H1              3.1000450248      -25.9784793232       11.6128028508  SOLV      3971            0.0000000000
     12033      3982  TIP3      H2              3.7650450248      -26.0209493232       12.9721528508  SOLV      3971            0.0000000000
     12034      3983  TIP3      OH2            18.7368050248      -26.0045393232       18.1769628508  SOLV      3972            0.0000000000
     12035      3983  TIP3      H1             19.3195350248      -26.7393093232       18.3686828508  SOLV      3972            0.0000000000
     12036      3983  TIP3      H2             19.3007350248      -25.2325093232       18.2235428508  SOLV      3972            0.0000000000
     12037      3984  TIP3      OH2            17.9584250248      -31.9471293232        2.0346528508  SOLV      3973            0.0000000000
     12038      3984  TIP3      H1             18.5690050248      -32.3184493232        2.6714728508  SOLV      3973            0.0000000000
     12039      3984  TIP3      H2             17.1215750248      -32.3684393232        2.2306528508  SOLV      3973            0.0000000000
     12040      3985  TIP3      OH2            17.5909950248      -30.3922893232        7.0006428508  SOLV      3974            0.0000000000
     12041      3985  TIP3      H1             17.8707050248      -31.2992493232        7.1248128508  SOLV      3974            0.0000000000
     12042      3985  TIP3      H2             18.3501650248      -29.9581393232        6.6115628508  SOLV      3974            0.0000000000
     12043      3986  TIP3      OH2            18.2028250248      -29.8105493232       12.4365328508  SOLV      3975            0.0000000000
     12044      3986  TIP3      H1             19.1356250248      -29.5985593232       12.4021328508  SOLV      3975            0.0000000000
     12045      3986  TIP3      H2             17.9675750248      -29.7093393232       13.3588328508  SOLV      3975            0.0000000000
     12046      3987  TIP3      OH2            18.2320150248      -29.0740193232       15.2124728508  SOLV      3976            0.0000000000
     12047      3987  TIP3      H1             17.3891450248      -28.8059793232       15.5784528508  SOLV      3976            0.0000000000
     12048      3987  TIP3      H2             18.6744450248      -28.2518293232       15.0015828508  SOLV      3976            0.0000000000
     12049      3988  TIP3      OH2             2.5132350248      -30.6261493232       18.6893928508  SOLV      3977            0.0000000000
     12050      3988  TIP3      H1              3.4327250248      -30.7483193232       18.9257028508  SOLV      3977            0.0000000000
     12051      3988  TIP3      H2              2.0636850248      -31.3761793232       19.0787428508  SOLV      3977            0.0000000000
     12052      3989  TIP3      OH2             3.7344850248      -32.3139893232       11.5806828508  SOLV      3978            0.0000000000
     12053      3989  TIP3      H1              4.1796450248      -33.1057393232       11.8826528508  SOLV      3978            0.0000000000
     12054      3989  TIP3      H2              4.2007850248      -31.5974693232       12.0112428508  SOLV      3978            0.0000000000
     12055      3990  TIP3      OH2             2.0385150248      -29.3146893232       12.6497028508  SOLV      3979            0.0000000000
     12056      3990  TIP3      H1              2.5304950248      -29.5356393232       11.8589028508  SOLV      3979            0.0000000000
     12057      3990  TIP3      H2              2.4006050248      -28.4743493232       12.9306528508  SOLV      3979            0.0000000000
     12058      3991  TIP3      OH2            17.1228850248      -18.0726093232        8.6496828508  SOLV      3980            0.0000000000
     12059      3991  TIP3      H1             17.7751750248      -18.4203993232        8.0415928508  SOLV      3980            0.0000000000
     12060      3991  TIP3      H2             17.6332650248      -17.5842893232        9.2956528508  SOLV      3980            0.0000000000
     12061      3992  TIP3      OH2             4.5076350248      -21.1434693232       19.1927728508  SOLV      3981            0.0000000000
     12062      3992  TIP3      H1              3.6868850248      -20.9688193232       18.7322428508  SOLV      3981            0.0000000000
     12063      3992  TIP3      H2              4.2554150248      -21.2169993232       20.1132128508  SOLV      3981            0.0000000000
     12064      3993  TIP3      OH2             7.4619250248      -20.1693493232       15.4511728508  SOLV      3982            0.0000000000
     12065      3993  TIP3      H1              7.0370350248      -19.3594993232       15.1686328508  SOLV      3982            0.0000000000
     12066      3993  TIP3      H2              8.3662050248      -20.0839393232       15.1491528508  SOLV      3982            0.0000000000
     12067      3994  TIP3      OH2            11.7730650248      -18.7703493232       18.4105428508  SOLV      3983            0.0000000000
     12068      3994  TIP3      H1             11.9578150248      -19.1037393232       19.2885728508  SOLV      3983            0.0000000000
     12069      3994  TIP3      H2             12.6195150248      -18.4604893232       18.0884628508  SOLV      3983            0.0000000000
     12070      3995  TIP3      OH2            14.1181050248      -17.4844593232       17.6546828508  SOLV      3984            0.0000000000
     12071      3995  TIP3      H1             14.7949950248      -18.1172293232       17.4146028508  SOLV      3984            0.0000000000
     12072      3995  TIP3      H2             14.4399850248      -17.0834093232       18.4620128508  SOLV      3984            0.0000000000
     12073      3996  TIP3      OH2             4.8635950248      -16.9129593232       15.4987028508  SOLV      3985            0.0000000000
     12074      3996  TIP3      H1              4.1432350248      -16.4728593232       15.0474728508  SOLV      3985            0.0000000000
     12075      3996  TIP3      H2              4.4979950248      -17.1634893232       16.3471028508  SOLV      3985            0.0000000000
     12076      3997  TIP3      OH2             7.3308550248      -17.3125693232       14.5284228508  SOLV      3986            0.0000000000
     12077      3997  TIP3      H1              6.4660750248      -17.2407193232       14.9324328508  SOLV      3986            0.0000000000
     12078      3997  TIP3      H2              7.2757550248      -16.7658393232       13.7446728508  SOLV      3986            0.0000000000
     12079      3998  TIP3      OH2            12.0414150248      -17.4246793232       13.7040228508  SOLV      3987            0.0000000000
     12080      3998  TIP3      H1             11.5848150248      -16.8957093232       13.0498628508  SOLV      3987            0.0000000000
     12081      3998  TIP3      H2             12.2042150248      -16.8215393232       14.4292528508  SOLV      3987            0.0000000000
     12082      3999  TIP3      OH2            14.3690450248      -18.5467193232       14.6490528508  SOLV      3988            0.0000000000
     12083      3999  TIP3      H1             13.4644150248      -18.3816993232       14.3832628508  SOLV      3988            0.0000000000
     12084      3999  TIP3      H2             14.7979050248      -17.6934993232       14.5833928508  SOLV      3988            0.0000000000
     12085      4000  TIP3      OH2            16.9732350248      -16.9768093232       14.9438328508  SOLV      3989            0.0000000000
     12086      4000  TIP3      H1             16.7914350248      -16.0609193232       14.7333228508  SOLV      3989            0.0000000000
     12087      4000  TIP3      H2             17.1500150248      -17.3870993232       14.0972928508  SOLV      3989            0.0000000000
     12088      4001  TIP3      OH2             4.2784050248      -18.2897093232       12.4088828508  SOLV      3990            0.0000000000
     12089      4001  TIP3      H1              4.2600050248      -18.7151993232       13.2661128508  SOLV      3990            0.0000000000
     12090      4001  TIP3      H2              5.0831950248      -18.6082093232       12.0001028508  SOLV      3990            0.0000000000
     12091      4002  TIP3      OH2             6.4197150248      -19.5798393232       11.0638728508  SOLV      3991            0.0000000000
     12092      4002  TIP3      H1              6.2007850248      -20.4960993232       11.2334728508  SOLV      3991            0.0000000000
     12093      4002  TIP3      H2              7.2439350248      -19.4397993232       11.5300128508  SOLV      3991            0.0000000000
     12094      4003  TIP3      OH2             8.9569650248      -19.1099093232       11.9126728508  SOLV      3992            0.0000000000
     12095      4003  TIP3      H1              9.1695350248      -19.9980093232       11.6257628508  SOLV      3992            0.0000000000
     12096      4003  TIP3      H2              9.0214750248      -19.1441393232       12.8670728508  SOLV      3992            0.0000000000
     12097      4004  TIP3      OH2             3.5293750248      -19.0657893232        5.5801128508  SOLV      3993            0.0000000000
     12098      4004  TIP3      H1              2.8443650248      -19.1038993232        4.9126228508  SOLV      3993            0.0000000000
     12099      4004  TIP3      H2              3.5330950248      -18.1530293232        5.8683228508  SOLV      3993            0.0000000000
     12100      4005  TIP3      OH2            12.3937250248      -17.8562993232        3.9777328508  SOLV      3994            0.0000000000
     12101      4005  TIP3      H1             13.2597450248      -17.4895593232        3.7995528508  SOLV      3994            0.0000000000
     12102      4005  TIP3      H2             12.1470050248      -18.2954993232        3.1638128508  SOLV      3994            0.0000000000
     12103      4006  TIP3      OH2            19.1026850248      -18.2932693232        6.6568428508  SOLV      3995            0.0000000000
     12104      4006  TIP3      H1             18.9083950248      -19.0410593232        6.0918028508  SOLV      3995            0.0000000000
     12105      4006  TIP3      H2             19.0636950248      -17.5352593232        6.0736328508  SOLV      3995            0.0000000000
     12106      4007  TIP3      OH2             5.3474950248      -18.1457093232        2.6053228508  SOLV      3996            0.0000000000
     12107      4007  TIP3      H1              5.0799550248      -17.8594193232        3.4786328508  SOLV      3996            0.0000000000
     12108      4007  TIP3      H2              6.1187550248      -18.6917893232        2.7575728508  SOLV      3996            0.0000000000
     12109      4008  TIP3      OH2            18.3203050248      -19.5420293232       18.8070228508  SOLV      3997            0.0000000000
     12110      4008  TIP3      H1             17.5384950248      -19.7282293232       18.2870828508  SOLV      3997            0.0000000000
     12111      4008  TIP3      H2             18.2482950248      -18.6125993232       19.0242728508  SOLV      3997            0.0000000000
     12112      4009  TIP3      OH2            24.0279750248      -26.7863093232       13.8495528508  SOLV      3998            0.0000000000
     12113      4009  TIP3      H1             24.0691850248      -27.4119793232       14.5727928508  SOLV      3998            0.0000000000
     12114      4009  TIP3      H2             24.7307450248      -26.1624493232       14.0315928508  SOLV      3998            0.0000000000
     12115      4010  TIP3      OH2            24.9512850248      -22.3364193232       12.3844628508  SOLV      3999            0.0000000000
     12116      4010  TIP3      H1             24.5818050248      -23.1383693232       12.0148928508  SOLV      3999            0.0000000000
     12117      4010  TIP3      H2             25.8923950248      -22.5049293232       12.4308028508  SOLV      3999            0.0000000000
     12118      4011  TIP3      OH2            21.5613350248      -28.6761593232        7.7773428508  SOLV      4000            0.0000000000
     12119      4011  TIP3      H1             21.1136750248      -27.8302893232        7.7589928508  SOLV      4000            0.0000000000
     12120      4011  TIP3      H2             21.0004550248      -29.2557393232        7.2618528508  SOLV      4000            0.0000000000
     12121      4012  TIP3      OH2            22.2719450248      -26.5141993232        9.9031428508  SOLV      4001            0.0000000000
     12122      4012  TIP3      H1             22.4852950248      -27.2840393232       10.4304428508  SOLV      4001            0.0000000000
     12123      4012  TIP3      H2             23.0097050248      -26.4245293232        9.2999028508  SOLV      4001            0.0000000000
     12124      4013  TIP3      OH2            22.9645950248      -29.0759193232       11.0247628508  SOLV      4002            0.0000000000
     12125      4013  TIP3      H1             23.6182550248      -29.6257493232       11.4567728508  SOLV      4002            0.0000000000
     12126      4013  TIP3      H2             22.9885250248      -29.3500193232       10.1079628508  SOLV      4002            0.0000000000
     12127      4014  TIP3      OH2            26.1312050248      -22.9147893232       15.4112228508  SOLV      4003            0.0000000000
     12128      4014  TIP3      H1             26.1259650248      -22.0354393232       15.0331528508  SOLV      4003            0.0000000000
     12129      4014  TIP3      H2             25.2776150248      -22.9983793232       15.8362128508  SOLV      4003            0.0000000000
     12130      4015  TIP3      OH2            22.2522950248      -23.2439993232        6.1931528508  SOLV      4004            0.0000000000
     12131      4015  TIP3      H1             21.9803850248      -23.0148993232        5.3044428508  SOLV      4004            0.0000000000
     12132      4015  TIP3      H2             22.2978650248      -22.4061193232        6.6536828508  SOLV      4004            0.0000000000
     12133      4016  TIP3      OH2            25.9849450248      -20.3323093232       18.2379328508  SOLV      4005            0.0000000000
     12134      4016  TIP3      H1             25.9924750248      -20.4683393232       17.2904828508  SOLV      4005            0.0000000000
     12135      4016  TIP3      H2             25.0689850248      -20.4494993232       18.4899328508  SOLV      4005            0.0000000000
     12136      4017  TIP3      OH2            21.5820150248      -24.1392893232       15.5281228508  SOLV      4006            0.0000000000
     12137      4017  TIP3      H1             21.0808550248      -24.1673493232       14.7130928508  SOLV      4006            0.0000000000
     12138      4017  TIP3      H2             21.5873850248      -25.0449693232       15.8378528508  SOLV      4006            0.0000000000
     12139      4018  TIP3      OH2            21.3322850248      -21.3589093232       12.4121428508  SOLV      4007            0.0000000000
     12140      4018  TIP3      H1             22.2783450248      -21.5032093232       12.3930928508  SOLV      4007            0.0000000000
     12141      4018  TIP3      H2             21.2199150248      -20.5746293232       12.9492628508  SOLV      4007            0.0000000000
     12142      4019  TIP3      OH2            24.5764950248      -18.5579493232        8.5576128508  SOLV      4008            0.0000000000
     12143      4019  TIP3      H1             24.7285350248      -18.9059093232        9.4362628508  SOLV      4008            0.0000000000
     12144      4019  TIP3      H2             23.7255350248      -18.9142193232        8.3023328508  SOLV      4008            0.0000000000
     12145      4020  TIP3      OH2            20.8990050248      -31.9437193232        9.3795128508  SOLV      4009            0.0000000000
     12146      4020  TIP3      H1             21.5297750248      -31.9725093232       10.0989028508  SOLV      4009            0.0000000000
     12147      4020  TIP3      H2             21.3484350248      -32.3688493232        8.6491028508  SOLV      4009            0.0000000000
     12148      4021  TIP3      OH2            22.1732150248      -31.1975193232        4.8035528508  SOLV      4010            0.0000000000
     12149      4021  TIP3      H1             22.6473850248      -30.6065293232        4.2186428508  SOLV      4010            0.0000000000
     12150      4021  TIP3      H2             21.4558550248      -30.6672293232        5.1505628508  SOLV      4010            0.0000000000
     12151      4022  TIP3      OH2            23.9476550248      -30.1028593232        8.4870128508  SOLV      4011            0.0000000000
     12152      4022  TIP3      H1             23.0584550248      -30.0033093232        8.1469728508  SOLV      4011            0.0000000000
     12153      4022  TIP3      H2             24.2441450248      -30.9445593232        8.1408028508  SOLV      4011            0.0000000000
     12154      4023  TIP3      OH2            24.7349650248      -25.0478093232       11.4156828508  SOLV      4012            0.0000000000
     12155      4023  TIP3      H1             25.4796850248      -25.0502393232       10.8143328508  SOLV      4012            0.0000000000
     12156      4023  TIP3      H2             24.8126250248      -25.8714293232       11.8971928508  SOLV      4012            0.0000000000
     12157      4024  TIP3      OH2            21.7429350248      -26.5871193232       16.7305328508  SOLV      4013            0.0000000000
     12158      4024  TIP3      H1             21.9657950248      -27.0051593232       17.5622828508  SOLV      4013            0.0000000000
     12159      4024  TIP3      H2             21.1409450248      -27.1996193232       16.3078128508  SOLV      4013            0.0000000000
     12160      4025  TIP3      OH2            27.1099050248      -21.5299893232        8.8198328508  SOLV      4014            0.0000000000
     12161      4025  TIP3      H1             27.6371250248      -20.7565493232        8.6197128508  SOLV      4014            0.0000000000
     12162      4025  TIP3      H2             26.2297550248      -21.3050693232        8.5182328508  SOLV      4014            0.0000000000
     12163      4026  TIP3      OH2            22.8646750248      -26.6675793232        3.4070728508  SOLV      4015            0.0000000000
     12164      4026  TIP3      H1             23.4806650248      -26.0408593232        3.7865528508  SOLV      4015            0.0000000000
     12165      4026  TIP3      H2             22.0029350248      -26.3515993232        3.6787228508  SOLV      4015            0.0000000000
     12166      4027  TIP3      OH2            27.2202150248      -18.8452393232        7.9414828508  SOLV      4016            0.0000000000
     12167      4027  TIP3      H1             26.2702650248      -18.7394993232        7.9928128508  SOLV      4016            0.0000000000
     12168      4027  TIP3      H2             27.5720250248      -18.0244993232        8.2862328508  SOLV      4016            0.0000000000
     12169      4028  TIP3      OH2            23.0280850248      -20.0294093232       14.7236128508  SOLV      4017            0.0000000000
     12170      4028  TIP3      H1             23.2451150248      -20.9611693232       14.6925828508  SOLV      4017            0.0000000000
     12171      4028  TIP3      H2             23.2744350248      -19.7549093232       15.6068928508  SOLV      4017            0.0000000000
     12172      4029  TIP3      OH2            24.2797150248      -24.7551993232        4.8996328508  SOLV      4018            0.0000000000
     12173      4029  TIP3      H1             23.5936450248      -24.4029493232        5.4666028508  SOLV      4018            0.0000000000
     12174      4029  TIP3      H2             24.8025050248      -23.9922393232        4.6530628508  SOLV      4018            0.0000000000
     12175      4030  TIP3      OH2            24.8956050248      -22.1413093232        3.7964128508  SOLV      4019            0.0000000000
     12176      4030  TIP3      H1             25.4877550248      -21.4418293232        4.0726528508  SOLV      4019            0.0000000000
     12177      4030  TIP3      H2             25.3549050248      -22.5743593232        3.0768728508  SOLV      4019            0.0000000000
     12178      4031  TIP3      OH2            23.2115250248      -29.4770093232        2.9123528508  SOLV      4020            0.0000000000
     12179      4031  TIP3      H1             23.1667850248      -28.5376993232        3.0910528508  SOLV      4020            0.0000000000
     12180      4031  TIP3      H2             22.3238450248      -29.7125193232        2.6425628508  SOLV      4020            0.0000000000
     12181      4032  TIP3      OH2            22.9500550248      -20.7546393232        7.7460328508  SOLV      4021            0.0000000000
     12182      4032  TIP3      H1             22.1179150248      -20.2823693232        7.7731728508  SOLV      4021            0.0000000000
     12183      4032  TIP3      H2             23.4958850248      -20.2448793232        7.1473428508  SOLV      4021            0.0000000000
     12184      4033  TIP3      OH2            22.2384250248      -18.1422693232       19.0758328508  SOLV      4022            0.0000000000
     12185      4033  TIP3      H1             22.7786450248      -18.3588693232       19.8357528508  SOLV      4022            0.0000000000
     12186      4033  TIP3      H2             21.7572250248      -18.9476693232       18.8860828508  SOLV      4022            0.0000000000
     12187      4034  TIP3      OH2            26.8357650248      -19.2228293232       20.6962528508  SOLV      4023            0.0000000000
     12188      4034  TIP3      H1             27.6034850248      -19.6817493232       21.0371728508  SOLV      4023            0.0000000000
     12189      4034  TIP3      H2             26.8143850248      -19.4488493232       19.7663728508  SOLV      4023            0.0000000000
     12190      4035  TIP3      OH2            22.1453750248      -24.3318593232       20.0302628508  SOLV      4024            0.0000000000
     12191      4035  TIP3      H1             22.2894250248      -25.2337893232       19.7439328508  SOLV      4024            0.0000000000
     12192      4035  TIP3      H2             21.3731150248      -24.0456493232       19.5424928508  SOLV      4024            0.0000000000
     12193      4036  TIP3      OH2            22.1728250248      -22.4457393232        3.2150128508  SOLV      4025            0.0000000000
     12194      4036  TIP3      H1             23.0867450248      -22.3668493232        3.4884028508  SOLV      4025            0.0000000000
     12195      4036  TIP3      H2             22.1801350248      -23.1327793232        2.5485728508  SOLV      4025            0.0000000000
     12196      4037  TIP3      OH2            20.8218850248      -17.0528893232        8.2924028508  SOLV      4026            0.0000000000
     12197      4037  TIP3      H1             20.1745950248      -17.5147193232        7.7595228508  SOLV      4026            0.0000000000
     12198      4037  TIP3      H2             21.1763450248      -17.7245593232        8.8750228508  SOLV      4026            0.0000000000
     12199      4038  TIP3      OH2            21.6918050248      -18.9721893232       10.0970228508  SOLV      4027            0.0000000000
     12200      4038  TIP3      H1             21.3574850248      -19.8524593232       10.2690428508  SOLV      4027            0.0000000000
     12201      4038  TIP3      H2             21.9140450248      -18.6266893232       10.9615828508  SOLV      4027            0.0000000000
     12202      4039  TIP3      OH2            21.7717550248      -25.8966493232       12.5485128508  SOLV      4028            0.0000000000
     12203      4039  TIP3      H1             21.9560450248      -25.9784793232       11.6128028508  SOLV      4028            0.0000000000
     12204      4039  TIP3      H2             22.6210450248      -26.0209493232       12.9721528508  SOLV      4028            0.0000000000
     12205      4040  TIP3      OH2            22.5904850248      -32.3139893232       11.5806828508  SOLV      4029            0.0000000000
     12206      4040  TIP3      H1             23.0356450248      -33.1057393232       11.8826528508  SOLV      4029            0.0000000000
     12207      4040  TIP3      H2             23.0567850248      -31.5974693232       12.0112428508  SOLV      4029            0.0000000000
     12208      4041  TIP3      OH2            20.8945150248      -29.3146893232       12.6497028508  SOLV      4030            0.0000000000
     12209      4041  TIP3      H1             21.3864950248      -29.5356393232       11.8589028508  SOLV      4030            0.0000000000
     12210      4041  TIP3      H2             21.2566050248      -28.4743493232       12.9306528508  SOLV      4030            0.0000000000
     12211      4042  TIP3      OH2            26.3179250248      -20.1693493232       15.4511728508  SOLV      4031            0.0000000000
     12212      4042  TIP3      H1             25.8930350248      -19.3594993232       15.1686328508  SOLV      4031            0.0000000000
     12213      4042  TIP3      H2             27.2222050248      -20.0839393232       15.1491528508  SOLV      4031            0.0000000000
     12214      4043  TIP3      OH2            23.7195950248      -16.9129593232       15.4987028508  SOLV      4032            0.0000000000
     12215      4043  TIP3      H1             22.9992350248      -16.4728593232       15.0474728508  SOLV      4032            0.0000000000
     12216      4043  TIP3      H2             23.3539950248      -17.1634893232       16.3471028508  SOLV      4032            0.0000000000
     12217      4044  TIP3      OH2            26.1868550248      -17.3125693232       14.5284228508  SOLV      4033            0.0000000000
     12218      4044  TIP3      H1             25.3220750248      -17.2407193232       14.9324328508  SOLV      4033            0.0000000000
     12219      4044  TIP3      H2             26.1317550248      -16.7658393232       13.7446728508  SOLV      4033            0.0000000000
     12220      4045  TIP3      OH2            23.1344050248      -18.2897093232       12.4088828508  SOLV      4034            0.0000000000
     12221      4045  TIP3      H1             23.1160050248      -18.7151993232       13.2661128508  SOLV      4034            0.0000000000
     12222      4045  TIP3      H2             23.9391950248      -18.6082093232       12.0001028508  SOLV      4034            0.0000000000
     12223      4046  TIP3      OH2            25.2757150248      -19.5798393232       11.0638728508  SOLV      4035            0.0000000000
     12224      4046  TIP3      H1             25.0567850248      -20.4960993232       11.2334728508  SOLV      4035            0.0000000000
     12225      4046  TIP3      H2             26.0999350248      -19.4397993232       11.5300128508  SOLV      4035            0.0000000000
     12226      4047  TIP3      OH2            22.3853750248      -19.0657893232        5.5801128508  SOLV      4036            0.0000000000
     12227      4047  TIP3      H1             21.7003650248      -19.1038993232        4.9126228508  SOLV      4036            0.0000000000
     12228      4047  TIP3      H2             22.3890950248      -18.1530293232        5.8683228508  SOLV      4036            0.0000000000
     12229      4048  TIP3      OH2            24.2034950248      -18.1457093232        2.6053228508  SOLV      4037            0.0000000000
     12230      4048  TIP3      H1             23.9359550248      -17.8594193232        3.4786328508  SOLV      4037            0.0000000000
     12231      4048  TIP3      H2             24.9747550248      -18.6917893232        2.7575728508  SOLV      4037            0.0000000000
     12232      4049  TIP3      OH2           -23.8416549752       -6.7995893232        8.8377428508  SOLV      4038            0.0000000000
     12233      4049  TIP3      H1            -23.7525449752       -5.8557693232        8.7054528508  SOLV      4038            0.0000000000
     12234      4049  TIP3      H2            -24.4798949752       -7.0749493232        8.1796828508  SOLV      4038            0.0000000000
     12235      4050  TIP3      OH2           -24.9085249752       -7.5445193232       12.2565628508  SOLV      4039            0.0000000000
     12236      4050  TIP3      H1            -24.9467749752       -8.1908893232       12.9615228508  SOLV      4039            0.0000000000
     12237      4050  TIP3      H2            -25.2308749752       -8.0110793232       11.4854328508  SOLV      4039            0.0000000000
     12238      4051  TIP3      OH2           -32.5400249752       -7.9303093232       13.8495528508  SOLV      4040            0.0000000000
     12239      4051  TIP3      H1            -32.4988149752       -8.5559793232       14.5727928508  SOLV      4040            0.0000000000
     12240      4051  TIP3      H2            -31.8372549752       -7.3064493232       14.0315928508  SOLV      4040            0.0000000000
     12241      4052  TIP3      OH2           -21.2025049752       -4.6054793232       10.5580728508  SOLV      4041            0.0000000000
     12242      4052  TIP3      H1            -21.6432349752       -5.3258793232       11.0086328508  SOLV      4041            0.0000000000
     12243      4052  TIP3      H2            -21.2155349752       -3.8847593232       11.1878428508  SOLV      4041            0.0000000000
     12244      4053  TIP3      OH2           -31.6167149752       -3.4804193232       12.3844628508  SOLV      4042            0.0000000000
     12245      4053  TIP3      H1            -31.9861949752       -4.2823693232       12.0148928508  SOLV      4042            0.0000000000
     12246      4053  TIP3      H2            -30.6756049752       -3.6489293232       12.4308028508  SOLV      4042            0.0000000000
     12247      4054  TIP3      OH2           -35.0066649752       -9.8201593232        7.7773428508  SOLV      4043            0.0000000000
     12248      4054  TIP3      H1            -35.4543249752       -8.9742893232        7.7589928508  SOLV      4043            0.0000000000
     12249      4054  TIP3      H2            -35.5675449752      -10.3997393232        7.2618528508  SOLV      4043            0.0000000000
     12250      4055  TIP3      OH2           -34.2960549752       -7.6581993232        9.9031428508  SOLV      4044            0.0000000000
     12251      4055  TIP3      H1            -34.0827049752       -8.4280393232       10.4304428508  SOLV      4044            0.0000000000
     12252      4055  TIP3      H2            -33.5582949752       -7.5685293232        9.2999028508  SOLV      4044            0.0000000000
     12253      4056  TIP3      OH2           -24.0909549752        0.4986906768       10.7701128508  SOLV      4045            0.0000000000
     12254      4056  TIP3      H1            -23.4713149752       -0.1778393232       10.4970328508  SOLV      4045            0.0000000000
     12255      4056  TIP3      H2            -24.2992149752        0.2807706768       11.6786028508  SOLV      4045            0.0000000000
     12256      4057  TIP3      OH2           -26.5190849752       -5.1123793232       12.6626628508  SOLV      4046            0.0000000000
     12257      4057  TIP3      H1            -26.2152949752       -5.7982393232       12.0680728508  SOLV      4046            0.0000000000
     12258      4057  TIP3      H2            -25.7976849752       -4.9935093232       13.2804628508  SOLV      4046            0.0000000000
     12259      4058  TIP3      OH2           -17.8561049752      -13.5108493232       13.5232828508  SOLV      4047            0.0000000000
     12260      4058  TIP3      H1            -17.8068849752      -12.9007293232       14.2591928508  SOLV      4047            0.0000000000
     12261      4058  TIP3      H2            -17.4305949752      -13.0497593232       12.8003928508  SOLV      4047            0.0000000000
     12262      4059  TIP3      OH2           -23.3783849752      -10.7181393232       12.9901428508  SOLV      4048            0.0000000000
     12263      4059  TIP3      H1            -23.2357949752      -11.6644393232       13.0103028508  SOLV      4048            0.0000000000
     12264      4059  TIP3      H2            -23.4844849752      -10.5111593232       12.0616328508  SOLV      4048            0.0000000000
     12265      4060  TIP3      OH2           -30.2235549752      -12.6164993232       10.2626228508  SOLV      4049            0.0000000000
     12266      4060  TIP3      H1            -30.1804449752      -11.7566493232        9.8442528508  SOLV      4049            0.0000000000
     12267      4060  TIP3      H2            -30.6811449752      -13.1690293232        9.6289428508  SOLV      4049            0.0000000000
     12268      4061  TIP3      OH2           -22.5012849752      -12.4859393232        8.6634528508  SOLV      4050            0.0000000000
     12269      4061  TIP3      H1            -21.8548549752      -12.8146193232        9.2882128508  SOLV      4050            0.0000000000
     12270      4061  TIP3      H2            -21.9913449752      -11.9680393232        8.0405928508  SOLV      4050            0.0000000000
     12271      4062  TIP3      OH2           -33.6034049752      -10.2199193232       11.0247628508  SOLV      4051            0.0000000000
     12272      4062  TIP3      H1            -32.9497449752      -10.7697493232       11.4567728508  SOLV      4051            0.0000000000
     12273      4062  TIP3      H2            -33.5794749752      -10.4940193232       10.1079628508  SOLV      4051            0.0000000000
     12274      4063  TIP3      OH2           -28.4469549752       -8.6697893232       10.2399128508  SOLV      4052            0.0000000000
     12275      4063  TIP3      H1            -27.8308549752       -9.1962493232       10.7493128508  SOLV      4052            0.0000000000
     12276      4063  TIP3      H2            -29.0330749752       -9.3099193232        9.8362728508  SOLV      4052            0.0000000000
     12277      4064  TIP3      OH2           -17.4646449752      -12.0329293232       15.7592628508  SOLV      4053            0.0000000000
     12278      4064  TIP3      H1            -18.1531849752      -11.3748593232       15.6639228508  SOLV      4053            0.0000000000
     12279      4064  TIP3      H2            -17.4491849752      -12.2301393232       16.6958028508  SOLV      4053            0.0000000000
     12280      4065  TIP3      OH2           -31.4133649752      -13.6986593232       14.3367028508  SOLV      4054            0.0000000000
     12281      4065  TIP3      H1            -31.6321949752      -13.1685993232       13.5703028508  SOLV      4054            0.0000000000
     12282      4065  TIP3      H2            -32.0812749752      -13.4721093232       14.9838428508  SOLV      4054            0.0000000000
     12283      4066  TIP3      OH2           -24.0443849752       -4.1985493232        7.8806128508  SOLV      4055            0.0000000000
     12284      4066  TIP3      H1            -24.3398749752       -4.5213193232        7.0293028508  SOLV      4055            0.0000000000
     12285      4066  TIP3      H2            -24.3686049752       -3.2988793232        7.9218728508  SOLV      4055            0.0000000000
     12286      4067  TIP3      OH2           -28.8442249752       -6.0230893232       14.6240728508  SOLV      4056            0.0000000000
     12287      4067  TIP3      H1            -29.5843149752       -5.4249393232       14.7275928508  SOLV      4056            0.0000000000
     12288      4067  TIP3      H2            -28.1302749752       -5.4691293232       14.3084328508  SOLV      4056            0.0000000000
     12289      4068  TIP3      OH2           -20.7374449752      -13.1950093232       10.6440428508  SOLV      4057            0.0000000000
     12290      4068  TIP3      H1            -20.9526449752      -13.9606693232       11.1766428508  SOLV      4057            0.0000000000
     12291      4068  TIP3      H2            -20.0817049752      -12.7225493232       11.1568928508  SOLV      4057            0.0000000000
     12292      4069  TIP3      OH2           -31.8196349752      -11.8064793232       12.2889228508  SOLV      4058            0.0000000000
     12293      4069  TIP3      H1            -31.2060049752      -11.1737193232       12.6621628508  SOLV      4058            0.0000000000
     12294      4069  TIP3      H2            -31.3075649752      -12.2789793232       11.6326128508  SOLV      4058            0.0000000000
     12295      4070  TIP3      OH2           -30.4367949752       -4.0587893232       15.4112228508  SOLV      4059            0.0000000000
     12296      4070  TIP3      H1            -30.4420349752       -3.1794393232       15.0331528508  SOLV      4059            0.0000000000
     12297      4070  TIP3      H2            -31.2903849752       -4.1423793232       15.8362128508  SOLV      4059            0.0000000000
     12298      4071  TIP3      OH2           -34.3157049752       -4.3879993232        6.1931528508  SOLV      4060            0.0000000000
     12299      4071  TIP3      H1            -34.5876149752       -4.1588993232        5.3044428508  SOLV      4060            0.0000000000
     12300      4071  TIP3      H2            -34.2701349752       -3.5501193232        6.6536828508  SOLV      4060            0.0000000000
     12301      4072  TIP3      OH2           -20.6907349752       -2.7664093232       12.9060028508  SOLV      4061            0.0000000000
     12302      4072  TIP3      H1            -21.6323649752       -2.7080193232       13.0676928508  SOLV      4061            0.0000000000
     12303      4072  TIP3      H2            -20.4141249752       -1.8603593232       12.7689728508  SOLV      4061            0.0000000000
     12304      4073  TIP3      OH2           -20.3900349752      -14.4798793232       14.3233928508  SOLV      4062            0.0000000000
     12305      4073  TIP3      H1            -21.1261149752      -13.8691693232       14.2855228508  SOLV      4062            0.0000000000
     12306      4073  TIP3      H2            -19.7066349752      -14.0649793232       13.7970328508  SOLV      4062            0.0000000000
     12307      4074  TIP3      OH2           -27.3868949752      -16.3931493232       11.7891928508  SOLV      4063            0.0000000000
     12308      4074  TIP3      H1            -27.5044749752      -17.3415493232       11.7350228508  SOLV      4063            0.0000000000
     12309      4074  TIP3      H2            -28.2418849752      -16.0605393232       12.0623028508  SOLV      4063            0.0000000000
     12310      4075  TIP3      OH2           -22.4386149752       -0.9850593232        9.5311628508  SOLV      4064            0.0000000000
     12311      4075  TIP3      H1            -22.0133849752       -1.6922693232        9.0461228508  SOLV      4064            0.0000000000
     12312      4075  TIP3      H2            -22.1216149752       -0.1837893232        9.1143828508  SOLV      4064            0.0000000000
     12313      4076  TIP3      OH2           -21.2789649752       -3.0842093232        8.0398228508  SOLV      4065            0.0000000000
     12314      4076  TIP3      H1            -21.5364849752       -3.7741993232        7.4284128508  SOLV      4065            0.0000000000
     12315      4076  TIP3      H2            -21.2078849752       -3.5270893232        8.8854128508  SOLV      4065            0.0000000000
     12316      4077  TIP3      OH2           -19.5929449752       -4.5175393232       16.5171728508  SOLV      4066            0.0000000000
     12317      4077  TIP3      H1            -19.4533149752       -5.1092893232       15.7778728508  SOLV      4066            0.0000000000
     12318      4077  TIP3      H2            -19.4256649752       -3.6449493232       16.1610528508  SOLV      4066            0.0000000000
     12319      4078  TIP3      OH2           -25.1204049752       -7.5555893232        6.2897728508  SOLV      4067            0.0000000000
     12320      4078  TIP3      H1            -25.8318549752       -7.0206193232        5.9378228508  SOLV      4067            0.0000000000
     12321      4078  TIP3      H2            -24.4294449752       -7.5003793232        5.6296628508  SOLV      4067            0.0000000000
     12322      4079  TIP3      OH2           -25.0664849752       -9.0981593232        3.3282728508  SOLV      4068            0.0000000000
     12323      4079  TIP3      H1            -24.3654949752       -9.0754693232        3.9796728508  SOLV      4068            0.0000000000
     12324      4079  TIP3      H2            -24.7641949752       -9.7261893232        2.6722028508  SOLV      4068            0.0000000000
     12325      4080  TIP3      OH2           -17.7510149752       -8.1777393232       14.5832128508  SOLV      4069            0.0000000000
     12326      4080  TIP3      H1            -18.4036049752       -7.4831793232       14.6723028508  SOLV      4069            0.0000000000
     12327      4080  TIP3      H2            -17.2859849752       -7.9676493232       13.7733728508  SOLV      4069            0.0000000000
     12328      4081  TIP3      OH2           -21.7146349752       -7.3462593232        7.2413628508  SOLV      4070            0.0000000000
     12329      4081  TIP3      H1            -22.4465349752       -7.1178893232        7.8144228508  SOLV      4070            0.0000000000
     12330      4081  TIP3      H2            -21.2674149752       -8.0599893232        7.6961128508  SOLV      4070            0.0000000000
     12331      4082  TIP3      OH2           -21.8172849752       -9.1719993232       16.3090628508  SOLV      4071            0.0000000000
     12332      4082  TIP3      H1            -21.7373749752       -8.4085593232       16.8809128508  SOLV      4071            0.0000000000
     12333      4082  TIP3      H2            -22.4185149752       -8.8927593232       15.6185728508  SOLV      4071            0.0000000000
     12334      4083  TIP3      OH2           -30.0692649752       -6.7156393232        9.1238628508  SOLV      4072            0.0000000000
     12335      4083  TIP3      H1            -30.3997449752       -7.0862993232        8.3055628508  SOLV      4072            0.0000000000
     12336      4083  TIP3      H2            -29.4808549752       -7.3862393232        9.4706928508  SOLV      4072            0.0000000000
     12337      4084  TIP3      OH2           -28.7025149752       -3.2875793232       11.8050828508  SOLV      4073            0.0000000000
     12338      4084  TIP3      H1            -28.7973849752       -3.8662693232       11.0485428508  SOLV      4073            0.0000000000
     12339      4084  TIP3      H2            -27.9731549752       -3.6590093232       12.3013628508  SOLV      4073            0.0000000000
     12340      4085  TIP3      OH2           -29.7027149752       -7.9470793232       12.7573628508  SOLV      4074            0.0000000000
     12341      4085  TIP3      H1            -29.1374649752       -7.8256593232       11.9944828508  SOLV      4074            0.0000000000
     12342      4085  TIP3      H2            -29.3838249752       -7.3095793232       13.3962128508  SOLV      4074            0.0000000000
     12343      4086  TIP3      OH2           -23.3934949752       -2.4438893232       13.4914128508  SOLV      4075            0.0000000000
     12344      4086  TIP3      H1            -23.6338349752       -1.7815793232       14.1393328508  SOLV      4075            0.0000000000
     12345      4086  TIP3      H2            -23.5916749752       -3.2783693232       13.9163728508  SOLV      4075            0.0000000000
     12346      4087  TIP3      OH2           -28.8226449752       -3.5478093232       17.4745528508  SOLV      4076            0.0000000000
     12347      4087  TIP3      H1            -29.1338949752       -2.7654893232       17.9298728508  SOLV      4076            0.0000000000
     12348      4087  TIP3      H2            -29.4726249752       -3.7008993232       16.7887528508  SOLV      4076            0.0000000000
     12349      4088  TIP3      OH2           -22.8436849752       -8.1839693232        4.9264828508  SOLV      4077            0.0000000000
     12350      4088  TIP3      H1            -22.2641349752       -8.0339393232        5.6733728508  SOLV      4077            0.0000000000
     12351      4088  TIP3      H2            -22.4296849752       -7.7132293232        4.2031228508  SOLV      4077            0.0000000000
     12352      4089  TIP3      OH2           -31.9026549752       -7.3496993232       16.7031228508  SOLV      4078            0.0000000000
     12353      4089  TIP3      H1            -31.8323349752       -6.6990193232       17.4016228508  SOLV      4078            0.0000000000
     12354      4089  TIP3      H2            -32.7934349752       -7.2469493232       16.3682128508  SOLV      4078            0.0000000000
     12355      4090  TIP3      OH2           -25.1171949752       -1.4471193232        8.3617928508  SOLV      4079            0.0000000000
     12356      4090  TIP3      H1            -24.6434349752       -1.1514893232        9.1392128508  SOLV      4079            0.0000000000
     12357      4090  TIP3      H2            -25.6802649752       -0.7089593232        8.1287528508  SOLV      4079            0.0000000000
     12358      4091  TIP3      OH2           -30.5830549752       -1.4763093232       18.2379328508  SOLV      4080            0.0000000000
     12359      4091  TIP3      H1            -30.5755249752       -1.6123393232       17.2904828508  SOLV      4080            0.0000000000
     12360      4091  TIP3      H2            -31.4990149752       -1.5934993232       18.4899328508  SOLV      4080            0.0000000000
     12361      4092  TIP3      OH2           -19.1448449752      -16.4339293232        4.7394528508  SOLV      4081            0.0000000000
     12362      4092  TIP3      H1            -20.0447749752      -16.2950293232        5.0345128508  SOLV      4081            0.0000000000
     12363      4092  TIP3      H2            -18.8930049752      -15.6024693232        4.3376228508  SOLV      4081            0.0000000000
     12364      4093  TIP3      OH2           -31.0789949752       -7.6462093232        6.7131428508  SOLV      4082            0.0000000000
     12365      4093  TIP3      H1            -31.3708649752       -6.8780393232        6.2222728508  SOLV      4082            0.0000000000
     12366      4093  TIP3      H2            -31.7534749752       -8.3055893232        6.5502828508  SOLV      4082            0.0000000000
     12367      4094  TIP3      OH2           -17.9557049752       -2.0676893232        3.1158428508  SOLV      4083            0.0000000000
     12368      4094  TIP3      H1            -17.8823549752       -1.1286693232        3.2863728508  SOLV      4083            0.0000000000
     12369      4094  TIP3      H2            -17.0501949752       -2.3728293232        3.0595728508  SOLV      4083            0.0000000000
     12370      4095  TIP3      OH2           -34.9859849752       -5.2832893232       15.5281228508  SOLV      4084            0.0000000000
     12371      4095  TIP3      H1            -35.4871449752       -5.3113493232       14.7130928508  SOLV      4084            0.0000000000
     12372      4095  TIP3      H2            -34.9806149752       -6.1889693232       15.8378528508  SOLV      4084            0.0000000000
     12373      4096  TIP3      OH2           -35.2357149752       -2.5029093232       12.4121428508  SOLV      4085            0.0000000000
     12374      4096  TIP3      H1            -34.2896549752       -2.6472093232       12.3930928508  SOLV      4085            0.0000000000
     12375      4096  TIP3      H2            -35.3480849752       -1.7186293232       12.9492628508  SOLV      4085            0.0000000000
     12376      4097  TIP3      OH2           -17.0378649752       -1.8369393232       18.0945128508  SOLV      4086            0.0000000000
     12377      4097  TIP3      H1            -17.0871849752       -2.7921293232       18.0572728508  SOLV      4086            0.0000000000
     12378      4097  TIP3      H2            -17.8646349752       -1.5694093232       18.4958928508  SOLV      4086            0.0000000000
     12379      4098  TIP3      OH2           -26.0594649752       -2.2630193232       16.9706528508  SOLV      4087            0.0000000000
     12380      4098  TIP3      H1            -25.9720049752       -1.4365593232       17.4455628508  SOLV      4087            0.0000000000
     12381      4098  TIP3      H2            -26.9229549752       -2.5926393232       17.2195828508  SOLV      4087            0.0000000000
     12382      4099  TIP3      OH2           -25.6448849752        1.5093506768        6.7767128508  SOLV      4088            0.0000000000
     12383      4099  TIP3      H1            -25.7202849752        1.3880706768        5.8302328508  SOLV      4088            0.0000000000
     12384      4099  TIP3      H2            -25.6120149752        2.4586206768        6.8951728508  SOLV      4088            0.0000000000
     12385      4100  TIP3      OH2           -31.9915049752        0.2980506768        8.5576128508  SOLV      4089            0.0000000000
     12386      4100  TIP3      H1            -31.8394649752       -0.0499093232        9.4362628508  SOLV      4089            0.0000000000
     12387      4100  TIP3      H2            -32.8424649752       -0.0582193232        8.3023328508  SOLV      4089            0.0000000000
     12388      4101  TIP3      OH2           -22.5432849752        0.6633706768        3.7789528508  SOLV      4090            0.0000000000
     12389      4101  TIP3      H1            -22.1684449752       -0.0810193232        3.3082128508  SOLV      4090            0.0000000000
     12390      4101  TIP3      H2            -22.5389149752        0.3934306768        4.6972828508  SOLV      4090            0.0000000000
     12391      4102  TIP3      OH2           -22.8744749752        0.5890806768        6.5281728508  SOLV      4091            0.0000000000
     12392      4102  TIP3      H1            -23.8094949752        0.6892706768        6.7068728508  SOLV      4091            0.0000000000
     12393      4102  TIP3      H2            -22.5942849752       -0.1203193232        7.1064928508  SOLV      4091            0.0000000000
     12394      4103  TIP3      OH2           -19.8858849752      -10.3436893232       18.5747328508  SOLV      4092            0.0000000000
     12395      4103  TIP3      H1            -20.2932049752       -9.8631293232       17.8540628508  SOLV      4092            0.0000000000
     12396      4103  TIP3      H2            -19.8453149752      -11.2490893232       18.2668128508  SOLV      4092            0.0000000000
     12397      4104  TIP3      OH2           -32.7369349752       -3.9597493232       16.5714028508  SOLV      4093            0.0000000000
     12398      4104  TIP3      H1            -32.5208049752       -4.3211893232       17.4309828508  SOLV      4093            0.0000000000
     12399      4104  TIP3      H2            -33.5924649752       -4.3343693232       16.3617528508  SOLV      4093            0.0000000000
     12400      4105  TIP3      OH2           -30.1181349752      -15.4896993232       12.5668228508  SOLV      4094            0.0000000000
     12401      4105  TIP3      H1            -30.9797649752      -15.5768793232       12.1591128508  SOLV      4094            0.0000000000
     12402      4105  TIP3      H2            -30.1405649752      -14.6336893232       12.9945828508  SOLV      4094            0.0000000000
     12403      4106  TIP3      OH2           -25.4553549752      -15.7676593232       15.9415228508  SOLV      4095            0.0000000000
     12404      4106  TIP3      H1            -25.0350449752      -16.1829493232       16.6945828508  SOLV      4095            0.0000000000
     12405      4106  TIP3      H2            -26.3883949752      -15.9463293232       16.0587228508  SOLV      4095            0.0000000000
     12406      4107  TIP3      OH2           -22.1288649752      -12.0121393232       16.7949728508  SOLV      4096            0.0000000000
     12407      4107  TIP3      H1            -22.6429149752      -12.1379193232       17.5925728508  SOLV      4096            0.0000000000
     12408      4107  TIP3      H2            -22.2843949752      -11.0998293232       16.5505928508  SOLV      4096            0.0000000000
     12409      4108  TIP3      OH2           -21.3663749752       -7.1511393232        2.5562728508  SOLV      4097            0.0000000000
     12410      4108  TIP3      H1            -21.3242949752       -7.3737493232        1.6262728508  SOLV      4097            0.0000000000
     12411      4108  TIP3      H2            -20.5171649752       -6.7524293232        2.7462628508  SOLV      4097            0.0000000000
     12412      4109  TIP3      OH2           -25.7936249752      -13.2753193232        3.2266028508  SOLV      4098            0.0000000000
     12413      4109  TIP3      H1            -26.0471449752      -13.2561593232        4.1494128508  SOLV      4098            0.0000000000
     12414      4109  TIP3      H2            -26.0504149752      -14.1467793232        2.9252228508  SOLV      4098            0.0000000000
     12415      4110  TIP3      OH2           -30.0271249752      -10.5242493232       13.6618428508  SOLV      4099            0.0000000000
     12416      4110  TIP3      H1            -30.6689149752      -10.5645193232       14.3708528508  SOLV      4099            0.0000000000
     12417      4110  TIP3      H2            -29.9899249752       -9.5977793232       13.4241428508  SOLV      4099            0.0000000000
     12418      4111  TIP3      OH2           -30.0302149752      -10.3032393232        8.5738428508  SOLV      4100            0.0000000000
     12419      4111  TIP3      H1            -30.9229249752      -10.6436293232        8.5152228508  SOLV      4100            0.0000000000
     12420      4111  TIP3      H2            -29.5795549752      -10.6801493232        7.8181628508  SOLV      4100            0.0000000000
     12421      4112  TIP3      OH2           -24.4946649752       -9.8872093232        7.3909228508  SOLV      4101            0.0000000000
     12422      4112  TIP3      H1            -24.9036349752       -9.0723493232        7.0994028508  SOLV      4101            0.0000000000
     12423      4112  TIP3      H2            -23.7740449752      -10.0271993232        6.7766328508  SOLV      4101            0.0000000000
     12424      4113  TIP3      OH2           -25.3925049752       -9.7115693232       18.8789928508  SOLV      4102            0.0000000000
     12425      4113  TIP3      H1            -25.9551249752      -10.4164093232       19.1997728508  SOLV      4102            0.0000000000
     12426      4113  TIP3      H2            -24.5661649752       -9.8323793232       19.3467528508  SOLV      4102            0.0000000000
     12427      4114  TIP3      OH2           -23.4898949752      -10.4411693232       10.2048928508  SOLV      4103            0.0000000000
     12428      4114  TIP3      H1            -23.6854449752       -9.8354893232        9.4899528508  SOLV      4103            0.0000000000
     12429      4114  TIP3      H2            -23.3086349752      -11.2746493232        9.7705228508  SOLV      4103            0.0000000000
     12430      4115  TIP3      OH2           -32.2770749752      -10.2038993232       15.5290428508  SOLV      4104            0.0000000000
     12431      4115  TIP3      H1            -32.3151349752       -9.8037393232       16.3977528508  SOLV      4104            0.0000000000
     12432      4115  TIP3      H2            -32.7679649752      -11.0206593232       15.6193328508  SOLV      4104            0.0000000000
     12433      4116  TIP3      OH2           -28.9113349752      -12.8296693232        2.3276428508  SOLV      4105            0.0000000000
     12434      4116  TIP3      H1            -29.3422649752      -13.2746593232        3.0573828508  SOLV      4105            0.0000000000
     12435      4116  TIP3      H2            -29.6294649752      -12.4580393232        1.8153928508  SOLV      4105            0.0000000000
     12436      4117  TIP3      OH2           -35.6689949752      -13.0877193232        9.3795128508  SOLV      4106            0.0000000000
     12437      4117  TIP3      H1            -35.0382249752      -13.1165093232       10.0989028508  SOLV      4106            0.0000000000
     12438      4117  TIP3      H2            -35.2195649752      -13.5128493232        8.6491028508  SOLV      4106            0.0000000000
     12439      4118  TIP3      OH2           -34.3947849752      -12.3415193232        4.8035528508  SOLV      4107            0.0000000000
     12440      4118  TIP3      H1            -33.9206149752      -11.7505293232        4.2186428508  SOLV      4107            0.0000000000
     12441      4118  TIP3      H2            -35.1121449752      -11.8112293232        5.1505628508  SOLV      4107            0.0000000000
     12442      4119  TIP3      OH2           -24.2259749752       -8.8030393232       14.8761328508  SOLV      4108            0.0000000000
     12443      4119  TIP3      H1            -23.9024949752       -9.4340693232       14.2331828508  SOLV      4108            0.0000000000
     12444      4119  TIP3      H2            -24.6660449752       -9.3378193232       15.5368728508  SOLV      4108            0.0000000000
     12445      4120  TIP3      OH2           -27.4486849752      -12.8754893232        9.6602528508  SOLV      4109            0.0000000000
     12446      4120  TIP3      H1            -28.3595749752      -12.8188093232        9.9488528508  SOLV      4109            0.0000000000
     12447      4120  TIP3      H2            -26.9433949752      -12.9359393232       10.4709728508  SOLV      4109            0.0000000000
     12448      4121  TIP3      OH2           -32.6203449752      -11.2468593232        8.4870128508  SOLV      4110            0.0000000000
     12449      4121  TIP3      H1            -33.5095449752      -11.1473093232        8.1469728508  SOLV      4110            0.0000000000
     12450      4121  TIP3      H2            -32.3238549752      -12.0885593232        8.1408028508  SOLV      4110            0.0000000000
     12451      4122  TIP3      OH2           -28.9671649752      -11.2465993232        6.1434728508  SOLV      4111            0.0000000000
     12452      4122  TIP3      H1            -28.0356149752      -11.1175993232        6.3217828508  SOLV      4111            0.0000000000
     12453      4122  TIP3      H2            -29.1821349752      -10.5771693232        5.4939428508  SOLV      4111            0.0000000000
     12454      4123  TIP3      OH2           -23.0434949752      -13.6408593232       12.9244328508  SOLV      4112            0.0000000000
     12455      4123  TIP3      H1            -23.7203349752      -13.5095493232       13.5884028508  SOLV      4112            0.0000000000
     12456      4123  TIP3      H2            -23.5290049752      -13.7959093232       12.1142028508  SOLV      4112            0.0000000000
     12457      4124  TIP3      OH2           -30.2931449752      -10.0523793232        3.7100828508  SOLV      4113            0.0000000000
     12458      4124  TIP3      H1            -30.8356349752      -10.4319993232        3.0188428508  SOLV      4113            0.0000000000
     12459      4124  TIP3      H2            -29.4596549752       -9.8579093232        3.2814928508  SOLV      4113            0.0000000000
     12460      4125  TIP3      OH2           -19.7559849752        2.0306806768       19.2011928508  SOLV      4114            0.0000000000
     12461      4125  TIP3      H1            -19.5561149752        2.4548706768       18.3667228508  SOLV      4114            0.0000000000
     12462      4125  TIP3      H2            -19.1006149752        2.3745006768       19.8082328508  SOLV      4114            0.0000000000
     12463      4126  TIP3      OH2           -26.1287149752      -10.0881893232       11.5472128508  SOLV      4115            0.0000000000
     12464      4126  TIP3      H1            -25.5643749752      -10.6345293232       11.0001728508  SOLV      4115            0.0000000000
     12465      4126  TIP3      H2            -26.2763749752      -10.6099993232       12.3359728508  SOLV      4115            0.0000000000
     12466      4127  TIP3      OH2           -31.1267449752      -13.9515793232        7.9656928508  SOLV      4116            0.0000000000
     12467      4127  TIP3      H1            -31.4437949752      -14.8540493232        7.9302328508  SOLV      4116            0.0000000000
     12468      4127  TIP3      H2            -30.3453349752      -13.9498393232        7.4128528508  SOLV      4116            0.0000000000
     12469      4128  TIP3      OH2           -27.5021249752      -11.6995793232       13.9612528508  SOLV      4117            0.0000000000
     12470      4128  TIP3      H1            -28.3375949752      -11.2456293232       14.0714928508  SOLV      4117            0.0000000000
     12471      4128  TIP3      H2            -26.9780649752      -11.4237293232       14.7132428508  SOLV      4117            0.0000000000
     12472      4129  TIP3      OH2           -26.9578649752       -5.4868093232        5.6458928508  SOLV      4118            0.0000000000
     12473      4129  TIP3      H1            -27.7027649752       -5.9942793232        5.3236828508  SOLV      4118            0.0000000000
     12474      4129  TIP3      H2            -27.0921449752       -5.4380093232        6.5923728508  SOLV      4118            0.0000000000
     12475      4130  TIP3      OH2           -19.8079749752       -6.3539893232       14.4326528508  SOLV      4119            0.0000000000
     12476      4130  TIP3      H1            -19.1660949752       -5.8973593232       13.8888728508  SOLV      4119            0.0000000000
     12477      4130  TIP3      H2            -20.6382849752       -6.2407493232       13.9700628508  SOLV      4119            0.0000000000
     12478      4131  TIP3      OH2           -23.0601849752      -12.6728193232        3.8451528508  SOLV      4120            0.0000000000
     12479      4131  TIP3      H1            -23.9987649752      -12.5612593232        3.6940328508  SOLV      4120            0.0000000000
     12480      4131  TIP3      H2            -22.7629749752      -11.8161293232        4.1517228508  SOLV      4120            0.0000000000
     12481      4132  TIP3      OH2           -25.4386549752       -5.3024793232       16.8828028508  SOLV      4121            0.0000000000
     12482      4132  TIP3      H1            -25.7840449752       -5.6842393232       17.6897628508  SOLV      4121            0.0000000000
     12483      4132  TIP3      H2            -25.6386449752       -4.3691193232       16.9540928508  SOLV      4121            0.0000000000
     12484      4133  TIP3      OH2           -22.3418349752      -10.8055493232        5.5058928508  SOLV      4122            0.0000000000
     12485      4133  TIP3      H1            -21.4499349752      -10.9430493232        5.8250128508  SOLV      4122            0.0000000000
     12486      4133  TIP3      H2            -22.2854749752      -10.0149393232        4.9692428508  SOLV      4122            0.0000000000
     12487      4134  TIP3      OH2           -31.8330349752       -6.1918093232       11.4156828508  SOLV      4123            0.0000000000
     12488      4134  TIP3      H1            -31.0883149752       -6.1942393232       10.8143328508  SOLV      4123            0.0000000000
     12489      4134  TIP3      H2            -31.7553749752       -7.0154293232       11.8971928508  SOLV      4123            0.0000000000
     12490      4135  TIP3      OH2           -24.8324549752       -4.0283793232        4.6713528508  SOLV      4124            0.0000000000
     12491      4135  TIP3      H1            -25.1276149752       -3.2015893232        5.0528328508  SOLV      4124            0.0000000000
     12492      4135  TIP3      H2            -25.5354549752       -4.6476893232        4.8674928508  SOLV      4124            0.0000000000
     12493      4136  TIP3      OH2           -23.1882949752       -2.8409293232       16.8333028508  SOLV      4125            0.0000000000
     12494      4136  TIP3      H1            -24.0888649752       -2.6576693232       16.5656928508  SOLV      4125            0.0000000000
     12495      4136  TIP3      H2            -23.1541849752       -2.5819993232       17.7541828508  SOLV      4125            0.0000000000
     12496      4137  TIP3      OH2           -17.4569649752      -10.5961393232        5.2005628508  SOLV      4126            0.0000000000
     12497      4137  TIP3      H1            -18.0113349752      -10.9923393232        4.5283128508  SOLV      4126            0.0000000000
     12498      4137  TIP3      H2            -17.3566049752       -9.6856193232        4.9228928508  SOLV      4126            0.0000000000
     12499      4138  TIP3      OH2           -17.4937649752       -4.7959693232       18.0377128508  SOLV      4127            0.0000000000
     12500      4138  TIP3      H1            -18.3449149752       -4.5575893232       17.6703528508  SOLV      4127            0.0000000000
     12501      4138  TIP3      H2            -16.9034249752       -4.8126493232       17.2844228508  SOLV      4127            0.0000000000
     12502      4139  TIP3      OH2           -19.1617949752       -1.8100993232        5.6657728508  SOLV      4128            0.0000000000
     12503      4139  TIP3      H1            -19.5346849752       -2.6357193232        5.9748328508  SOLV      4128            0.0000000000
     12504      4139  TIP3      H2            -18.8844449752       -1.9931593232        4.7681128508  SOLV      4128            0.0000000000
     12505      4140  TIP3      OH2           -22.0014049752       -7.0021493232       12.6869628508  SOLV      4129            0.0000000000
     12506      4140  TIP3      H1            -22.9297149752       -7.2339593232       12.6598928508  SOLV      4129            0.0000000000
     12507      4140  TIP3      H2            -21.5502949752       -7.7791693232       12.3568428508  SOLV      4129            0.0000000000
     12508      4141  TIP3      OH2           -29.4580949752       -2.6739893232        8.8198328508  SOLV      4130            0.0000000000
     12509      4141  TIP3      H1            -28.9308749752       -1.9005493232        8.6197128508  SOLV      4130            0.0000000000
     12510      4141  TIP3      H2            -30.3382449752       -2.4490693232        8.5182328508  SOLV      4130            0.0000000000
     12511      4142  TIP3      OH2           -33.7033249752       -7.8115793232        3.4070728508  SOLV      4131            0.0000000000
     12512      4142  TIP3      H1            -33.0873349752       -7.1848593232        3.7865528508  SOLV      4131            0.0000000000
     12513      4142  TIP3      H2            -34.5650649752       -7.4955993232        3.6787228508  SOLV      4131            0.0000000000
     12514      4143  TIP3      OH2           -28.0308649752       -5.0109993232        8.3962628508  SOLV      4132            0.0000000000
     12515      4143  TIP3      H1            -28.2718649752       -4.0855593232        8.4377928508  SOLV      4132            0.0000000000
     12516      4143  TIP3      H2            -28.7715049752       -5.4698693232        8.7926528508  SOLV      4132            0.0000000000
     12517      4144  TIP3      OH2           -27.5162049752       -0.8616393232       14.7113728508  SOLV      4133            0.0000000000
     12518      4144  TIP3      H1            -27.1537349752       -0.0070793232       14.4778128508  SOLV      4133            0.0000000000
     12519      4144  TIP3      H2            -26.9846849752       -1.1534793232       15.4520028508  SOLV      4133            0.0000000000
     12520      4145  TIP3      OH2           -29.3477849752        0.0107606768        7.9414828508  SOLV      4134            0.0000000000
     12521      4145  TIP3      H1            -30.2977349752        0.1165006768        7.9928128508  SOLV      4134            0.0000000000
     12522      4145  TIP3      H2            -28.9959749752        0.8315006768        8.2862328508  SOLV      4134            0.0000000000
     12523      4146  TIP3      OH2           -23.9721249752       -4.7625693232       14.4119328508  SOLV      4135            0.0000000000
     12524      4146  TIP3      H1            -24.3979949752       -4.9903993232       15.2383328508  SOLV      4135            0.0000000000
     12525      4146  TIP3      H2            -23.3915449752       -5.5013893232       14.2294628508  SOLV      4135            0.0000000000
     12526      4147  TIP3      OH2           -21.7692349752       -3.8335193232        3.4858328508  SOLV      4136            0.0000000000
     12527      4147  TIP3      H1            -21.4159249752       -4.2135393232        4.2901828508  SOLV      4136            0.0000000000
     12528      4147  TIP3      H2            -22.7178849752       -3.9270393232        3.5727628508  SOLV      4136            0.0000000000
     12529      4148  TIP3      OH2           -21.3137049752       -0.2106193232       16.8814128508  SOLV      4137            0.0000000000
     12530      4148  TIP3      H1            -21.9153849752       -0.7663293232       16.3860428508  SOLV      4137            0.0000000000
     12531      4148  TIP3      H2            -21.0323349752        0.4563606768       16.2551528508  SOLV      4137            0.0000000000
     12532      4149  TIP3      OH2           -17.2657949752        0.6457306768        3.6868528508  SOLV      4138            0.0000000000
     12533      4149  TIP3      H1            -16.5220049752        1.2317806768        3.5470128508  SOLV      4138            0.0000000000
     12534      4149  TIP3      H2            -17.9599849752        1.2143106768        4.0200928508  SOLV      4138            0.0000000000
     12535      4150  TIP3      OH2           -20.9033049752       -5.1613193232        5.7126228508  SOLV      4139            0.0000000000
     12536      4150  TIP3      H1            -21.1805449752       -5.8893893232        6.2687328508  SOLV      4139            0.0000000000
     12537      4150  TIP3      H2            -19.9760049752       -5.0421193232        5.9178828508  SOLV      4139            0.0000000000
     12538      4151  TIP3      OH2           -33.5399149752       -1.1734093232       14.7236128508  SOLV      4140            0.0000000000
     12539      4151  TIP3      H1            -33.3228849752       -2.1051693232       14.6925828508  SOLV      4140            0.0000000000
     12540      4151  TIP3      H2            -33.2935649752       -0.8989093232       15.6068928508  SOLV      4140            0.0000000000
     12541      4152  TIP3      OH2           -27.6784549752       -2.7219093232        1.9328328508  SOLV      4141            0.0000000000
     12542      4152  TIP3      H1            -27.4394749752       -3.4700993232        1.3857228508  SOLV      4141            0.0000000000
     12543      4152  TIP3      H2            -27.9473249752       -3.1097393232        2.7656128508  SOLV      4141            0.0000000000
     12544      4153  TIP3      OH2           -28.7413949752       -3.1515293232        4.3890928508  SOLV      4142            0.0000000000
     12545      4153  TIP3      H1            -28.5945949752       -3.6715493232        5.1791828508  SOLV      4142            0.0000000000
     12546      4153  TIP3      H2            -28.7442249752       -2.2447693232        4.6956828508  SOLV      4142            0.0000000000
     12547      4154  TIP3      OH2           -32.2882849752       -5.8991993232        4.8996328508  SOLV      4143            0.0000000000
     12548      4154  TIP3      H1            -32.9743549752       -5.5469493232        5.4666028508  SOLV      4143            0.0000000000
     12549      4154  TIP3      H2            -31.7654949752       -5.1362393232        4.6530628508  SOLV      4143            0.0000000000
     12550      4155  TIP3      OH2           -24.4567749752      -13.2368193232       15.1785328508  SOLV      4144            0.0000000000
     12551      4155  TIP3      H1            -23.7579849752      -13.1629493232       15.8285028508  SOLV      4144            0.0000000000
     12552      4155  TIP3      H2            -24.8376349752      -14.1013193232       15.3328228508  SOLV      4144            0.0000000000
     12553      4156  TIP3      OH2           -23.6722849752      -13.5846493232        6.2757628508  SOLV      4145            0.0000000000
     12554      4156  TIP3      H1            -23.4524549752      -13.1131093232        5.4723028508  SOLV      4145            0.0000000000
     12555      4156  TIP3      H2            -23.1138849752      -13.1903893232        6.9458228508  SOLV      4145            0.0000000000
     12556      4157  TIP3      OH2           -26.0036749752       -1.4541693232        5.1385128508  SOLV      4146            0.0000000000
     12557      4157  TIP3      H1            -26.8200649752       -0.9571993232        5.1909428508  SOLV      4146            0.0000000000
     12558      4157  TIP3      H2            -25.4740449752       -0.9788193232        4.4983928508  SOLV      4146            0.0000000000
     12559      4158  TIP3      OH2           -26.4722949752      -11.8567693232        7.1106028508  SOLV      4147            0.0000000000
     12560      4158  TIP3      H1            -25.6600349752      -11.3524493232        7.1567728508  SOLV      4147            0.0000000000
     12561      4158  TIP3      H2            -26.7169949752      -12.0017993232        8.0245628508  SOLV      4147            0.0000000000
     12562      4159  TIP3      OH2           -25.9366549752      -10.8704993232       16.2952628508  SOLV      4148            0.0000000000
     12563      4159  TIP3      H1            -25.8176249752      -10.2969593232       17.0523028508  SOLV      4148            0.0000000000
     12564      4159  TIP3      H2            -25.2811949752      -11.5585593232       16.4100428508  SOLV      4148            0.0000000000
     12565      4160  TIP3      OH2           -25.5886249752      -14.7754693232        8.0487128508  SOLV      4149            0.0000000000
     12566      4160  TIP3      H1            -25.9352749752      -14.1584093232        8.6931428508  SOLV      4149            0.0000000000
     12567      4160  TIP3      H2            -24.9299349752      -14.2748993232        7.5672628508  SOLV      4149            0.0000000000
     12568      4161  TIP3      OH2           -28.6653649752       -0.4104493232        5.1202028508  SOLV      4150            0.0000000000
     12569      4161  TIP3      H1            -28.5044949752        0.3893006768        4.6194628508  SOLV      4150            0.0000000000
     12570      4161  TIP3      H2            -28.8625849752       -0.1038493232        6.0052628508  SOLV      4150            0.0000000000
     12571      4162  TIP3      OH2           -29.9309249752      -13.7125293232        4.7359628508  SOLV      4151            0.0000000000
     12572      4162  TIP3      H1            -30.0144449752      -12.8242193232        5.0826028508  SOLV      4151            0.0000000000
     12573      4162  TIP3      H2            -29.0408949752      -13.9778593232        4.9676428508  SOLV      4151            0.0000000000
     12574      4163  TIP3      OH2           -19.7320749752      -12.9634693232       17.1302328508  SOLV      4152            0.0000000000
     12575      4163  TIP3      H1            -20.6484949752      -12.7012993232       17.0426028508  SOLV      4152            0.0000000000
     12576      4163  TIP3      H2            -19.3965749752      -12.9665693232       16.2337628508  SOLV      4152            0.0000000000
     12577      4164  TIP3      OH2           -21.1299749752       -9.2133693232       11.2259628508  SOLV      4153            0.0000000000
     12578      4164  TIP3      H1            -21.9275349752       -9.6283493232       10.8974628508  SOLV      4153            0.0000000000
     12579      4164  TIP3      H2            -20.6848649752       -9.9039993232       11.7170128508  SOLV      4153            0.0000000000
     12580      4165  TIP3      OH2           -31.6723949752       -3.2853093232        3.7964128508  SOLV      4154            0.0000000000
     12581      4165  TIP3      H1            -31.0802449752       -2.5858293232        4.0726528508  SOLV      4154            0.0000000000
     12582      4165  TIP3      H2            -31.2130949752       -3.7183593232        3.0768728508  SOLV      4154            0.0000000000
     12583      4166  TIP3      OH2           -33.3564749752      -10.6210093232        2.9123528508  SOLV      4155            0.0000000000
     12584      4166  TIP3      H1            -33.4012149752       -9.6816993232        3.0910528508  SOLV      4155            0.0000000000
     12585      4166  TIP3      H2            -34.2441549752      -10.8565193232        2.6425628508  SOLV      4155            0.0000000000
     12586      4167  TIP3      OH2           -20.0435149752        0.0428806768       12.8483128508  SOLV      4156            0.0000000000
     12587      4167  TIP3      H1            -20.1990849752        0.7213206768       12.1912428508  SOLV      4156            0.0000000000
     12588      4167  TIP3      H2            -19.1108749752        0.1148106768       13.0513728508  SOLV      4156            0.0000000000
     12589      4168  TIP3      OH2           -32.5482749752      -15.8393493232       11.5854528508  SOLV      4157            0.0000000000
     12590      4168  TIP3      H1            -32.7772949752      -15.7800993232       10.6579528508  SOLV      4157            0.0000000000
     12591      4168  TIP3      H2            -32.9909349752      -16.6307993232       11.8918628508  SOLV      4157            0.0000000000
     12592      4169  TIP3      OH2           -33.6179449752       -1.8986393232        7.7460328508  SOLV      4158            0.0000000000
     12593      4169  TIP3      H1            -34.4500849752       -1.4263693232        7.7731728508  SOLV      4158            0.0000000000
     12594      4169  TIP3      H2            -33.0721149752       -1.3888793232        7.1473428508  SOLV      4158            0.0000000000
     12595      4170  TIP3      OH2           -34.3295749752        0.7137306768       19.0758328508  SOLV      4159            0.0000000000
     12596      4170  TIP3      H1            -33.7893549752        0.4971306768       19.8357528508  SOLV      4159            0.0000000000
     12597      4170  TIP3      H2            -34.8107749752       -0.0916693232       18.8860828508  SOLV      4159            0.0000000000
     12598      4171  TIP3      OH2           -29.7322349752       -0.3668293232       20.6962528508  SOLV      4160            0.0000000000
     12599      4171  TIP3      H1            -28.9645149752       -0.8257493232       21.0371728508  SOLV      4160            0.0000000000
     12600      4171  TIP3      H2            -29.7536149752       -0.5928493232       19.7663728508  SOLV      4160            0.0000000000
     12601      4172  TIP3      OH2           -25.6402749752       -0.8587693232        2.0714328508  SOLV      4161            0.0000000000
     12602      4172  TIP3      H1            -26.2841749752       -1.4899093232        2.3928028508  SOLV      4161            0.0000000000
     12603      4172  TIP3      H2            -24.8784449752       -1.3899693232        1.8397828508  SOLV      4161            0.0000000000
     12604      4173  TIP3      OH2           -23.1553649752       -1.9867193232       19.4254028508  SOLV      4162            0.0000000000
     12605      4173  TIP3      H1            -23.5064149752       -2.8434193232       19.6684428508  SOLV      4162            0.0000000000
     12606      4173  TIP3      H2            -22.4290449752       -1.8440493232       20.0323028508  SOLV      4162            0.0000000000
     12607      4174  TIP3      OH2           -21.0359849752       -1.0417793232        2.3052328508  SOLV      4163            0.0000000000
     12608      4174  TIP3      H1            -20.7529449752       -1.8362593232        2.7579228508  SOLV      4163            0.0000000000
     12609      4174  TIP3      H2            -20.2961949752       -0.8086793232        1.7443428508  SOLV      4163            0.0000000000
     12610      4175  TIP3      OH2           -30.0812549752       -5.1322893232        2.1627228508  SOLV      4164            0.0000000000
     12611      4175  TIP3      H1            -30.0168449752       -5.9263293232        2.6933628508  SOLV      4164            0.0000000000
     12612      4175  TIP3      H2            -29.4283349752       -5.2510093232        1.4729228508  SOLV      4164            0.0000000000
     12613      4176  TIP3      OH2           -27.7670149752       -5.5060493232       19.4629028508  SOLV      4165            0.0000000000
     12614      4176  TIP3      H1            -28.0956349752       -5.2352393232       18.6056428508  SOLV      4165            0.0000000000
     12615      4176  TIP3      H2            -27.6151949752       -6.4470693232       19.3754028508  SOLV      4165            0.0000000000
     12616      4177  TIP3      OH2           -24.7289149752       -4.0851193232        1.8985228508  SOLV      4166            0.0000000000
     12617      4177  TIP3      H1            -24.9975049752       -3.9049093232        2.7994128508  SOLV      4166            0.0000000000
     12618      4177  TIP3      H2            -24.9353549752       -5.0104993232        1.7671028508  SOLV      4166            0.0000000000
     12619      4178  TIP3      OH2           -22.0324949752       -5.5903193232       16.8461328508  SOLV      4167            0.0000000000
     12620      4178  TIP3      H1            -21.2870149752       -5.0019493232       16.7265328508  SOLV      4167            0.0000000000
     12621      4178  TIP3      H2            -22.7898149752       -5.0083493232       16.9094428508  SOLV      4167            0.0000000000
     12622      4179  TIP3      OH2           -28.9318749752       -7.1596693232        4.4685228508  SOLV      4168            0.0000000000
     12623      4179  TIP3      H1            -29.3916749752       -7.6438393232        5.1543728508  SOLV      4168            0.0000000000
     12624      4179  TIP3      H2            -28.6770049752       -7.8281293232        3.8325728508  SOLV      4168            0.0000000000
     12625      4180  TIP3      OH2           -29.6429449752       -9.2669593232       16.8244828508  SOLV      4169            0.0000000000
     12626      4180  TIP3      H1            -30.2613349752       -8.5922993232       17.1049528508  SOLV      4169            0.0000000000
     12627      4180  TIP3      H2            -29.2988249752       -8.9455693232       15.9911028508  SOLV      4169            0.0000000000
     12628      4181  TIP3      OH2           -27.8608349752       -8.9164893232        2.7308428508  SOLV      4170            0.0000000000
     12629      4181  TIP3      H1            -28.0413349752       -9.0713693232        1.8036728508  SOLV      4170            0.0000000000
     12630      4181  TIP3      H2            -26.9107849752       -8.8086193232        2.7756328508  SOLV      4170            0.0000000000
     12631      4182  TIP3      OH2           -24.6231249752       -6.7954293232       20.1019628508  SOLV      4171            0.0000000000
     12632      4182  TIP3      H1            -23.6700049752       -6.7115193232       20.0745628508  SOLV      4171            0.0000000000
     12633      4182  TIP3      H2            -24.7836649752       -7.5072493232       20.7214528508  SOLV      4171            0.0000000000
     12634      4183  TIP3      OH2           -18.4710049752       -6.5620693232        2.1766528508  SOLV      4172            0.0000000000
     12635      4183  TIP3      H1            -18.7445249752       -6.9865193232        1.3634828508  SOLV      4172            0.0000000000
     12636      4183  TIP3      H2            -18.4315949752       -5.6306193232        1.9596928508  SOLV      4172            0.0000000000
     12637      4184  TIP3      OH2           -29.3035749752      -11.9118793232       17.9067928508  SOLV      4173            0.0000000000
     12638      4184  TIP3      H1            -29.1534849752      -12.6407493232       17.3047628508  SOLV      4173            0.0000000000
     12639      4184  TIP3      H2            -29.3013349752      -11.1347093232       17.3480128508  SOLV      4173            0.0000000000
     12640      4185  TIP3      OH2           -28.8910049752      -13.5422993232       15.3995328508  SOLV      4174            0.0000000000
     12641      4185  TIP3      H1            -28.3552549752      -13.0906293232       14.7474628508  SOLV      4174            0.0000000000
     12642      4185  TIP3      H2            -29.7430449752      -13.6503193232       14.9769428508  SOLV      4174            0.0000000000
     12643      4186  TIP3      OH2           -27.3091649752       -8.1026793232       15.6390528508  SOLV      4175            0.0000000000
     12644      4186  TIP3      H1            -26.5586849752       -8.2589293232       15.0658328508  SOLV      4175            0.0000000000
     12645      4186  TIP3      H2            -27.6483349752       -7.2510193232       15.3636028508  SOLV      4175            0.0000000000
     12646      4187  TIP3      OH2           -22.8935449752      -10.2874993232       20.6675828508  SOLV      4176            0.0000000000
     12647      4187  TIP3      H1            -22.7014149752      -11.2185593232       20.5560328508  SOLV      4176            0.0000000000
     12648      4187  TIP3      H2            -22.0359149752       -9.8625493232       20.6571228508  SOLV      4176            0.0000000000
     12649      4188  TIP3      OH2           -21.5768249752       -7.4989793232       18.7448528508  SOLV      4177            0.0000000000
     12650      4188  TIP3      H1            -21.8583249752       -6.7895193232       18.1672328508  SOLV      4177            0.0000000000
     12651      4188  TIP3      H2            -20.6343949752       -7.5716793232       18.5939728508  SOLV      4177            0.0000000000
     12652      4189  TIP3      OH2           -28.0854549752      -16.0857293232       15.8308928508  SOLV      4178            0.0000000000
     12653      4189  TIP3      H1            -28.1834949752      -15.1394093232       15.7255128508  SOLV      4178            0.0000000000
     12654      4189  TIP3      H2            -28.8278349752      -16.4583493232       15.3552428508  SOLV      4178            0.0000000000
     12655      4190  TIP3      OH2           -24.1057449752      -12.6368393232       18.4700828508  SOLV      4179            0.0000000000
     12656      4190  TIP3      H1            -25.0532049752      -12.6048693232       18.6024128508  SOLV      4179            0.0000000000
     12657      4190  TIP3      H2            -23.7930749752      -13.2621293232       19.1239028508  SOLV      4179            0.0000000000
     12658      4191  TIP3      OH2           -22.4715949752      -14.0027293232       20.4752728508  SOLV      4180            0.0000000000
     12659      4191  TIP3      H1            -22.5684149752      -14.9549993232       20.4694628508  SOLV      4180            0.0000000000
     12660      4191  TIP3      H2            -22.7932849752      -13.7340493232       21.3358228508  SOLV      4180            0.0000000000
     12661      4192  TIP3      OH2           -27.9636649752        1.7738806768        3.7322028508  SOLV      4181            0.0000000000
     12662      4192  TIP3      H1            -27.0305949752        1.9317506768        3.8760428508  SOLV      4181            0.0000000000
     12663      4192  TIP3      H2            -28.2277849752        2.4491806768        3.1073528508  SOLV      4181            0.0000000000
     12664      4193  TIP3      OH2           -34.3951749752       -3.5897393232        3.2150128508  SOLV      4182            0.0000000000
     12665      4193  TIP3      H1            -33.4812549752       -3.5108493232        3.4884028508  SOLV      4182            0.0000000000
     12666      4193  TIP3      H2            -34.3878649752       -4.2767793232        2.5485728508  SOLV      4182            0.0000000000
     12667      4194  TIP3      OH2           -17.3277149752        0.6934506768       13.0775028508  SOLV      4183            0.0000000000
     12668      4194  TIP3      H1            -17.3490449752        0.8782906768       14.0164428508  SOLV      4183            0.0000000000
     12669      4194  TIP3      H2            -16.6370949752        1.2618506768       12.7366428508  SOLV      4183            0.0000000000
     12670      4195  TIP3      OH2           -17.7644249752        0.2605606768       15.9994128508  SOLV      4184            0.0000000000
     12671      4195  TIP3      H1            -18.2515549752       -0.4750293232       15.6281528508  SOLV      4184            0.0000000000
     12672      4195  TIP3      H2            -17.2151549752       -0.1330493232       16.6773528508  SOLV      4184            0.0000000000
     12673      4196  TIP3      OH2           -19.3136949752       -3.9496293232       20.6374428508  SOLV      4185            0.0000000000
     12674      4196  TIP3      H1            -20.1795849752       -4.0546593232       21.0316728508  SOLV      4185            0.0000000000
     12675      4196  TIP3      H2            -18.9371049752       -3.1912993232       21.0839128508  SOLV      4185            0.0000000000
     12676      4197  TIP3      OH2           -18.0127249752       -5.6932593232        6.1516928508  SOLV      4186            0.0000000000
     12677      4197  TIP3      H1            -17.1625849752       -5.2721693232        6.2788528508  SOLV      4186            0.0000000000
     12678      4197  TIP3      H2            -18.0072149752       -6.4332493232        6.7588328508  SOLV      4186            0.0000000000
     12679      4198  TIP3      OH2           -17.6181649752       -7.6395193232        7.9752628508  SOLV      4187            0.0000000000
     12680      4198  TIP3      H1            -18.3447049752       -8.1192593232        8.3730228508  SOLV      4187            0.0000000000
     12681      4198  TIP3      H2            -17.0368349752       -7.4340493232        8.7074228508  SOLV      4187            0.0000000000
     12682      4199  TIP3      OH2           -17.8590449752       -4.8547693232       12.9230228508  SOLV      4188            0.0000000000
     12683      4199  TIP3      H1            -17.0256249752       -5.2327693232       12.6423828508  SOLV      4188            0.0000000000
     12684      4199  TIP3      H2            -17.7470149752       -3.9116493232       12.8039328508  SOLV      4188            0.0000000000
     12685      4200  TIP3      OH2           -19.3728149752       -1.9770193232       15.2298628508  SOLV      4189            0.0000000000
     12686      4200  TIP3      H1            -20.0202849752       -1.6518693232       15.8553828508  SOLV      4189            0.0000000000
     12687      4200  TIP3      H2            -19.8904149752       -2.4172493232       14.5556928508  SOLV      4189            0.0000000000
     12688      4201  TIP3      OH2           -17.3498549752       -7.7386693232        4.3663928508  SOLV      4190            0.0000000000
     12689      4201  TIP3      H1            -17.8717449752       -7.3822593232        3.6474828508  SOLV      4190            0.0000000000
     12690      4201  TIP3      H2            -17.3829349752       -7.0638893232        5.0444828508  SOLV      4190            0.0000000000
     12691      4202  TIP3      OH2           -19.0009549752      -10.4991093232        2.9171028508  SOLV      4191            0.0000000000
     12692      4202  TIP3      H1            -18.9045149752       -9.8324093232        2.2370728508  SOLV      4191            0.0000000000
     12693      4202  TIP3      H2            -19.1409949752      -11.3144793232        2.4356528508  SOLV      4191            0.0000000000
     12694      4203  TIP3      OH2           -19.8314849752       -9.1188693232        8.5381328508  SOLV      4192            0.0000000000
     12695      4203  TIP3      H1            -19.9816049752      -10.0640093232        8.5179128508  SOLV      4192            0.0000000000
     12696      4203  TIP3      H2            -20.1850349752       -8.8377293232        9.3820428508  SOLV      4192            0.0000000000
     12697      4204  TIP3      OH2           -34.7962449752       -7.0406493232       12.5485128508  SOLV      4193            0.0000000000
     12698      4204  TIP3      H1            -34.6119549752       -7.1224793232       11.6128028508  SOLV      4193            0.0000000000
     12699      4204  TIP3      H2            -33.9469549752       -7.1649493232       12.9721528508  SOLV      4193            0.0000000000
     12700      4205  TIP3      OH2           -18.9751949752       -7.1485393232       18.1769628508  SOLV      4194            0.0000000000
     12701      4205  TIP3      H1            -18.3924649752       -7.8833093232       18.3686828508  SOLV      4194            0.0000000000
     12702      4205  TIP3      H2            -18.4112649752       -6.3765093232       18.2235428508  SOLV      4194            0.0000000000
     12703      4206  TIP3      OH2           -17.4784849752       -9.2459593232       18.8615028508  SOLV      4195            0.0000000000
     12704      4206  TIP3      H1            -18.3418149752       -9.6247493232       18.6959728508  SOLV      4195            0.0000000000
     12705      4206  TIP3      H2            -16.8741149752       -9.9844793232       18.7870828508  SOLV      4195            0.0000000000
     12706      4207  TIP3      OH2           -19.7535749752      -13.0911293232        2.0346528508  SOLV      4196            0.0000000000
     12707      4207  TIP3      H1            -19.1429949752      -13.4624493232        2.6714728508  SOLV      4196            0.0000000000
     12708      4207  TIP3      H2            -20.5904249752      -13.5124393232        2.2306528508  SOLV      4196            0.0000000000
     12709      4208  TIP3      OH2           -20.1210049752      -11.5362893232        7.0006428508  SOLV      4197            0.0000000000
     12710      4208  TIP3      H1            -19.8412949752      -12.4432493232        7.1248128508  SOLV      4197            0.0000000000
     12711      4208  TIP3      H2            -19.3618349752      -11.1021393232        6.6115628508  SOLV      4197            0.0000000000
     12712      4209  TIP3      OH2           -19.5091749752      -10.9545493232       12.4365328508  SOLV      4198            0.0000000000
     12713      4209  TIP3      H1            -18.5763749752      -10.7425593232       12.4021328508  SOLV      4198            0.0000000000
     12714      4209  TIP3      H2            -19.7444249752      -10.8533393232       13.3588328508  SOLV      4198            0.0000000000
     12715      4210  TIP3      OH2           -19.4799849752      -10.2180193232       15.2124728508  SOLV      4199            0.0000000000
     12716      4210  TIP3      H1            -20.3228549752       -9.9499793232       15.5784528508  SOLV      4199            0.0000000000
     12717      4210  TIP3      H2            -19.0375549752       -9.3958293232       15.0015828508  SOLV      4199            0.0000000000
     12718      4211  TIP3      OH2           -17.1968249752      -16.2379993232       20.5659728508  SOLV      4200            0.0000000000
     12719      4211  TIP3      H1            -16.8471249752      -16.8916493232       19.9604428508  SOLV      4200            0.0000000000
     12720      4211  TIP3      H2            -17.0498749752      -15.4005893232       20.1262328508  SOLV      4200            0.0000000000
     12721      4212  TIP3      OH2           -19.5075249752      -14.2733593232        7.0488428508  SOLV      4201            0.0000000000
     12722      4212  TIP3      H1            -19.3250249752      -14.7222093232        7.8743428508  SOLV      4201            0.0000000000
     12723      4212  TIP3      H2            -20.1072349752      -14.8579193232        6.5853028508  SOLV      4201            0.0000000000
     12724      4213  TIP3      OH2           -33.9775149752      -13.4579893232       11.5806828508  SOLV      4202            0.0000000000
     12725      4213  TIP3      H1            -33.5323549752      -14.2497393232       11.8826528508  SOLV      4202            0.0000000000
     12726      4213  TIP3      H2            -33.5112149752      -12.7414693232       12.0112428508  SOLV      4202            0.0000000000
     12727      4214  TIP3      OH2           -35.6734849752      -10.4586893232       12.6497028508  SOLV      4203            0.0000000000
     12728      4214  TIP3      H1            -35.1815049752      -10.6796393232       11.8589028508  SOLV      4203            0.0000000000
     12729      4214  TIP3      H2            -35.3113949752       -9.6183493232       12.9306528508  SOLV      4203            0.0000000000
     12730      4215  TIP3      OH2           -17.6771049752      -14.1285393232       18.9151028508  SOLV      4204            0.0000000000
     12731      4215  TIP3      H1            -18.5945349752      -13.8578293232       18.8794528508  SOLV      4204            0.0000000000
     12732      4215  TIP3      H2            -17.5541649752      -14.6636993232       18.1310728508  SOLV      4204            0.0000000000
     12733      4216  TIP3      OH2           -17.6409049752      -14.2055493232        3.5768728508  SOLV      4205            0.0000000000
     12734      4216  TIP3      H1            -17.2286449752      -14.9269793232        3.1016728508  SOLV      4205            0.0000000000
     12735      4216  TIP3      H2            -16.9592549752      -13.5360893232        3.6353028508  SOLV      4205            0.0000000000
     12736      4217  TIP3      OH2           -35.3598349752      -14.2007793232        6.7039428508  SOLV      4206            0.0000000000
     12737      4217  TIP3      H1            -36.2849949752      -13.9921193232        6.5744928508  SOLV      4206            0.0000000000
     12738      4217  TIP3      H2            -34.9058449752      -13.7166993232        6.0141728508  SOLV      4206            0.0000000000
     12739      4218  TIP3      OH2           -20.5891149752        0.7833906768        8.6496828508  SOLV      4207            0.0000000000
     12740      4218  TIP3      H1            -19.9368249752        0.4356006768        8.0415928508  SOLV      4207            0.0000000000
     12741      4218  TIP3      H2            -20.0787349752        1.2717106768        9.2956528508  SOLV      4207            0.0000000000
     12742      4219  TIP3      OH2           -30.2500749752       -1.3133493232       15.4511728508  SOLV      4208            0.0000000000
     12743      4219  TIP3      H1            -30.6749649752       -0.5034993232       15.1686328508  SOLV      4208            0.0000000000
     12744      4219  TIP3      H2            -29.3457949752       -1.2279393232       15.1491528508  SOLV      4208            0.0000000000
     12745      4220  TIP3      OH2           -25.9389349752        0.0856506768       18.4105428508  SOLV      4209            0.0000000000
     12746      4220  TIP3      H1            -25.7541849752       -0.2477393232       19.2885728508  SOLV      4209            0.0000000000
     12747      4220  TIP3      H2            -25.0924849752        0.3955106768       18.0884628508  SOLV      4209            0.0000000000
     12748      4221  TIP3      OH2           -23.5938949752        1.3715406768       17.6546828508  SOLV      4210            0.0000000000
     12749      4221  TIP3      H1            -22.9170049752        0.7387706768       17.4146028508  SOLV      4210            0.0000000000
     12750      4221  TIP3      H2            -23.2720149752        1.7725906768       18.4620128508  SOLV      4210            0.0000000000
     12751      4222  TIP3      OH2           -18.6765149752      -16.0389093232       16.7341828508  SOLV      4211            0.0000000000
     12752      4222  TIP3      H1            -19.4891649752      -15.7138793232       16.3466528508  SOLV      4211            0.0000000000
     12753      4222  TIP3      H2            -18.4436649752      -16.7990593232       16.2010928508  SOLV      4211            0.0000000000
     12754      4223  TIP3      OH2           -32.8484049752        1.9430406768       15.4987028508  SOLV      4212            0.0000000000
     12755      4223  TIP3      H1            -33.5687649752        2.3831406768       15.0474728508  SOLV      4212            0.0000000000
     12756      4223  TIP3      H2            -33.2140049752        1.6925106768       16.3471028508  SOLV      4212            0.0000000000
     12757      4224  TIP3      OH2           -30.3811449752        1.5434306768       14.5284228508  SOLV      4213            0.0000000000
     12758      4224  TIP3      H1            -31.2459249752        1.6152806768       14.9324328508  SOLV      4213            0.0000000000
     12759      4224  TIP3      H2            -30.4362449752        2.0901606768       13.7446728508  SOLV      4213            0.0000000000
     12760      4225  TIP3      OH2           -25.6705849752        1.4313206768       13.7040228508  SOLV      4214            0.0000000000
     12761      4225  TIP3      H1            -26.1271849752        1.9602906768       13.0498628508  SOLV      4214            0.0000000000
     12762      4225  TIP3      H2            -25.5077849752        2.0344606768       14.4292528508  SOLV      4214            0.0000000000
     12763      4226  TIP3      OH2           -23.3429549752        0.3092806768       14.6490528508  SOLV      4215            0.0000000000
     12764      4226  TIP3      H1            -24.2475849752        0.4743006768       14.3832628508  SOLV      4215            0.0000000000
     12765      4226  TIP3      H2            -22.9140949752        1.1625006768       14.5833928508  SOLV      4215            0.0000000000
     12766      4227  TIP3      OH2           -20.7387649752        1.8791906768       14.9438328508  SOLV      4216            0.0000000000
     12767      4227  TIP3      H1            -20.9205649752        2.7950806768       14.7333228508  SOLV      4216            0.0000000000
     12768      4227  TIP3      H2            -20.5619849752        1.4689006768       14.0972928508  SOLV      4216            0.0000000000
     12769      4228  TIP3      OH2           -33.4335949752        0.5662906768       12.4088828508  SOLV      4217            0.0000000000
     12770      4228  TIP3      H1            -33.4519949752        0.1408006768       13.2661128508  SOLV      4217            0.0000000000
     12771      4228  TIP3      H2            -32.6288049752        0.2477906768       12.0001028508  SOLV      4217            0.0000000000
     12772      4229  TIP3      OH2           -31.2922849752       -0.7238393232       11.0638728508  SOLV      4218            0.0000000000
     12773      4229  TIP3      H1            -31.5112149752       -1.6400993232       11.2334728508  SOLV      4218            0.0000000000
     12774      4229  TIP3      H2            -30.4680649752       -0.5837993232       11.5300128508  SOLV      4218            0.0000000000
     12775      4230  TIP3      OH2           -28.7550349752       -0.2539093232       11.9126728508  SOLV      4219            0.0000000000
     12776      4230  TIP3      H1            -28.5424649752       -1.1420093232       11.6257628508  SOLV      4219            0.0000000000
     12777      4230  TIP3      H2            -28.6905249752       -0.2881393232       12.8670728508  SOLV      4219            0.0000000000
     12778      4231  TIP3      OH2           -25.2466649752      -14.5898493232       11.0570028508  SOLV      4220            0.0000000000
     12779      4231  TIP3      H1            -25.9209849752      -15.2192893232       11.3125828508  SOLV      4220            0.0000000000
     12780      4231  TIP3      H2            -24.6827449752      -15.0739593232       10.4537928508  SOLV      4220            0.0000000000
     12781      4232  TIP3      OH2           -20.1039449752      -16.4824493232       11.1697128508  SOLV      4221            0.0000000000
     12782      4232  TIP3      H1            -19.5001849752      -15.9349093232       10.6678128508  SOLV      4221            0.0000000000
     12783      4232  TIP3      H2            -20.9737449752      -16.1634093232       10.9291228508  SOLV      4221            0.0000000000
     12784      4233  TIP3      OH2           -18.3769049752      -15.3435793232        9.5028028508  SOLV      4222            0.0000000000
     12785      4233  TIP3      H1            -17.7651549752      -15.8580093232        8.9761628508  SOLV      4222            0.0000000000
     12786      4233  TIP3      H2            -17.9945649752      -14.4663693232        9.5262428508  SOLV      4222            0.0000000000
     12787      4234  TIP3      OH2           -32.9199149752      -15.9558193232        8.8789928508  SOLV      4223            0.0000000000
     12788      4234  TIP3      H1            -33.6969349752      -16.1903293232        8.3715828508  SOLV      4223            0.0000000000
     12789      4234  TIP3      H2            -32.3895549752      -16.7526093232        8.8877928508  SOLV      4223            0.0000000000
     12790      4235  TIP3      OH2           -34.0835749752      -16.1580093232        4.6826028508  SOLV      4224            0.0000000000
     12791      4235  TIP3      H1            -33.6445049752      -15.5469593232        4.0909528508  SOLV      4224            0.0000000000
     12792      4235  TIP3      H2            -34.7173349752      -15.6195993232        5.1566028508  SOLV      4224            0.0000000000
     12793      4236  TIP3      OH2           -28.3406549752      -16.0291093232        8.6923028508  SOLV      4225            0.0000000000
     12794      4236  TIP3      H1            -27.4663149752      -15.6406793232        8.6627328508  SOLV      4225            0.0000000000
     12795      4236  TIP3      H2            -28.4765749752      -16.2443293232        9.6150228508  SOLV      4225            0.0000000000
     12796      4237  TIP3      OH2           -22.7838149752      -15.9991293232       10.3414728508  SOLV      4226            0.0000000000
     12797      4237  TIP3      H1            -22.7076549752      -15.9039693232        9.3920728508  SOLV      4226            0.0000000000
     12798      4237  TIP3      H2            -23.0588949752      -16.9068393232       10.4703828508  SOLV      4226            0.0000000000
     12799      4238  TIP3      OH2           -21.4305549752      -15.9733493232        6.0339728508  SOLV      4227            0.0000000000
     12800      4238  TIP3      H1            -22.1334449752      -15.3584293232        5.8241128508  SOLV      4227            0.0000000000
     12801      4238  TIP3      H2            -21.8754149752      -16.8106793232        6.1650628508  SOLV      4227            0.0000000000
     12802      4239  TIP3      OH2           -32.2226649752      -14.2418593232        3.1250128508  SOLV      4228            0.0000000000
     12803      4239  TIP3      H1            -31.7313249752      -14.8716193232        2.5975628508  SOLV      4228            0.0000000000
     12804      4239  TIP3      H2            -31.5990349752      -13.9459193232        3.7881328508  SOLV      4228            0.0000000000
     12805      4240  TIP3      OH2           -27.1966549752      -13.9487093232        5.5820628508  SOLV      4229            0.0000000000
     12806      4240  TIP3      H1            -27.0185249752      -14.5953893232        6.2649228508  SOLV      4229            0.0000000000
     12807      4240  TIP3      H2            -27.2500349752      -13.1149393232        6.0491728508  SOLV      4229            0.0000000000
     12808      4241  TIP3      OH2           -25.3182749752        0.9997006768        3.9777328508  SOLV      4230            0.0000000000
     12809      4241  TIP3      H1            -24.4522549752        1.3664406768        3.7995528508  SOLV      4230            0.0000000000
     12810      4241  TIP3      H2            -25.5649949752        0.5605006768        3.1638128508  SOLV      4230            0.0000000000
     12811      4242  TIP3      OH2           -18.6093149752        0.5627306768        6.6568428508  SOLV      4231            0.0000000000
     12812      4242  TIP3      H1            -18.8036049752       -0.1850593232        6.0918028508  SOLV      4231            0.0000000000
     12813      4242  TIP3      H2            -18.6483049752        1.3207406768        6.0736328508  SOLV      4231            0.0000000000
     12814      4243  TIP3      OH2           -32.3645049752        0.7102906768        2.6053228508  SOLV      4232            0.0000000000
     12815      4243  TIP3      H1            -32.6320449752        0.9965806768        3.4786328508  SOLV      4232            0.0000000000
     12816      4243  TIP3      H2            -31.5932449752        0.1642106768        2.7575728508  SOLV      4232            0.0000000000
     12817      4244  TIP3      OH2           -19.3916949752       -0.6860293232       18.8070228508  SOLV      4233            0.0000000000
     12818      4244  TIP3      H1            -20.1735049752       -0.8722293232       18.2870828508  SOLV      4233            0.0000000000
     12819      4244  TIP3      H2            -19.4637049752        0.2434006768       19.0242728508  SOLV      4233            0.0000000000
     12820      4245  TIP3      OH2            -4.9856549752       -6.7995893232        8.8377428508  SOLV      4234            0.0000000000
     12821      4245  TIP3      H1             -4.8965449752       -5.8557693232        8.7054528508  SOLV      4234            0.0000000000
     12822      4245  TIP3      H2             -5.6238949752       -7.0749493232        8.1796828508  SOLV      4234            0.0000000000
     12823      4246  TIP3      OH2            -6.0525249752       -7.5445193232       12.2565628508  SOLV      4235            0.0000000000
     12824      4246  TIP3      H1             -6.0907749752       -8.1908893232       12.9615228508  SOLV      4235            0.0000000000
     12825      4246  TIP3      H2             -6.3748749752       -8.0110793232       11.4854328508  SOLV      4235            0.0000000000
     12826      4247  TIP3      OH2           -13.6840249752       -7.9303093232       13.8495528508  SOLV      4236            0.0000000000
     12827      4247  TIP3      H1            -13.6428149752       -8.5559793232       14.5727928508  SOLV      4236            0.0000000000
     12828      4247  TIP3      H2            -12.9812549752       -7.3064493232       14.0315928508  SOLV      4236            0.0000000000
     12829      4248  TIP3      OH2            -2.3465049752       -4.6054793232       10.5580728508  SOLV      4237            0.0000000000
     12830      4248  TIP3      H1             -2.7872349752       -5.3258793232       11.0086328508  SOLV      4237            0.0000000000
     12831      4248  TIP3      H2             -2.3595349752       -3.8847593232       11.1878428508  SOLV      4237            0.0000000000
     12832      4249  TIP3      OH2           -12.7607149752       -3.4804193232       12.3844628508  SOLV      4238            0.0000000000
     12833      4249  TIP3      H1            -13.1301949752       -4.2823693232       12.0148928508  SOLV      4238            0.0000000000
     12834      4249  TIP3      H2            -11.8196049752       -3.6489293232       12.4308028508  SOLV      4238            0.0000000000
     12835      4250  TIP3      OH2           -16.1506649752       -9.8201593232        7.7773428508  SOLV      4239            0.0000000000
     12836      4250  TIP3      H1            -16.5983249752       -8.9742893232        7.7589928508  SOLV      4239            0.0000000000
     12837      4250  TIP3      H2            -16.7115449752      -10.3997393232        7.2618528508  SOLV      4239            0.0000000000
     12838      4251  TIP3      OH2           -15.4400549752       -7.6581993232        9.9031428508  SOLV      4240            0.0000000000
     12839      4251  TIP3      H1            -15.2267049752       -8.4280393232       10.4304428508  SOLV      4240            0.0000000000
     12840      4251  TIP3      H2            -14.7022949752       -7.5685293232        9.2999028508  SOLV      4240            0.0000000000
     12841      4252  TIP3      OH2            -5.2349549752        0.4986906768       10.7701128508  SOLV      4241            0.0000000000
     12842      4252  TIP3      H1             -4.6153149752       -0.1778393232       10.4970328508  SOLV      4241            0.0000000000
     12843      4252  TIP3      H2             -5.4432149752        0.2807706768       11.6786028508  SOLV      4241            0.0000000000
     12844      4253  TIP3      OH2            -7.6630849752       -5.1123793232       12.6626628508  SOLV      4242            0.0000000000
     12845      4253  TIP3      H1             -7.3592949752       -5.7982393232       12.0680728508  SOLV      4242            0.0000000000
     12846      4253  TIP3      H2             -6.9416849752       -4.9935093232       13.2804628508  SOLV      4242            0.0000000000
     12847      4254  TIP3      OH2             0.9998950248      -13.5108493232       13.5232828508  SOLV      4243            0.0000000000
     12848      4254  TIP3      H1              1.0491150248      -12.9007293232       14.2591928508  SOLV      4243            0.0000000000
     12849      4254  TIP3      H2              1.4254050248      -13.0497593232       12.8003928508  SOLV      4243            0.0000000000
     12850      4255  TIP3      OH2            -4.5223849752      -10.7181393232       12.9901428508  SOLV      4244            0.0000000000
     12851      4255  TIP3      H1             -4.3797949752      -11.6644393232       13.0103028508  SOLV      4244            0.0000000000
     12852      4255  TIP3      H2             -4.6284849752      -10.5111593232       12.0616328508  SOLV      4244            0.0000000000
     12853      4256  TIP3      OH2           -11.3675549752      -12.6164993232       10.2626228508  SOLV      4245            0.0000000000
     12854      4256  TIP3      H1            -11.3244449752      -11.7566493232        9.8442528508  SOLV      4245            0.0000000000
     12855      4256  TIP3      H2            -11.8251449752      -13.1690293232        9.6289428508  SOLV      4245            0.0000000000
     12856      4257  TIP3      OH2            -3.6452849752      -12.4859393232        8.6634528508  SOLV      4246            0.0000000000
     12857      4257  TIP3      H1             -2.9988549752      -12.8146193232        9.2882128508  SOLV      4246            0.0000000000
     12858      4257  TIP3      H2             -3.1353449752      -11.9680393232        8.0405928508  SOLV      4246            0.0000000000
     12859      4258  TIP3      OH2           -14.7474049752      -10.2199193232       11.0247628508  SOLV      4247            0.0000000000
     12860      4258  TIP3      H1            -14.0937449752      -10.7697493232       11.4567728508  SOLV      4247            0.0000000000
     12861      4258  TIP3      H2            -14.7234749752      -10.4940193232       10.1079628508  SOLV      4247            0.0000000000
     12862      4259  TIP3      OH2            -9.5909549752       -8.6697893232       10.2399128508  SOLV      4248            0.0000000000
     12863      4259  TIP3      H1             -8.9748549752       -9.1962493232       10.7493128508  SOLV      4248            0.0000000000
     12864      4259  TIP3      H2            -10.1770749752       -9.3099193232        9.8362728508  SOLV      4248            0.0000000000
     12865      4260  TIP3      OH2             1.3913550248      -12.0329293232       15.7592628508  SOLV      4249            0.0000000000
     12866      4260  TIP3      H1              0.7028150248      -11.3748593232       15.6639228508  SOLV      4249            0.0000000000
     12867      4260  TIP3      H2              1.4068150248      -12.2301393232       16.6958028508  SOLV      4249            0.0000000000
     12868      4261  TIP3      OH2           -12.5573649752      -13.6986593232       14.3367028508  SOLV      4250            0.0000000000
     12869      4261  TIP3      H1            -12.7761949752      -13.1685993232       13.5703028508  SOLV      4250            0.0000000000
     12870      4261  TIP3      H2            -13.2252749752      -13.4721093232       14.9838428508  SOLV      4250            0.0000000000
     12871      4262  TIP3      OH2            -5.1883849752       -4.1985493232        7.8806128508  SOLV      4251            0.0000000000
     12872      4262  TIP3      H1             -5.4838749752       -4.5213193232        7.0293028508  SOLV      4251            0.0000000000
     12873      4262  TIP3      H2             -5.5126049752       -3.2988793232        7.9218728508  SOLV      4251            0.0000000000
     12874      4263  TIP3      OH2            -9.9882249752       -6.0230893232       14.6240728508  SOLV      4252            0.0000000000
     12875      4263  TIP3      H1            -10.7283149752       -5.4249393232       14.7275928508  SOLV      4252            0.0000000000
     12876      4263  TIP3      H2             -9.2742749752       -5.4691293232       14.3084328508  SOLV      4252            0.0000000000
     12877      4264  TIP3      OH2            -1.8814449752      -13.1950093232       10.6440428508  SOLV      4253            0.0000000000
     12878      4264  TIP3      H1             -2.0966449752      -13.9606693232       11.1766428508  SOLV      4253            0.0000000000
     12879      4264  TIP3      H2             -1.2257049752      -12.7225493232       11.1568928508  SOLV      4253            0.0000000000
     12880      4265  TIP3      OH2           -12.9636349752      -11.8064793232       12.2889228508  SOLV      4254            0.0000000000
     12881      4265  TIP3      H1            -12.3500049752      -11.1737193232       12.6621628508  SOLV      4254            0.0000000000
     12882      4265  TIP3      H2            -12.4515649752      -12.2789793232       11.6326128508  SOLV      4254            0.0000000000
     12883      4266  TIP3      OH2           -11.5807949752       -4.0587893232       15.4112228508  SOLV      4255            0.0000000000
     12884      4266  TIP3      H1            -11.5860349752       -3.1794393232       15.0331528508  SOLV      4255            0.0000000000
     12885      4266  TIP3      H2            -12.4343849752       -4.1423793232       15.8362128508  SOLV      4255            0.0000000000
     12886      4267  TIP3      OH2           -15.4597049752       -4.3879993232        6.1931528508  SOLV      4256            0.0000000000
     12887      4267  TIP3      H1            -15.7316149752       -4.1588993232        5.3044428508  SOLV      4256            0.0000000000
     12888      4267  TIP3      H2            -15.4141349752       -3.5501193232        6.6536828508  SOLV      4256            0.0000000000
     12889      4268  TIP3      OH2            -1.8347349752       -2.7664093232       12.9060028508  SOLV      4257            0.0000000000
     12890      4268  TIP3      H1             -2.7763649752       -2.7080193232       13.0676928508  SOLV      4257            0.0000000000
     12891      4268  TIP3      H2             -1.5581249752       -1.8603593232       12.7689728508  SOLV      4257            0.0000000000
     12892      4269  TIP3      OH2            -1.5340349752      -14.4798793232       14.3233928508  SOLV      4258            0.0000000000
     12893      4269  TIP3      H1             -2.2701149752      -13.8691693232       14.2855228508  SOLV      4258            0.0000000000
     12894      4269  TIP3      H2             -0.8506349752      -14.0649793232       13.7970328508  SOLV      4258            0.0000000000
     12895      4270  TIP3      OH2            -8.5308949752      -16.3931493232       11.7891928508  SOLV      4259            0.0000000000
     12896      4270  TIP3      H1             -8.6484749752      -17.3415493232       11.7350228508  SOLV      4259            0.0000000000
     12897      4270  TIP3      H2             -9.3858849752      -16.0605393232       12.0623028508  SOLV      4259            0.0000000000
     12898      4271  TIP3      OH2            -3.5826149752       -0.9850593232        9.5311628508  SOLV      4260            0.0000000000
     12899      4271  TIP3      H1             -3.1573849752       -1.6922693232        9.0461228508  SOLV      4260            0.0000000000
     12900      4271  TIP3      H2             -3.2656149752       -0.1837893232        9.1143828508  SOLV      4260            0.0000000000
     12901      4272  TIP3      OH2            -2.4229649752       -3.0842093232        8.0398228508  SOLV      4261            0.0000000000
     12902      4272  TIP3      H1             -2.6804849752       -3.7741993232        7.4284128508  SOLV      4261            0.0000000000
     12903      4272  TIP3      H2             -2.3518849752       -3.5270893232        8.8854128508  SOLV      4261            0.0000000000
     12904      4273  TIP3      OH2            -0.7369449752       -4.5175393232       16.5171728508  SOLV      4262            0.0000000000
     12905      4273  TIP3      H1             -0.5973149752       -5.1092893232       15.7778728508  SOLV      4262            0.0000000000
     12906      4273  TIP3      H2             -0.5696649752       -3.6449493232       16.1610528508  SOLV      4262            0.0000000000
     12907      4274  TIP3      OH2            -6.2644049752       -7.5555893232        6.2897728508  SOLV      4263            0.0000000000
     12908      4274  TIP3      H1             -6.9758549752       -7.0206193232        5.9378228508  SOLV      4263            0.0000000000
     12909      4274  TIP3      H2             -5.5734449752       -7.5003793232        5.6296628508  SOLV      4263            0.0000000000
     12910      4275  TIP3      OH2            -6.2104849752       -9.0981593232        3.3282728508  SOLV      4264            0.0000000000
     12911      4275  TIP3      H1             -5.5094949752       -9.0754693232        3.9796728508  SOLV      4264            0.0000000000
     12912      4275  TIP3      H2             -5.9081949752       -9.7261893232        2.6722028508  SOLV      4264            0.0000000000
     12913      4276  TIP3      OH2             1.1049850248       -8.1777393232       14.5832128508  SOLV      4265            0.0000000000
     12914      4276  TIP3      H1              0.4523950248       -7.4831793232       14.6723028508  SOLV      4265            0.0000000000
     12915      4276  TIP3      H2              1.5700150248       -7.9676493232       13.7733728508  SOLV      4265            0.0000000000
     12916      4277  TIP3      OH2            -2.8586349752       -7.3462593232        7.2413628508  SOLV      4266            0.0000000000
     12917      4277  TIP3      H1             -3.5905349752       -7.1178893232        7.8144228508  SOLV      4266            0.0000000000
     12918      4277  TIP3      H2             -2.4114149752       -8.0599893232        7.6961128508  SOLV      4266            0.0000000000
     12919      4278  TIP3      OH2            -2.9612849752       -9.1719993232       16.3090628508  SOLV      4267            0.0000000000
     12920      4278  TIP3      H1             -2.8813749752       -8.4085593232       16.8809128508  SOLV      4267            0.0000000000
     12921      4278  TIP3      H2             -3.5625149752       -8.8927593232       15.6185728508  SOLV      4267            0.0000000000
     12922      4279  TIP3      OH2           -11.2132649752       -6.7156393232        9.1238628508  SOLV      4268            0.0000000000
     12923      4279  TIP3      H1            -11.5437449752       -7.0862993232        8.3055628508  SOLV      4268            0.0000000000
     12924      4279  TIP3      H2            -10.6248549752       -7.3862393232        9.4706928508  SOLV      4268            0.0000000000
     12925      4280  TIP3      OH2            -9.8465149752       -3.2875793232       11.8050828508  SOLV      4269            0.0000000000
     12926      4280  TIP3      H1             -9.9413849752       -3.8662693232       11.0485428508  SOLV      4269            0.0000000000
     12927      4280  TIP3      H2             -9.1171549752       -3.6590093232       12.3013628508  SOLV      4269            0.0000000000
     12928      4281  TIP3      OH2           -10.8467149752       -7.9470793232       12.7573628508  SOLV      4270            0.0000000000
     12929      4281  TIP3      H1            -10.2814649752       -7.8256593232       11.9944828508  SOLV      4270            0.0000000000
     12930      4281  TIP3      H2            -10.5278249752       -7.3095793232       13.3962128508  SOLV      4270            0.0000000000
     12931      4282  TIP3      OH2            -4.5374949752       -2.4438893232       13.4914128508  SOLV      4271            0.0000000000
     12932      4282  TIP3      H1             -4.7778349752       -1.7815793232       14.1393328508  SOLV      4271            0.0000000000
     12933      4282  TIP3      H2             -4.7356749752       -3.2783693232       13.9163728508  SOLV      4271            0.0000000000
     12934      4283  TIP3      OH2            -9.9666449752       -3.5478093232       17.4745528508  SOLV      4272            0.0000000000
     12935      4283  TIP3      H1            -10.2778949752       -2.7654893232       17.9298728508  SOLV      4272            0.0000000000
     12936      4283  TIP3      H2            -10.6166249752       -3.7008993232       16.7887528508  SOLV      4272            0.0000000000
     12937      4284  TIP3      OH2            -3.9876849752       -8.1839693232        4.9264828508  SOLV      4273            0.0000000000
     12938      4284  TIP3      H1             -3.4081349752       -8.0339393232        5.6733728508  SOLV      4273            0.0000000000
     12939      4284  TIP3      H2             -3.5736849752       -7.7132293232        4.2031228508  SOLV      4273            0.0000000000
     12940      4285  TIP3      OH2           -13.0466549752       -7.3496993232       16.7031228508  SOLV      4274            0.0000000000
     12941      4285  TIP3      H1            -12.9763349752       -6.6990193232       17.4016228508  SOLV      4274            0.0000000000
     12942      4285  TIP3      H2            -13.9374349752       -7.2469493232       16.3682128508  SOLV      4274            0.0000000000
     12943      4286  TIP3      OH2            -6.2611949752       -1.4471193232        8.3617928508  SOLV      4275            0.0000000000
     12944      4286  TIP3      H1             -5.7874349752       -1.1514893232        9.1392128508  SOLV      4275            0.0000000000
     12945      4286  TIP3      H2             -6.8242649752       -0.7089593232        8.1287528508  SOLV      4275            0.0000000000
     12946      4287  TIP3      OH2           -11.7270549752       -1.4763093232       18.2379328508  SOLV      4276            0.0000000000
     12947      4287  TIP3      H1            -11.7195249752       -1.6123393232       17.2904828508  SOLV      4276            0.0000000000
     12948      4287  TIP3      H2            -12.6430149752       -1.5934993232       18.4899328508  SOLV      4276            0.0000000000
     12949      4288  TIP3      OH2            -0.2888449752      -16.4339293232        4.7394528508  SOLV      4277            0.0000000000
     12950      4288  TIP3      H1             -1.1887749752      -16.2950293232        5.0345128508  SOLV      4277            0.0000000000
     12951      4288  TIP3      H2             -0.0370049752      -15.6024693232        4.3376228508  SOLV      4277            0.0000000000
     12952      4289  TIP3      OH2           -12.2229949752       -7.6462093232        6.7131428508  SOLV      4278            0.0000000000
     12953      4289  TIP3      H1            -12.5148649752       -6.8780393232        6.2222728508  SOLV      4278            0.0000000000
     12954      4289  TIP3      H2            -12.8974749752       -8.3055893232        6.5502828508  SOLV      4278            0.0000000000
     12955      4290  TIP3      OH2           -16.1299849752       -5.2832893232       15.5281228508  SOLV      4279            0.0000000000
     12956      4290  TIP3      H1            -16.6311449752       -5.3113493232       14.7130928508  SOLV      4279            0.0000000000
     12957      4290  TIP3      H2            -16.1246149752       -6.1889693232       15.8378528508  SOLV      4279            0.0000000000
     12958      4291  TIP3      OH2           -16.3797149752       -2.5029093232       12.4121428508  SOLV      4280            0.0000000000
     12959      4291  TIP3      H1            -15.4336549752       -2.6472093232       12.3930928508  SOLV      4280            0.0000000000
     12960      4291  TIP3      H2            -16.4920849752       -1.7186293232       12.9492628508  SOLV      4280            0.0000000000
     12961      4292  TIP3      OH2             1.8181350248       -1.8369393232       18.0945128508  SOLV      4281            0.0000000000
     12962      4292  TIP3      H1              1.7688150248       -2.7921293232       18.0572728508  SOLV      4281            0.0000000000
     12963      4292  TIP3      H2              0.9913650248       -1.5694093232       18.4958928508  SOLV      4281            0.0000000000
     12964      4293  TIP3      OH2            -7.2034649752       -2.2630193232       16.9706528508  SOLV      4282            0.0000000000
     12965      4293  TIP3      H1             -7.1160049752       -1.4365593232       17.4455628508  SOLV      4282            0.0000000000
     12966      4293  TIP3      H2             -8.0669549752       -2.5926393232       17.2195828508  SOLV      4282            0.0000000000
     12967      4294  TIP3      OH2            -6.7888849752        1.5093506768        6.7767128508  SOLV      4283            0.0000000000
     12968      4294  TIP3      H1             -6.8642849752        1.3880706768        5.8302328508  SOLV      4283            0.0000000000
     12969      4294  TIP3      H2             -6.7560149752        2.4586206768        6.8951728508  SOLV      4283            0.0000000000
     12970      4295  TIP3      OH2            -3.6872849752        0.6633706768        3.7789528508  SOLV      4284            0.0000000000
     12971      4295  TIP3      H1             -3.3124449752       -0.0810193232        3.3082128508  SOLV      4284            0.0000000000
     12972      4295  TIP3      H2             -3.6829149752        0.3934306768        4.6972828508  SOLV      4284            0.0000000000
     12973      4296  TIP3      OH2            -4.0184749752        0.5890806768        6.5281728508  SOLV      4285            0.0000000000
     12974      4296  TIP3      H1             -4.9534949752        0.6892706768        6.7068728508  SOLV      4285            0.0000000000
     12975      4296  TIP3      H2             -3.7382849752       -0.1203193232        7.1064928508  SOLV      4285            0.0000000000
     12976      4297  TIP3      OH2            -1.0298849752      -10.3436893232       18.5747328508  SOLV      4286            0.0000000000
     12977      4297  TIP3      H1             -1.4372049752       -9.8631293232       17.8540628508  SOLV      4286            0.0000000000
     12978      4297  TIP3      H2             -0.9893149752      -11.2490893232       18.2668128508  SOLV      4286            0.0000000000
     12979      4298  TIP3      OH2           -13.8809349752       -3.9597493232       16.5714028508  SOLV      4287            0.0000000000
     12980      4298  TIP3      H1            -13.6648049752       -4.3211893232       17.4309828508  SOLV      4287            0.0000000000
     12981      4298  TIP3      H2            -14.7364649752       -4.3343693232       16.3617528508  SOLV      4287            0.0000000000
     12982      4299  TIP3      OH2           -11.2621349752      -15.4896993232       12.5668228508  SOLV      4288            0.0000000000
     12983      4299  TIP3      H1            -12.1237649752      -15.5768793232       12.1591128508  SOLV      4288            0.0000000000
     12984      4299  TIP3      H2            -11.2845649752      -14.6336893232       12.9945828508  SOLV      4288            0.0000000000
     12985      4300  TIP3      OH2            -6.5993549752      -15.7676593232       15.9415228508  SOLV      4289            0.0000000000
     12986      4300  TIP3      H1             -6.1790449752      -16.1829493232       16.6945828508  SOLV      4289            0.0000000000
     12987      4300  TIP3      H2             -7.5323949752      -15.9463293232       16.0587228508  SOLV      4289            0.0000000000
     12988      4301  TIP3      OH2            -3.2728649752      -12.0121393232       16.7949728508  SOLV      4290            0.0000000000
     12989      4301  TIP3      H1             -3.7869149752      -12.1379193232       17.5925728508  SOLV      4290            0.0000000000
     12990      4301  TIP3      H2             -3.4283949752      -11.0998293232       16.5505928508  SOLV      4290            0.0000000000
     12991      4302  TIP3      OH2            -2.5103749752       -7.1511393232        2.5562728508  SOLV      4291            0.0000000000
     12992      4302  TIP3      H1             -2.4682949752       -7.3737493232        1.6262728508  SOLV      4291            0.0000000000
     12993      4302  TIP3      H2             -1.6611649752       -6.7524293232        2.7462628508  SOLV      4291            0.0000000000
     12994      4303  TIP3      OH2            -6.9376249752      -13.2753193232        3.2266028508  SOLV      4292            0.0000000000
     12995      4303  TIP3      H1             -7.1911449752      -13.2561593232        4.1494128508  SOLV      4292            0.0000000000
     12996      4303  TIP3      H2             -7.1944149752      -14.1467793232        2.9252228508  SOLV      4292            0.0000000000
     12997      4304  TIP3      OH2           -11.1711249752      -10.5242493232       13.6618428508  SOLV      4293            0.0000000000
     12998      4304  TIP3      H1            -11.8129149752      -10.5645193232       14.3708528508  SOLV      4293            0.0000000000
     12999      4304  TIP3      H2            -11.1339249752       -9.5977793232       13.4241428508  SOLV      4293            0.0000000000
     13000      4305  TIP3      OH2           -11.1742149752      -10.3032393232        8.5738428508  SOLV      4294            0.0000000000
     13001      4305  TIP3      H1            -12.0669249752      -10.6436293232        8.5152228508  SOLV      4294            0.0000000000
     13002      4305  TIP3      H2            -10.7235549752      -10.6801493232        7.8181628508  SOLV      4294            0.0000000000
     13003      4306  TIP3      OH2            -5.6386649752       -9.8872093232        7.3909228508  SOLV      4295            0.0000000000
     13004      4306  TIP3      H1             -6.0476349752       -9.0723493232        7.0994028508  SOLV      4295            0.0000000000
     13005      4306  TIP3      H2             -4.9180449752      -10.0271993232        6.7766328508  SOLV      4295            0.0000000000
     13006      4307  TIP3      OH2            -6.5365049752       -9.7115693232       18.8789928508  SOLV      4296            0.0000000000
     13007      4307  TIP3      H1             -7.0991249752      -10.4164093232       19.1997728508  SOLV      4296            0.0000000000
     13008      4307  TIP3      H2             -5.7101649752       -9.8323793232       19.3467528508  SOLV      4296            0.0000000000
     13009      4308  TIP3      OH2            -4.6338949752      -10.4411693232       10.2048928508  SOLV      4297            0.0000000000
     13010      4308  TIP3      H1             -4.8294449752       -9.8354893232        9.4899528508  SOLV      4297            0.0000000000
     13011      4308  TIP3      H2             -4.4526349752      -11.2746493232        9.7705228508  SOLV      4297            0.0000000000
     13012      4309  TIP3      OH2           -13.4210749752      -10.2038993232       15.5290428508  SOLV      4298            0.0000000000
     13013      4309  TIP3      H1            -13.4591349752       -9.8037393232       16.3977528508  SOLV      4298            0.0000000000
     13014      4309  TIP3      H2            -13.9119649752      -11.0206593232       15.6193328508  SOLV      4298            0.0000000000
     13015      4310  TIP3      OH2           -10.0553349752      -12.8296693232        2.3276428508  SOLV      4299            0.0000000000
     13016      4310  TIP3      H1            -10.4862649752      -13.2746593232        3.0573828508  SOLV      4299            0.0000000000
     13017      4310  TIP3      H2            -10.7734649752      -12.4580393232        1.8153928508  SOLV      4299            0.0000000000
     13018      4311  TIP3      OH2           -16.8129949752      -13.0877193232        9.3795128508  SOLV      4300            0.0000000000
     13019      4311  TIP3      H1            -16.1822249752      -13.1165093232       10.0989028508  SOLV      4300            0.0000000000
     13020      4311  TIP3      H2            -16.3635649752      -13.5128493232        8.6491028508  SOLV      4300            0.0000000000
     13021      4312  TIP3      OH2           -15.5387849752      -12.3415193232        4.8035528508  SOLV      4301            0.0000000000
     13022      4312  TIP3      H1            -15.0646149752      -11.7505293232        4.2186428508  SOLV      4301            0.0000000000
     13023      4312  TIP3      H2            -16.2561449752      -11.8112293232        5.1505628508  SOLV      4301            0.0000000000
     13024      4313  TIP3      OH2            -5.3699749752       -8.8030393232       14.8761328508  SOLV      4302            0.0000000000
     13025      4313  TIP3      H1             -5.0464949752       -9.4340693232       14.2331828508  SOLV      4302            0.0000000000
     13026      4313  TIP3      H2             -5.8100449752       -9.3378193232       15.5368728508  SOLV      4302            0.0000000000
     13027      4314  TIP3      OH2            -8.5926849752      -12.8754893232        9.6602528508  SOLV      4303            0.0000000000
     13028      4314  TIP3      H1             -9.5035749752      -12.8188093232        9.9488528508  SOLV      4303            0.0000000000
     13029      4314  TIP3      H2             -8.0873949752      -12.9359393232       10.4709728508  SOLV      4303            0.0000000000
     13030      4315  TIP3      OH2           -13.7643449752      -11.2468593232        8.4870128508  SOLV      4304            0.0000000000
     13031      4315  TIP3      H1            -14.6535449752      -11.1473093232        8.1469728508  SOLV      4304            0.0000000000
     13032      4315  TIP3      H2            -13.4678549752      -12.0885593232        8.1408028508  SOLV      4304            0.0000000000
     13033      4316  TIP3      OH2           -10.1111649752      -11.2465993232        6.1434728508  SOLV      4305            0.0000000000
     13034      4316  TIP3      H1             -9.1796149752      -11.1175993232        6.3217828508  SOLV      4305            0.0000000000
     13035      4316  TIP3      H2            -10.3261349752      -10.5771693232        5.4939428508  SOLV      4305            0.0000000000
     13036      4317  TIP3      OH2            -4.1874949752      -13.6408593232       12.9244328508  SOLV      4306            0.0000000000
     13037      4317  TIP3      H1             -4.8643349752      -13.5095493232       13.5884028508  SOLV      4306            0.0000000000
     13038      4317  TIP3      H2             -4.6730049752      -13.7959093232       12.1142028508  SOLV      4306            0.0000000000
     13039      4318  TIP3      OH2           -11.4371449752      -10.0523793232        3.7100828508  SOLV      4307            0.0000000000
     13040      4318  TIP3      H1            -11.9796349752      -10.4319993232        3.0188428508  SOLV      4307            0.0000000000
     13041      4318  TIP3      H2            -10.6036549752       -9.8579093232        3.2814928508  SOLV      4307            0.0000000000
     13042      4319  TIP3      OH2            -0.8999849752        2.0306806768       19.2011928508  SOLV      4308            0.0000000000
     13043      4319  TIP3      H1             -0.7001149752        2.4548706768       18.3667228508  SOLV      4308            0.0000000000
     13044      4319  TIP3      H2             -0.2446149752        2.3745006768       19.8082328508  SOLV      4308            0.0000000000
     13045      4320  TIP3      OH2           -13.3020049752       -5.4951893232       18.8092428508  SOLV      4309            0.0000000000
     13046      4320  TIP3      H1            -12.5697649752       -5.2405993232       19.3706928508  SOLV      4309            0.0000000000
     13047      4320  TIP3      H2            -14.0821349752       -5.2906493232       19.3247828508  SOLV      4309            0.0000000000
     13048      4321  TIP3      OH2            -7.2727149752      -10.0881893232       11.5472128508  SOLV      4310            0.0000000000
     13049      4321  TIP3      H1             -6.7083749752      -10.6345293232       11.0001728508  SOLV      4310            0.0000000000
     13050      4321  TIP3      H2             -7.4203749752      -10.6099993232       12.3359728508  SOLV      4310            0.0000000000
     13051      4322  TIP3      OH2           -12.2707449752      -13.9515793232        7.9656928508  SOLV      4311            0.0000000000
     13052      4322  TIP3      H1            -12.5877949752      -14.8540493232        7.9302328508  SOLV      4311            0.0000000000
     13053      4322  TIP3      H2            -11.4893349752      -13.9498393232        7.4128528508  SOLV      4311            0.0000000000
     13054      4323  TIP3      OH2            -8.6461249752      -11.6995793232       13.9612528508  SOLV      4312            0.0000000000
     13055      4323  TIP3      H1             -9.4815949752      -11.2456293232       14.0714928508  SOLV      4312            0.0000000000
     13056      4323  TIP3      H2             -8.1220649752      -11.4237293232       14.7132428508  SOLV      4312            0.0000000000
     13057      4324  TIP3      OH2            -8.1018649752       -5.4868093232        5.6458928508  SOLV      4313            0.0000000000
     13058      4324  TIP3      H1             -8.8467649752       -5.9942793232        5.3236828508  SOLV      4313            0.0000000000
     13059      4324  TIP3      H2             -8.2361449752       -5.4380093232        6.5923728508  SOLV      4313            0.0000000000
     13060      4325  TIP3      OH2            -0.9519749752       -6.3539893232       14.4326528508  SOLV      4314            0.0000000000
     13061      4325  TIP3      H1             -0.3100949752       -5.8973593232       13.8888728508  SOLV      4314            0.0000000000
     13062      4325  TIP3      H2             -1.7822849752       -6.2407493232       13.9700628508  SOLV      4314            0.0000000000
     13063      4326  TIP3      OH2            -4.2041849752      -12.6728193232        3.8451528508  SOLV      4315            0.0000000000
     13064      4326  TIP3      H1             -5.1427649752      -12.5612593232        3.6940328508  SOLV      4315            0.0000000000
     13065      4326  TIP3      H2             -3.9069749752      -11.8161293232        4.1517228508  SOLV      4315            0.0000000000
     13066      4327  TIP3      OH2            -6.5826549752       -5.3024793232       16.8828028508  SOLV      4316            0.0000000000
     13067      4327  TIP3      H1             -6.9280449752       -5.6842393232       17.6897628508  SOLV      4316            0.0000000000
     13068      4327  TIP3      H2             -6.7826449752       -4.3691193232       16.9540928508  SOLV      4316            0.0000000000
     13069      4328  TIP3      OH2            -3.4858349752      -10.8055493232        5.5058928508  SOLV      4317            0.0000000000
     13070      4328  TIP3      H1             -2.5939349752      -10.9430493232        5.8250128508  SOLV      4317            0.0000000000
     13071      4328  TIP3      H2             -3.4294749752      -10.0149393232        4.9692428508  SOLV      4317            0.0000000000
     13072      4329  TIP3      OH2           -12.9770349752       -6.1918093232       11.4156828508  SOLV      4318            0.0000000000
     13073      4329  TIP3      H1            -12.2323149752       -6.1942393232       10.8143328508  SOLV      4318            0.0000000000
     13074      4329  TIP3      H2            -12.8993749752       -7.0154293232       11.8971928508  SOLV      4318            0.0000000000
     13075      4330  TIP3      OH2            -5.9764549752       -4.0283793232        4.6713528508  SOLV      4319            0.0000000000
     13076      4330  TIP3      H1             -6.2716149752       -3.2015893232        5.0528328508  SOLV      4319            0.0000000000
     13077      4330  TIP3      H2             -6.6794549752       -4.6476893232        4.8674928508  SOLV      4319            0.0000000000
     13078      4331  TIP3      OH2           -15.9690649752       -7.7311193232       16.7305328508  SOLV      4320            0.0000000000
     13079      4331  TIP3      H1            -15.7462049752       -8.1491593232       17.5622828508  SOLV      4320            0.0000000000
     13080      4331  TIP3      H2            -16.5710549752       -8.3436193232       16.3078128508  SOLV      4320            0.0000000000
     13081      4332  TIP3      OH2            -8.9525749752       -8.2141293232       18.9435028508  SOLV      4321            0.0000000000
     13082      4332  TIP3      H1             -9.2484949752       -8.3798293232       18.0484128508  SOLV      4321            0.0000000000
     13083      4332  TIP3      H2             -8.0210549752       -8.4340993232       18.9328928508  SOLV      4321            0.0000000000
     13084      4333  TIP3      OH2            -4.3322949752       -2.8409293232       16.8333028508  SOLV      4322            0.0000000000
     13085      4333  TIP3      H1             -5.2328649752       -2.6576693232       16.5656928508  SOLV      4322            0.0000000000
     13086      4333  TIP3      H2             -4.2981849752       -2.5819993232       17.7541828508  SOLV      4322            0.0000000000
     13087      4334  TIP3      OH2             1.3990350248      -10.5961393232        5.2005628508  SOLV      4323            0.0000000000
     13088      4334  TIP3      H1              0.8446650248      -10.9923393232        4.5283128508  SOLV      4323            0.0000000000
     13089      4334  TIP3      H2              1.4993950248       -9.6856193232        4.9228928508  SOLV      4323            0.0000000000
     13090      4335  TIP3      OH2             1.3622350248       -4.7959693232       18.0377128508  SOLV      4324            0.0000000000
     13091      4335  TIP3      H1              0.5110850248       -4.5575893232       17.6703528508  SOLV      4324            0.0000000000
     13092      4335  TIP3      H2              1.9525750248       -4.8126493232       17.2844228508  SOLV      4324            0.0000000000
     13093      4336  TIP3      OH2            -0.3057949752       -1.8100993232        5.6657728508  SOLV      4325            0.0000000000
     13094      4336  TIP3      H1             -0.6786849752       -2.6357193232        5.9748328508  SOLV      4325            0.0000000000
     13095      4336  TIP3      H2             -0.0284449752       -1.9931593232        4.7681128508  SOLV      4325            0.0000000000
     13096      4337  TIP3      OH2            -3.1454049752       -7.0021493232       12.6869628508  SOLV      4326            0.0000000000
     13097      4337  TIP3      H1             -4.0737149752       -7.2339593232       12.6598928508  SOLV      4326            0.0000000000
     13098      4337  TIP3      H2             -2.6942949752       -7.7791693232       12.3568428508  SOLV      4326            0.0000000000
     13099      4338  TIP3      OH2           -10.6020949752       -2.6739893232        8.8198328508  SOLV      4327            0.0000000000
     13100      4338  TIP3      H1            -10.0748749752       -1.9005493232        8.6197128508  SOLV      4327            0.0000000000
     13101      4338  TIP3      H2            -11.4822449752       -2.4490693232        8.5182328508  SOLV      4327            0.0000000000
     13102      4339  TIP3      OH2           -14.8473249752       -7.8115793232        3.4070728508  SOLV      4328            0.0000000000
     13103      4339  TIP3      H1            -14.2313349752       -7.1848593232        3.7865528508  SOLV      4328            0.0000000000
     13104      4339  TIP3      H2            -15.7090649752       -7.4955993232        3.6787228508  SOLV      4328            0.0000000000
     13105      4340  TIP3      OH2            -9.1748649752       -5.0109993232        8.3962628508  SOLV      4329            0.0000000000
     13106      4340  TIP3      H1             -9.4158649752       -4.0855593232        8.4377928508  SOLV      4329            0.0000000000
     13107      4340  TIP3      H2             -9.9155049752       -5.4698693232        8.7926528508  SOLV      4329            0.0000000000
     13108      4341  TIP3      OH2            -8.6602049752       -0.8616393232       14.7113728508  SOLV      4330            0.0000000000
     13109      4341  TIP3      H1             -8.2977349752       -0.0070793232       14.4778128508  SOLV      4330            0.0000000000
     13110      4341  TIP3      H2             -8.1286849752       -1.1534793232       15.4520028508  SOLV      4330            0.0000000000
     13111      4342  TIP3      OH2           -10.4917849752        0.0107606768        7.9414828508  SOLV      4331            0.0000000000
     13112      4342  TIP3      H1            -11.4417349752        0.1165006768        7.9928128508  SOLV      4331            0.0000000000
     13113      4342  TIP3      H2            -10.1399749752        0.8315006768        8.2862328508  SOLV      4331            0.0000000000
     13114      4343  TIP3      OH2            -5.1161249752       -4.7625693232       14.4119328508  SOLV      4332            0.0000000000
     13115      4343  TIP3      H1             -5.5419949752       -4.9903993232       15.2383328508  SOLV      4332            0.0000000000
     13116      4343  TIP3      H2             -4.5355449752       -5.5013893232       14.2294628508  SOLV      4332            0.0000000000
     13117      4344  TIP3      OH2            -2.9132349752       -3.8335193232        3.4858328508  SOLV      4333            0.0000000000
     13118      4344  TIP3      H1             -2.5599249752       -4.2135393232        4.2901828508  SOLV      4333            0.0000000000
     13119      4344  TIP3      H2             -3.8618849752       -3.9270393232        3.5727628508  SOLV      4333            0.0000000000
     13120      4345  TIP3      OH2            -2.4577049752       -0.2106193232       16.8814128508  SOLV      4334            0.0000000000
     13121      4345  TIP3      H1             -3.0593849752       -0.7663293232       16.3860428508  SOLV      4334            0.0000000000
     13122      4345  TIP3      H2             -2.1763349752        0.4563606768       16.2551528508  SOLV      4334            0.0000000000
     13123      4346  TIP3      OH2           -14.3351149752      -12.9778493232       16.2886728508  SOLV      4335            0.0000000000
     13124      4346  TIP3      H1            -15.2278849752      -12.6393093232       16.2210728508  SOLV      4335            0.0000000000
     13125      4346  TIP3      H2            -14.4338349752      -13.8332393232       16.7067528508  SOLV      4335            0.0000000000
     13126      4347  TIP3      OH2            -2.0473049752       -5.1613193232        5.7126228508  SOLV      4336            0.0000000000
     13127      4347  TIP3      H1             -2.3245449752       -5.8893893232        6.2687328508  SOLV      4336            0.0000000000
     13128      4347  TIP3      H2             -1.1200049752       -5.0421193232        5.9178828508  SOLV      4336            0.0000000000
     13129      4348  TIP3      OH2           -14.6839149752       -1.1734093232       14.7236128508  SOLV      4337            0.0000000000
     13130      4348  TIP3      H1            -14.4668849752       -2.1051693232       14.6925828508  SOLV      4337            0.0000000000
     13131      4348  TIP3      H2            -14.4375649752       -0.8989093232       15.6068928508  SOLV      4337            0.0000000000
     13132      4349  TIP3      OH2           -13.4322849752       -5.8991993232        4.8996328508  SOLV      4338            0.0000000000
     13133      4349  TIP3      H1            -14.1183549752       -5.5469493232        5.4666028508  SOLV      4338            0.0000000000
     13134      4349  TIP3      H2            -12.9094949752       -5.1362393232        4.6530628508  SOLV      4338            0.0000000000
     13135      4350  TIP3      OH2            -5.6007749752      -13.2368193232       15.1785328508  SOLV      4339            0.0000000000
     13136      4350  TIP3      H1             -4.9019849752      -13.1629493232       15.8285028508  SOLV      4339            0.0000000000
     13137      4350  TIP3      H2             -5.9816349752      -14.1013193232       15.3328228508  SOLV      4339            0.0000000000
     13138      4351  TIP3      OH2            -4.8162849752      -13.5846493232        6.2757628508  SOLV      4340            0.0000000000
     13139      4351  TIP3      H1             -4.5964549752      -13.1131093232        5.4723028508  SOLV      4340            0.0000000000
     13140      4351  TIP3      H2             -4.2578849752      -13.1903893232        6.9458228508  SOLV      4340            0.0000000000
     13141      4352  TIP3      OH2            -7.1476749752       -1.4541693232        5.1385128508  SOLV      4341            0.0000000000
     13142      4352  TIP3      H1             -7.9640649752       -0.9571993232        5.1909428508  SOLV      4341            0.0000000000
     13143      4352  TIP3      H2             -6.6180449752       -0.9788193232        4.4983928508  SOLV      4341            0.0000000000
     13144      4353  TIP3      OH2            -7.6162949752      -11.8567693232        7.1106028508  SOLV      4342            0.0000000000
     13145      4353  TIP3      H1             -6.8040349752      -11.3524493232        7.1567728508  SOLV      4342            0.0000000000
     13146      4353  TIP3      H2             -7.8609949752      -12.0017993232        8.0245628508  SOLV      4342            0.0000000000
     13147      4354  TIP3      OH2            -7.0806549752      -10.8704993232       16.2952628508  SOLV      4343            0.0000000000
     13148      4354  TIP3      H1             -6.9616249752      -10.2969593232       17.0523028508  SOLV      4343            0.0000000000
     13149      4354  TIP3      H2             -6.4251949752      -11.5585593232       16.4100428508  SOLV      4343            0.0000000000
     13150      4355  TIP3      OH2            -6.7326249752      -14.7754693232        8.0487128508  SOLV      4344            0.0000000000
     13151      4355  TIP3      H1             -7.0792749752      -14.1584093232        8.6931428508  SOLV      4344            0.0000000000
     13152      4355  TIP3      H2             -6.0739349752      -14.2748993232        7.5672628508  SOLV      4344            0.0000000000
     13153      4356  TIP3      OH2            -9.8093649752       -0.4104493232        5.1202028508  SOLV      4345            0.0000000000
     13154      4356  TIP3      H1             -9.6484949752        0.3893006768        4.6194628508  SOLV      4345            0.0000000000
     13155      4356  TIP3      H2            -10.0065849752       -0.1038493232        6.0052628508  SOLV      4345            0.0000000000
     13156      4357  TIP3      OH2           -11.0749249752      -13.7125293232        4.7359628508  SOLV      4346            0.0000000000
     13157      4357  TIP3      H1            -11.1584449752      -12.8242193232        5.0826028508  SOLV      4346            0.0000000000
     13158      4357  TIP3      H2            -10.1848949752      -13.9778593232        4.9676428508  SOLV      4346            0.0000000000
     13159      4358  TIP3      OH2            -0.8760749752      -12.9634693232       17.1302328508  SOLV      4347            0.0000000000
     13160      4358  TIP3      H1             -1.7924949752      -12.7012993232       17.0426028508  SOLV      4347            0.0000000000
     13161      4358  TIP3      H2             -0.5405749752      -12.9665693232       16.2337628508  SOLV      4347            0.0000000000
     13162      4359  TIP3      OH2            -2.2739749752       -9.2133693232       11.2259628508  SOLV      4348            0.0000000000
     13163      4359  TIP3      H1             -3.0715349752       -9.6283493232       10.8974628508  SOLV      4348            0.0000000000
     13164      4359  TIP3      H2             -1.8288649752       -9.9039993232       11.7170128508  SOLV      4348            0.0000000000
     13165      4360  TIP3      OH2           -14.5004749752      -10.6210093232        2.9123528508  SOLV      4349            0.0000000000
     13166      4360  TIP3      H1            -14.5452149752       -9.6816993232        3.0910528508  SOLV      4349            0.0000000000
     13167      4360  TIP3      H2            -15.3881549752      -10.8565193232        2.6425628508  SOLV      4349            0.0000000000
     13168      4361  TIP3      OH2            -1.1875149752        0.0428806768       12.8483128508  SOLV      4350            0.0000000000
     13169      4361  TIP3      H1             -1.3430849752        0.7213206768       12.1912428508  SOLV      4350            0.0000000000
     13170      4361  TIP3      H2             -0.2548749752        0.1148106768       13.0513728508  SOLV      4350            0.0000000000
     13171      4362  TIP3      OH2           -13.6922749752      -15.8393493232       11.5854528508  SOLV      4351            0.0000000000
     13172      4362  TIP3      H1            -13.9212949752      -15.7800993232       10.6579528508  SOLV      4351            0.0000000000
     13173      4362  TIP3      H2            -14.1349349752      -16.6307993232       11.8918628508  SOLV      4351            0.0000000000
     13174      4363  TIP3      OH2           -14.7619449752       -1.8986393232        7.7460328508  SOLV      4352            0.0000000000
     13175      4363  TIP3      H1            -15.5940849752       -1.4263693232        7.7731728508  SOLV      4352            0.0000000000
     13176      4363  TIP3      H2            -14.2161149752       -1.3888793232        7.1473428508  SOLV      4352            0.0000000000
     13177      4364  TIP3      OH2           -15.4735749752        0.7137306768       19.0758328508  SOLV      4353            0.0000000000
     13178      4364  TIP3      H1            -14.9333549752        0.4971306768       19.8357528508  SOLV      4353            0.0000000000
     13179      4364  TIP3      H2            -15.9547749752       -0.0916693232       18.8860828508  SOLV      4353            0.0000000000
     13180      4365  TIP3      OH2           -10.8762349752       -0.3668293232       20.6962528508  SOLV      4354            0.0000000000
     13181      4365  TIP3      H1            -10.1085149752       -0.8257493232       21.0371728508  SOLV      4354            0.0000000000
     13182      4365  TIP3      H2            -10.8976149752       -0.5928493232       19.7663728508  SOLV      4354            0.0000000000
     13183      4366  TIP3      OH2            -4.2993649752       -1.9867193232       19.4254028508  SOLV      4355            0.0000000000
     13184      4366  TIP3      H1             -4.6504149752       -2.8434193232       19.6684428508  SOLV      4355            0.0000000000
     13185      4366  TIP3      H2             -3.5730449752       -1.8440493232       20.0323028508  SOLV      4355            0.0000000000
     13186      4367  TIP3      OH2           -15.5666249752       -5.4758593232       20.0302628508  SOLV      4356            0.0000000000
     13187      4367  TIP3      H1            -15.4225749752       -6.3777893232       19.7439328508  SOLV      4356            0.0000000000
     13188      4367  TIP3      H2            -16.3388849752       -5.1896493232       19.5424928508  SOLV      4356            0.0000000000
     13189      4368  TIP3      OH2            -8.9110149752       -5.5060493232       19.4629028508  SOLV      4357            0.0000000000
     13190      4368  TIP3      H1             -9.2396349752       -5.2352393232       18.6056428508  SOLV      4357            0.0000000000
     13191      4368  TIP3      H2             -8.7591949752       -6.4470693232       19.3754028508  SOLV      4357            0.0000000000
     13192      4369  TIP3      OH2            -3.1764949752       -5.5903193232       16.8461328508  SOLV      4358            0.0000000000
     13193      4369  TIP3      H1             -2.4310149752       -5.0019493232       16.7265328508  SOLV      4358            0.0000000000
     13194      4369  TIP3      H2             -3.9338149752       -5.0083493232       16.9094428508  SOLV      4358            0.0000000000
     13195      4370  TIP3      OH2           -14.7339749752       -8.2755293232       19.4501928508  SOLV      4359            0.0000000000
     13196      4370  TIP3      H1            -14.3258549752       -9.1328693232       19.3292528508  SOLV      4359            0.0000000000
     13197      4370  TIP3      H2            -14.9942149752       -8.2613993232       20.3712228508  SOLV      4359            0.0000000000
     13198      4371  TIP3      OH2           -10.0758749752       -7.1596693232        4.4685228508  SOLV      4360            0.0000000000
     13199      4371  TIP3      H1            -10.5356749752       -7.6438393232        5.1543728508  SOLV      4360            0.0000000000
     13200      4371  TIP3      H2             -9.8210049752       -7.8281293232        3.8325728508  SOLV      4360            0.0000000000
     13201      4372  TIP3      OH2           -10.7869449752       -9.2669593232       16.8244828508  SOLV      4361            0.0000000000
     13202      4372  TIP3      H1            -11.4053349752       -8.5922993232       17.1049528508  SOLV      4361            0.0000000000
     13203      4372  TIP3      H2            -10.4428249752       -8.9455693232       15.9911028508  SOLV      4361            0.0000000000
     13204      4373  TIP3      OH2            -9.0048349752       -8.9164893232        2.7308428508  SOLV      4362            0.0000000000
     13205      4373  TIP3      H1             -9.1853349752       -9.0713693232        1.8036728508  SOLV      4362            0.0000000000
     13206      4373  TIP3      H2             -8.0547849752       -8.8086193232        2.7756328508  SOLV      4362            0.0000000000
     13207      4374  TIP3      OH2            -5.7671249752       -6.7954293232       20.1019628508  SOLV      4363            0.0000000000
     13208      4374  TIP3      H1             -4.8140049752       -6.7115193232       20.0745628508  SOLV      4363            0.0000000000
     13209      4374  TIP3      H2             -5.9276649752       -7.5072493232       20.7214528508  SOLV      4363            0.0000000000
     13210      4375  TIP3      OH2             0.3849950248       -6.5620693232        2.1766528508  SOLV      4364            0.0000000000
     13211      4375  TIP3      H1              0.1114750248       -6.9865193232        1.3634828508  SOLV      4364            0.0000000000
     13212      4375  TIP3      H2              0.4244050248       -5.6306193232        1.9596928508  SOLV      4364            0.0000000000
     13213      4376  TIP3      OH2           -10.4475749752      -11.9118793232       17.9067928508  SOLV      4365            0.0000000000
     13214      4376  TIP3      H1            -10.2974849752      -12.6407493232       17.3047628508  SOLV      4365            0.0000000000
     13215      4376  TIP3      H2            -10.4453349752      -11.1347093232       17.3480128508  SOLV      4365            0.0000000000
     13216      4377  TIP3      OH2           -10.0350049752      -13.5422993232       15.3995328508  SOLV      4366            0.0000000000
     13217      4377  TIP3      H1             -9.4992549752      -13.0906293232       14.7474628508  SOLV      4366            0.0000000000
     13218      4377  TIP3      H2            -10.8870449752      -13.6503193232       14.9769428508  SOLV      4366            0.0000000000
     13219      4378  TIP3      OH2            -8.4531649752       -8.1026793232       15.6390528508  SOLV      4367            0.0000000000
     13220      4378  TIP3      H1             -7.7026849752       -8.2589293232       15.0658328508  SOLV      4367            0.0000000000
     13221      4378  TIP3      H2             -8.7923349752       -7.2510193232       15.3636028508  SOLV      4367            0.0000000000
     13222      4379  TIP3      OH2            -4.0375449752      -10.2874993232       20.6675828508  SOLV      4368            0.0000000000
     13223      4379  TIP3      H1             -3.8454149752      -11.2185593232       20.5560328508  SOLV      4368            0.0000000000
     13224      4379  TIP3      H2             -3.1799149752       -9.8625493232       20.6571228508  SOLV      4368            0.0000000000
     13225      4380  TIP3      OH2            -2.7208249752       -7.4989793232       18.7448528508  SOLV      4369            0.0000000000
     13226      4380  TIP3      H1             -3.0023249752       -6.7895193232       18.1672328508  SOLV      4369            0.0000000000
     13227      4380  TIP3      H2             -1.7783949752       -7.5716793232       18.5939728508  SOLV      4369            0.0000000000
     13228      4381  TIP3      OH2           -11.9689449752      -10.7135293232       19.8183528508  SOLV      4370            0.0000000000
     13229      4381  TIP3      H1            -12.7360449752      -11.2460493232       19.6081128508  SOLV      4370            0.0000000000
     13230      4381  TIP3      H2            -11.2900449752      -11.0234893232       19.2189828508  SOLV      4370            0.0000000000
     13231      4382  TIP3      OH2            -9.2294549752      -16.0857293232       15.8308928508  SOLV      4371            0.0000000000
     13232      4382  TIP3      H1             -9.3274949752      -15.1394093232       15.7255128508  SOLV      4371            0.0000000000
     13233      4382  TIP3      H2             -9.9718349752      -16.4583493232       15.3552428508  SOLV      4371            0.0000000000
     13234      4383  TIP3      OH2            -7.9654049752      -11.7641893232       19.3947328508  SOLV      4372            0.0000000000
     13235      4383  TIP3      H1             -8.2008649752      -11.9835193232       20.2962228508  SOLV      4372            0.0000000000
     13236      4383  TIP3      H2             -8.7487149752      -11.9710693232       18.8849828508  SOLV      4372            0.0000000000
     13237      4384  TIP3      OH2            -5.2497449752      -12.6368393232       18.4700828508  SOLV      4373            0.0000000000
     13238      4384  TIP3      H1             -6.1972049752      -12.6048693232       18.6024128508  SOLV      4373            0.0000000000
     13239      4384  TIP3      H2             -4.9370749752      -13.2621293232       19.1239028508  SOLV      4373            0.0000000000
     13240      4385  TIP3      OH2            -3.6155949752      -14.0027293232       20.4752728508  SOLV      4374            0.0000000000
     13241      4385  TIP3      H1             -3.7124149752      -14.9549993232       20.4694628508  SOLV      4374            0.0000000000
     13242      4385  TIP3      H2             -3.9372849752      -13.7340493232       21.3358228508  SOLV      4374            0.0000000000
     13243      4386  TIP3      OH2           -13.7886649752      -12.7931493232       19.5228228508  SOLV      4375            0.0000000000
     13244      4386  TIP3      H1            -13.5769249752      -13.4995393232       18.9125728508  SOLV      4375            0.0000000000
     13245      4386  TIP3      H2            -13.8999149752      -13.2305493232       20.3669428508  SOLV      4375            0.0000000000
     13246      4387  TIP3      OH2            -9.0076449752      -16.7919893232       18.5021728508  SOLV      4376            0.0000000000
     13247      4387  TIP3      H1             -8.2958049752      -17.4317693232       18.4880828508  SOLV      4376            0.0000000000
     13248      4387  TIP3      H2             -9.1086049752      -16.5251593232       17.5884828508  SOLV      4376            0.0000000000
     13249      4388  TIP3      OH2            -8.6538949752      -15.1091493232       20.5558028508  SOLV      4377            0.0000000000
     13250      4388  TIP3      H1             -8.7856749752      -15.5847693232       19.7356528508  SOLV      4377            0.0000000000
     13251      4388  TIP3      H2             -9.2531549752      -14.3647893232       20.5005128508  SOLV      4377            0.0000000000
     13252      4389  TIP3      OH2           -15.5391749752       -3.5897393232        3.2150128508  SOLV      4378            0.0000000000
     13253      4389  TIP3      H1            -14.6252549752       -3.5108493232        3.4884028508  SOLV      4378            0.0000000000
     13254      4389  TIP3      H2            -15.5318649752       -4.2767793232        2.5485728508  SOLV      4378            0.0000000000
     13255      4390  TIP3      OH2           -16.8901149752        1.8031106768        8.2924028508  SOLV      4379            0.0000000000
     13256      4390  TIP3      H1            -17.5374049752        1.3412806768        7.7595228508  SOLV      4379            0.0000000000
     13257      4390  TIP3      H2            -16.5356549752        1.1314406768        8.8750228508  SOLV      4379            0.0000000000
     13258      4391  TIP3      OH2             1.5282850248        0.6934506768       13.0775028508  SOLV      4380            0.0000000000
     13259      4391  TIP3      H1              1.5069550248        0.8782906768       14.0164428508  SOLV      4380            0.0000000000
     13260      4391  TIP3      H2              2.2189050248        1.2618506768       12.7366428508  SOLV      4380            0.0000000000
     13261      4392  TIP3      OH2             1.0915750248        0.2605606768       15.9994128508  SOLV      4381            0.0000000000
     13262      4392  TIP3      H1              0.6044450248       -0.4750293232       15.6281528508  SOLV      4381            0.0000000000
     13263      4392  TIP3      H2              1.6408450248       -0.1330493232       16.6773528508  SOLV      4381            0.0000000000
     13264      4393  TIP3      OH2            -0.4576949752       -3.9496293232       20.6374428508  SOLV      4382            0.0000000000
     13265      4393  TIP3      H1             -1.3235849752       -4.0546593232       21.0316728508  SOLV      4382            0.0000000000
     13266      4393  TIP3      H2             -0.0811049752       -3.1912993232       21.0839128508  SOLV      4382            0.0000000000
     13267      4394  TIP3      OH2             0.8432750248       -5.6932593232        6.1516928508  SOLV      4383            0.0000000000
     13268      4394  TIP3      H1              1.6934150248       -5.2721693232        6.2788528508  SOLV      4383            0.0000000000
     13269      4394  TIP3      H2              0.8487850248       -6.4332493232        6.7588328508  SOLV      4383            0.0000000000
     13270      4395  TIP3      OH2             1.2378350248       -7.6395193232        7.9752628508  SOLV      4384            0.0000000000
     13271      4395  TIP3      H1              0.5112950248       -8.1192593232        8.3730228508  SOLV      4384            0.0000000000
     13272      4395  TIP3      H2              1.8191650248       -7.4340493232        8.7074228508  SOLV      4384            0.0000000000
     13273      4396  TIP3      OH2             0.9969550248       -4.8547693232       12.9230228508  SOLV      4385            0.0000000000
     13274      4396  TIP3      H1              1.8303750248       -5.2327693232       12.6423828508  SOLV      4385            0.0000000000
     13275      4396  TIP3      H2              1.1089850248       -3.9116493232       12.8039328508  SOLV      4385            0.0000000000
     13276      4397  TIP3      OH2            -0.5168149752       -1.9770193232       15.2298628508  SOLV      4386            0.0000000000
     13277      4397  TIP3      H1             -1.1642849752       -1.6518693232       15.8553828508  SOLV      4386            0.0000000000
     13278      4397  TIP3      H2             -1.0344149752       -2.4172493232       14.5556928508  SOLV      4386            0.0000000000
     13279      4398  TIP3      OH2             1.5061450248       -7.7386693232        4.3663928508  SOLV      4387            0.0000000000
     13280      4398  TIP3      H1              0.9842550248       -7.3822593232        3.6474828508  SOLV      4387            0.0000000000
     13281      4398  TIP3      H2              1.4730650248       -7.0638893232        5.0444828508  SOLV      4387            0.0000000000
     13282      4399  TIP3      OH2            -0.1449549752      -10.4991093232        2.9171028508  SOLV      4388            0.0000000000
     13283      4399  TIP3      H1             -0.0485149752       -9.8324093232        2.2370728508  SOLV      4388            0.0000000000
     13284      4399  TIP3      H2             -0.2849949752      -11.3144793232        2.4356528508  SOLV      4388            0.0000000000
     13285      4400  TIP3      OH2            -0.9754849752       -9.1188693232        8.5381328508  SOLV      4389            0.0000000000
     13286      4400  TIP3      H1             -1.1256049752      -10.0640093232        8.5179128508  SOLV      4389            0.0000000000
     13287      4400  TIP3      H2             -1.3290349752       -8.8377293232        9.3820428508  SOLV      4389            0.0000000000
     13288      4401  TIP3      OH2           -15.9402449752       -7.0406493232       12.5485128508  SOLV      4390            0.0000000000
     13289      4401  TIP3      H1            -15.7559549752       -7.1224793232       11.6128028508  SOLV      4390            0.0000000000
     13290      4401  TIP3      H2            -15.0909549752       -7.1649493232       12.9721528508  SOLV      4390            0.0000000000
     13291      4402  TIP3      OH2            -0.1191949752       -7.1485393232       18.1769628508  SOLV      4391            0.0000000000
     13292      4402  TIP3      H1              0.4635350248       -7.8833093232       18.3686828508  SOLV      4391            0.0000000000
     13293      4402  TIP3      H2              0.4447350248       -6.3765093232       18.2235428508  SOLV      4391            0.0000000000
     13294      4403  TIP3      OH2             1.3775150248       -9.2459593232       18.8615028508  SOLV      4392            0.0000000000
     13295      4403  TIP3      H1              0.5141850248       -9.6247493232       18.6959728508  SOLV      4392            0.0000000000
     13296      4403  TIP3      H2              1.9818850248       -9.9844793232       18.7870828508  SOLV      4392            0.0000000000
     13297      4404  TIP3      OH2            -0.8975749752      -13.0911293232        2.0346528508  SOLV      4393            0.0000000000
     13298      4404  TIP3      H1             -0.2869949752      -13.4624493232        2.6714728508  SOLV      4393            0.0000000000
     13299      4404  TIP3      H2             -1.7344249752      -13.5124393232        2.2306528508  SOLV      4393            0.0000000000
     13300      4405  TIP3      OH2            -1.2650049752      -11.5362893232        7.0006428508  SOLV      4394            0.0000000000
     13301      4405  TIP3      H1             -0.9852949752      -12.4432493232        7.1248128508  SOLV      4394            0.0000000000
     13302      4405  TIP3      H2             -0.5058349752      -11.1021393232        6.6115628508  SOLV      4394            0.0000000000
     13303      4406  TIP3      OH2            -0.6531749752      -10.9545493232       12.4365328508  SOLV      4395            0.0000000000
     13304      4406  TIP3      H1              0.2796250248      -10.7425593232       12.4021328508  SOLV      4395            0.0000000000
     13305      4406  TIP3      H2             -0.8884249752      -10.8533393232       13.3588328508  SOLV      4395            0.0000000000
     13306      4407  TIP3      OH2            -0.6239849752      -10.2180193232       15.2124728508  SOLV      4396            0.0000000000
     13307      4407  TIP3      H1             -1.4668549752       -9.9499793232       15.5784528508  SOLV      4396            0.0000000000
     13308      4407  TIP3      H2             -0.1815549752       -9.3958293232       15.0015828508  SOLV      4396            0.0000000000
     13309      4408  TIP3      OH2           -16.3427649752      -11.7701493232       18.6893928508  SOLV      4397            0.0000000000
     13310      4408  TIP3      H1            -15.4232749752      -11.8923193232       18.9257028508  SOLV      4397            0.0000000000
     13311      4408  TIP3      H2            -16.7923149752      -12.5201793232       19.0787428508  SOLV      4397            0.0000000000
     13312      4409  TIP3      OH2             1.6591750248      -16.2379993232       20.5659728508  SOLV      4398            0.0000000000
     13313      4409  TIP3      H1              2.0088750248      -16.8916493232       19.9604428508  SOLV      4398            0.0000000000
     13314      4409  TIP3      H2              1.8061250248      -15.4005893232       20.1262328508  SOLV      4398            0.0000000000
     13315      4410  TIP3      OH2            -0.6515249752      -14.2733593232        7.0488428508  SOLV      4399            0.0000000000
     13316      4410  TIP3      H1             -0.4690249752      -14.7222093232        7.8743428508  SOLV      4399            0.0000000000
     13317      4410  TIP3      H2             -1.2512349752      -14.8579193232        6.5853028508  SOLV      4399            0.0000000000
     13318      4411  TIP3      OH2           -15.1215149752      -13.4579893232       11.5806828508  SOLV      4400            0.0000000000
     13319      4411  TIP3      H1            -14.6763549752      -14.2497393232       11.8826528508  SOLV      4400            0.0000000000
     13320      4411  TIP3      H2            -14.6552149752      -12.7414693232       12.0112428508  SOLV      4400            0.0000000000
     13321      4412  TIP3      OH2           -16.8174849752      -10.4586893232       12.6497028508  SOLV      4401            0.0000000000
     13322      4412  TIP3      H1            -16.3255049752      -10.6796393232       11.8589028508  SOLV      4401            0.0000000000
     13323      4412  TIP3      H2            -16.4553949752       -9.6183493232       12.9306528508  SOLV      4401            0.0000000000
     13324      4413  TIP3      OH2             1.1788950248      -14.1285393232       18.9151028508  SOLV      4402            0.0000000000
     13325      4413  TIP3      H1              0.2614650248      -13.8578293232       18.8794528508  SOLV      4402            0.0000000000
     13326      4413  TIP3      H2              1.3018350248      -14.6636993232       18.1310728508  SOLV      4402            0.0000000000
     13327      4414  TIP3      OH2             1.2150950248      -14.2055493232        3.5768728508  SOLV      4403            0.0000000000
     13328      4414  TIP3      H1              1.6273550248      -14.9269793232        3.1016728508  SOLV      4403            0.0000000000
     13329      4414  TIP3      H2              1.8967450248      -13.5360893232        3.6353028508  SOLV      4403            0.0000000000
     13330      4415  TIP3      OH2           -16.5038349752      -14.2007793232        6.7039428508  SOLV      4404            0.0000000000
     13331      4415  TIP3      H1            -17.4289949752      -13.9921193232        6.5744928508  SOLV      4404            0.0000000000
     13332      4415  TIP3      H2            -16.0498449752      -13.7166993232        6.0141728508  SOLV      4404            0.0000000000
     13333      4416  TIP3      OH2            -1.7331149752        0.7833906768        8.6496828508  SOLV      4405            0.0000000000
     13334      4416  TIP3      H1             -1.0808249752        0.4356006768        8.0415928508  SOLV      4405            0.0000000000
     13335      4416  TIP3      H2             -1.2227349752        1.2717106768        9.2956528508  SOLV      4405            0.0000000000
     13336      4417  TIP3      OH2           -16.5402949752      -15.4628793232       15.0481928508  SOLV      4406            0.0000000000
     13337      4417  TIP3      H1            -17.2052449752      -15.7088493232       15.6912828508  SOLV      4406            0.0000000000
     13338      4417  TIP3      H2            -16.9831649752      -14.8408393232       14.4709928508  SOLV      4406            0.0000000000
     13339      4418  TIP3      OH2           -14.3483649752       -2.2874693232       19.1927728508  SOLV      4407            0.0000000000
     13340      4418  TIP3      H1            -15.1691149752       -2.1128193232       18.7322428508  SOLV      4407            0.0000000000
     13341      4418  TIP3      H2            -14.6005849752       -2.3609993232       20.1132128508  SOLV      4407            0.0000000000
     13342      4419  TIP3      OH2           -11.3940749752       -1.3133493232       15.4511728508  SOLV      4408            0.0000000000
     13343      4419  TIP3      H1            -11.8189649752       -0.5034993232       15.1686328508  SOLV      4408            0.0000000000
     13344      4419  TIP3      H2            -10.4897949752       -1.2279393232       15.1491528508  SOLV      4408            0.0000000000
     13345      4420  TIP3      OH2            -7.0829349752        0.0856506768       18.4105428508  SOLV      4409            0.0000000000
     13346      4420  TIP3      H1             -6.8981849752       -0.2477393232       19.2885728508  SOLV      4409            0.0000000000
     13347      4420  TIP3      H2             -6.2364849752        0.3955106768       18.0884628508  SOLV      4409            0.0000000000
     13348      4421  TIP3      OH2            -4.7378949752        1.3715406768       17.6546828508  SOLV      4410            0.0000000000
     13349      4421  TIP3      H1             -4.0610049752        0.7387706768       17.4146028508  SOLV      4410            0.0000000000
     13350      4421  TIP3      H2             -4.4160149752        1.7725906768       18.4620128508  SOLV      4410            0.0000000000
     13351      4422  TIP3      OH2             0.1794850248      -16.0389093232       16.7341828508  SOLV      4411            0.0000000000
     13352      4422  TIP3      H1             -0.6331649752      -15.7138793232       16.3466528508  SOLV      4411            0.0000000000
     13353      4422  TIP3      H2              0.4123350248      -16.7990593232       16.2010928508  SOLV      4411            0.0000000000
     13354      4423  TIP3      OH2           -11.5251449752        1.5434306768       14.5284228508  SOLV      4412            0.0000000000
     13355      4423  TIP3      H1            -12.3899249752        1.6152806768       14.9324328508  SOLV      4412            0.0000000000
     13356      4423  TIP3      H2            -11.5802449752        2.0901606768       13.7446728508  SOLV      4412            0.0000000000
     13357      4424  TIP3      OH2            -6.8145849752        1.4313206768       13.7040228508  SOLV      4413            0.0000000000
     13358      4424  TIP3      H1             -7.2711849752        1.9602906768       13.0498628508  SOLV      4413            0.0000000000
     13359      4424  TIP3      H2             -6.6517849752        2.0344606768       14.4292528508  SOLV      4413            0.0000000000
     13360      4425  TIP3      OH2            -4.4869549752        0.3092806768       14.6490528508  SOLV      4414            0.0000000000
     13361      4425  TIP3      H1             -5.3915849752        0.4743006768       14.3832628508  SOLV      4414            0.0000000000
     13362      4425  TIP3      H2             -4.0580949752        1.1625006768       14.5833928508  SOLV      4414            0.0000000000
     13363      4426  TIP3      OH2            -1.8827649752        1.8791906768       14.9438328508  SOLV      4415            0.0000000000
     13364      4426  TIP3      H1             -2.0645649752        2.7950806768       14.7333228508  SOLV      4415            0.0000000000
     13365      4426  TIP3      H2             -1.7059849752        1.4689006768       14.0972928508  SOLV      4415            0.0000000000
     13366      4427  TIP3      OH2            -9.8990349752       -0.2539093232       11.9126728508  SOLV      4416            0.0000000000
     13367      4427  TIP3      H1             -9.6864649752       -1.1420093232       11.6257628508  SOLV      4416            0.0000000000
     13368      4427  TIP3      H2             -9.8345249752       -0.2881393232       12.8670728508  SOLV      4416            0.0000000000
     13369      4428  TIP3      OH2            -6.3906649752      -14.5898493232       11.0570028508  SOLV      4417            0.0000000000
     13370      4428  TIP3      H1             -7.0649849752      -15.2192893232       11.3125828508  SOLV      4417            0.0000000000
     13371      4428  TIP3      H2             -5.8267449752      -15.0739593232       10.4537928508  SOLV      4417            0.0000000000
     13372      4429  TIP3      OH2            -1.2479449752      -16.4824493232       11.1697128508  SOLV      4418            0.0000000000
     13373      4429  TIP3      H1             -0.6441849752      -15.9349093232       10.6678128508  SOLV      4418            0.0000000000
     13374      4429  TIP3      H2             -2.1177449752      -16.1634093232       10.9291228508  SOLV      4418            0.0000000000
     13375      4430  TIP3      OH2             0.4790950248      -15.3435793232        9.5028028508  SOLV      4419            0.0000000000
     13376      4430  TIP3      H1              1.0908450248      -15.8580093232        8.9761628508  SOLV      4419            0.0000000000
     13377      4430  TIP3      H2              0.8614350248      -14.4663693232        9.5262428508  SOLV      4419            0.0000000000
     13378      4431  TIP3      OH2           -14.0639149752      -15.9558193232        8.8789928508  SOLV      4420            0.0000000000
     13379      4431  TIP3      H1            -14.8409349752      -16.1903293232        8.3715828508  SOLV      4420            0.0000000000
     13380      4431  TIP3      H2            -13.5335549752      -16.7526093232        8.8877928508  SOLV      4420            0.0000000000
     13381      4432  TIP3      OH2           -15.2275749752      -16.1580093232        4.6826028508  SOLV      4421            0.0000000000
     13382      4432  TIP3      H1            -14.7885049752      -15.5469593232        4.0909528508  SOLV      4421            0.0000000000
     13383      4432  TIP3      H2            -15.8613349752      -15.6195993232        5.1566028508  SOLV      4421            0.0000000000
     13384      4433  TIP3      OH2            -9.4846549752      -16.0291093232        8.6923028508  SOLV      4422            0.0000000000
     13385      4433  TIP3      H1             -8.6103149752      -15.6406793232        8.6627328508  SOLV      4422            0.0000000000
     13386      4433  TIP3      H2             -9.6205749752      -16.2443293232        9.6150228508  SOLV      4422            0.0000000000
     13387      4434  TIP3      OH2            -3.9278149752      -15.9991293232       10.3414728508  SOLV      4423            0.0000000000
     13388      4434  TIP3      H1             -3.8516549752      -15.9039693232        9.3920728508  SOLV      4423            0.0000000000
     13389      4434  TIP3      H2             -4.2028949752      -16.9068393232       10.4703828508  SOLV      4423            0.0000000000
     13390      4435  TIP3      OH2            -2.5745549752      -15.9733493232        6.0339728508  SOLV      4424            0.0000000000
     13391      4435  TIP3      H1             -3.2774449752      -15.3584293232        5.8241128508  SOLV      4424            0.0000000000
     13392      4435  TIP3      H2             -3.0194149752      -16.8106793232        6.1650628508  SOLV      4424            0.0000000000
     13393      4436  TIP3      OH2           -15.3266249752       -0.2097893232        5.5801128508  SOLV      4425            0.0000000000
     13394      4436  TIP3      H1            -16.0116349752       -0.2478993232        4.9126228508  SOLV      4425            0.0000000000
     13395      4436  TIP3      H2            -15.3229049752        0.7029706768        5.8683228508  SOLV      4425            0.0000000000
     13396      4437  TIP3      OH2           -13.3666649752      -14.2418593232        3.1250128508  SOLV      4426            0.0000000000
     13397      4437  TIP3      H1            -12.8753249752      -14.8716193232        2.5975628508  SOLV      4426            0.0000000000
     13398      4437  TIP3      H2            -12.7430349752      -13.9459193232        3.7881328508  SOLV      4426            0.0000000000
     13399      4438  TIP3      OH2            -8.3406549752      -13.9487093232        5.5820628508  SOLV      4427            0.0000000000
     13400      4438  TIP3      H1             -8.1625249752      -14.5953893232        6.2649228508  SOLV      4427            0.0000000000
     13401      4438  TIP3      H2             -8.3940349752      -13.1149393232        6.0491728508  SOLV      4427            0.0000000000
     13402      4439  TIP3      OH2            -6.4622749752        0.9997006768        3.9777328508  SOLV      4428            0.0000000000
     13403      4439  TIP3      H1             -5.5962549752        1.3664406768        3.7995528508  SOLV      4428            0.0000000000
     13404      4439  TIP3      H2             -6.7089949752        0.5605006768        3.1638128508  SOLV      4428            0.0000000000
     13405      4440  TIP3      OH2             0.2466850248        0.5627306768        6.6568428508  SOLV      4429            0.0000000000
     13406      4440  TIP3      H1              0.0523950248       -0.1850593232        6.0918028508  SOLV      4429            0.0000000000
     13407      4440  TIP3      H2              0.2076950248        1.3207406768        6.0736328508  SOLV      4429            0.0000000000
     13408      4441  TIP3      OH2           -14.1061149752      -15.4416293232       18.3966128508  SOLV      4430            0.0000000000
     13409      4441  TIP3      H1            -14.4722949752      -16.2073693232       18.8390828508  SOLV      4430            0.0000000000
     13410      4441  TIP3      H2            -13.1932649752      -15.4126093232       18.6831228508  SOLV      4430            0.0000000000
     13411      4442  TIP3      OH2           -12.1330349752      -16.0911893232       19.9323228508  SOLV      4431            0.0000000000
     13412      4442  TIP3      H1            -11.2346749752      -16.3651693232       19.7476628508  SOLV      4431            0.0000000000
     13413      4442  TIP3      H2            -12.5197249752      -16.8335893232       20.3965828508  SOLV      4431            0.0000000000
     13414      4443  TIP3      OH2           -13.5085049752        0.7102906768        2.6053228508  SOLV      4432            0.0000000000
     13415      4443  TIP3      H1            -13.7760449752        0.9965806768        3.4786328508  SOLV      4432            0.0000000000
     13416      4443  TIP3      H2            -12.7372449752        0.1642106768        2.7575728508  SOLV      4432            0.0000000000
     13417      4444  TIP3      OH2            -3.7118049752      -16.7586593232       20.1146028508  SOLV      4433            0.0000000000
     13418      4444  TIP3      H1             -3.6350849752      -17.1845893232       20.9683728508  SOLV      4433            0.0000000000
     13419      4444  TIP3      H2             -2.8181449752      -16.7451893232       19.7719528508  SOLV      4433            0.0000000000
     13420      4445  TIP3      OH2            -0.5356949752       -0.6860293232       18.8070228508  SOLV      4434            0.0000000000
     13421      4445  TIP3      H1             -1.3175049752       -0.8722293232       18.2870828508  SOLV      4434            0.0000000000
     13422      4445  TIP3      H2             -0.6077049752        0.2434006768       19.0242728508  SOLV      4434            0.0000000000
     13423      4446  TIP3      OH2            13.8703450248       -6.7995893232        8.8377428508  SOLV      4435            0.0000000000
     13424      4446  TIP3      H1             13.9594550248       -5.8557693232        8.7054528508  SOLV      4435            0.0000000000
     13425      4446  TIP3      H2             13.2321050248       -7.0749493232        8.1796828508  SOLV      4435            0.0000000000
     13426      4447  TIP3      OH2            12.8034750248       -7.5445193232       12.2565628508  SOLV      4436            0.0000000000
     13427      4447  TIP3      H1             12.7652250248       -8.1908893232       12.9615228508  SOLV      4436            0.0000000000
     13428      4447  TIP3      H2             12.4811250248       -8.0110793232       11.4854328508  SOLV      4436            0.0000000000
     13429      4448  TIP3      OH2             5.1719750248       -7.9303093232       13.8495528508  SOLV      4437            0.0000000000
     13430      4448  TIP3      H1              5.2131850248       -8.5559793232       14.5727928508  SOLV      4437            0.0000000000
     13431      4448  TIP3      H2              5.8747450248       -7.3064493232       14.0315928508  SOLV      4437            0.0000000000
     13432      4449  TIP3      OH2            16.5094950248       -4.6054793232       10.5580728508  SOLV      4438            0.0000000000
     13433      4449  TIP3      H1             16.0687650248       -5.3258793232       11.0086328508  SOLV      4438            0.0000000000
     13434      4449  TIP3      H2             16.4964650248       -3.8847593232       11.1878428508  SOLV      4438            0.0000000000
     13435      4450  TIP3      OH2             6.0952850248       -3.4804193232       12.3844628508  SOLV      4439            0.0000000000
     13436      4450  TIP3      H1              5.7258050248       -4.2823693232       12.0148928508  SOLV      4439            0.0000000000
     13437      4450  TIP3      H2              7.0363950248       -3.6489293232       12.4308028508  SOLV      4439            0.0000000000
     13438      4451  TIP3      OH2             2.7053350248       -9.8201593232        7.7773428508  SOLV      4440            0.0000000000
     13439      4451  TIP3      H1              2.2576750248       -8.9742893232        7.7589928508  SOLV      4440            0.0000000000
     13440      4451  TIP3      H2              2.1444550248      -10.3997393232        7.2618528508  SOLV      4440            0.0000000000
     13441      4452  TIP3      OH2             3.4159450248       -7.6581993232        9.9031428508  SOLV      4441            0.0000000000
     13442      4452  TIP3      H1              3.6292950248       -8.4280393232       10.4304428508  SOLV      4441            0.0000000000
     13443      4452  TIP3      H2              4.1537050248       -7.5685293232        9.2999028508  SOLV      4441            0.0000000000
     13444      4453  TIP3      OH2            13.6210450248        0.4986906768       10.7701128508  SOLV      4442            0.0000000000
     13445      4453  TIP3      H1             14.2406850248       -0.1778393232       10.4970328508  SOLV      4442            0.0000000000
     13446      4453  TIP3      H2             13.4127850248        0.2807706768       11.6786028508  SOLV      4442            0.0000000000
     13447      4454  TIP3      OH2            11.1929150248       -5.1123793232       12.6626628508  SOLV      4443            0.0000000000
     13448      4454  TIP3      H1             11.4967050248       -5.7982393232       12.0680728508  SOLV      4443            0.0000000000
     13449      4454  TIP3      H2             11.9143150248       -4.9935093232       13.2804628508  SOLV      4443            0.0000000000
     13450      4455  TIP3      OH2            19.8558950248      -13.5108493232       13.5232828508  SOLV      4444            0.0000000000
     13451      4455  TIP3      H1             19.9051150248      -12.9007293232       14.2591928508  SOLV      4444            0.0000000000
     13452      4455  TIP3      H2             20.2814050248      -13.0497593232       12.8003928508  SOLV      4444            0.0000000000
     13453      4456  TIP3      OH2            14.3336150248      -10.7181393232       12.9901428508  SOLV      4445            0.0000000000
     13454      4456  TIP3      H1             14.4762050248      -11.6644393232       13.0103028508  SOLV      4445            0.0000000000
     13455      4456  TIP3      H2             14.2275150248      -10.5111593232       12.0616328508  SOLV      4445            0.0000000000
     13456      4457  TIP3      OH2             7.4884450248      -12.6164993232       10.2626228508  SOLV      4446            0.0000000000
     13457      4457  TIP3      H1              7.5315550248      -11.7566493232        9.8442528508  SOLV      4446            0.0000000000
     13458      4457  TIP3      H2              7.0308550248      -13.1690293232        9.6289428508  SOLV      4446            0.0000000000
     13459      4458  TIP3      OH2            15.2107150248      -12.4859393232        8.6634528508  SOLV      4447            0.0000000000
     13460      4458  TIP3      H1             15.8571450248      -12.8146193232        9.2882128508  SOLV      4447            0.0000000000
     13461      4458  TIP3      H2             15.7206550248      -11.9680393232        8.0405928508  SOLV      4447            0.0000000000
     13462      4459  TIP3      OH2             4.1085950248      -10.2199193232       11.0247628508  SOLV      4448            0.0000000000
     13463      4459  TIP3      H1              4.7622550248      -10.7697493232       11.4567728508  SOLV      4448            0.0000000000
     13464      4459  TIP3      H2              4.1325250248      -10.4940193232       10.1079628508  SOLV      4448            0.0000000000
     13465      4460  TIP3      OH2             9.2650450248       -8.6697893232       10.2399128508  SOLV      4449            0.0000000000
     13466      4460  TIP3      H1              9.8811450248       -9.1962493232       10.7493128508  SOLV      4449            0.0000000000
     13467      4460  TIP3      H2              8.6789250248       -9.3099193232        9.8362728508  SOLV      4449            0.0000000000
     13468      4461  TIP3      OH2            20.2473550248      -12.0329293232       15.7592628508  SOLV      4450            0.0000000000
     13469      4461  TIP3      H1             19.5588150248      -11.3748593232       15.6639228508  SOLV      4450            0.0000000000
     13470      4461  TIP3      H2             20.2628150248      -12.2301393232       16.6958028508  SOLV      4450            0.0000000000
     13471      4462  TIP3      OH2             6.2986350248      -13.6986593232       14.3367028508  SOLV      4451            0.0000000000
     13472      4462  TIP3      H1              6.0798050248      -13.1685993232       13.5703028508  SOLV      4451            0.0000000000
     13473      4462  TIP3      H2              5.6307250248      -13.4721093232       14.9838428508  SOLV      4451            0.0000000000
     13474      4463  TIP3      OH2            13.6676150248       -4.1985493232        7.8806128508  SOLV      4452            0.0000000000
     13475      4463  TIP3      H1             13.3721250248       -4.5213193232        7.0293028508  SOLV      4452            0.0000000000
     13476      4463  TIP3      H2             13.3433950248       -3.2988793232        7.9218728508  SOLV      4452            0.0000000000
     13477      4464  TIP3      OH2             8.8677750248       -6.0230893232       14.6240728508  SOLV      4453            0.0000000000
     13478      4464  TIP3      H1              8.1276850248       -5.4249393232       14.7275928508  SOLV      4453            0.0000000000
     13479      4464  TIP3      H2              9.5817250248       -5.4691293232       14.3084328508  SOLV      4453            0.0000000000
     13480      4465  TIP3      OH2            16.9745550248      -13.1950093232       10.6440428508  SOLV      4454            0.0000000000
     13481      4465  TIP3      H1             16.7593550248      -13.9606693232       11.1766428508  SOLV      4454            0.0000000000
     13482      4465  TIP3      H2             17.6302950248      -12.7225493232       11.1568928508  SOLV      4454            0.0000000000
     13483      4466  TIP3      OH2             5.8923650248      -11.8064793232       12.2889228508  SOLV      4455            0.0000000000
     13484      4466  TIP3      H1              6.5059950248      -11.1737193232       12.6621628508  SOLV      4455            0.0000000000
     13485      4466  TIP3      H2              6.4044350248      -12.2789793232       11.6326128508  SOLV      4455            0.0000000000
     13486      4467  TIP3      OH2             7.2752050248       -4.0587893232       15.4112228508  SOLV      4456            0.0000000000
     13487      4467  TIP3      H1              7.2699650248       -3.1794393232       15.0331528508  SOLV      4456            0.0000000000
     13488      4467  TIP3      H2              6.4216150248       -4.1423793232       15.8362128508  SOLV      4456            0.0000000000
     13489      4468  TIP3      OH2             3.3962950248       -4.3879993232        6.1931528508  SOLV      4457            0.0000000000
     13490      4468  TIP3      H1              3.1243850248       -4.1588993232        5.3044428508  SOLV      4457            0.0000000000
     13491      4468  TIP3      H2              3.4418650248       -3.5501193232        6.6536828508  SOLV      4457            0.0000000000
     13492      4469  TIP3      OH2            17.0212650248       -2.7664093232       12.9060028508  SOLV      4458            0.0000000000
     13493      4469  TIP3      H1             16.0796350248       -2.7080193232       13.0676928508  SOLV      4458            0.0000000000
     13494      4469  TIP3      H2             17.2978750248       -1.8603593232       12.7689728508  SOLV      4458            0.0000000000
     13495      4470  TIP3      OH2            10.3251050248      -16.3931493232       11.7891928508  SOLV      4459            0.0000000000
     13496      4470  TIP3      H1             10.2075250248      -17.3415493232       11.7350228508  SOLV      4459            0.0000000000
     13497      4470  TIP3      H2              9.4701150248      -16.0605393232       12.0623028508  SOLV      4459            0.0000000000
     13498      4471  TIP3      OH2            15.2733850248       -0.9850593232        9.5311628508  SOLV      4460            0.0000000000
     13499      4471  TIP3      H1             15.6986150248       -1.6922693232        9.0461228508  SOLV      4460            0.0000000000
     13500      4471  TIP3      H2             15.5903850248       -0.1837893232        9.1143828508  SOLV      4460            0.0000000000
     13501      4472  TIP3      OH2            16.4330350248       -3.0842093232        8.0398228508  SOLV      4461            0.0000000000
     13502      4472  TIP3      H1             16.1755150248       -3.7741993232        7.4284128508  SOLV      4461            0.0000000000
     13503      4472  TIP3      H2             16.5041150248       -3.5270893232        8.8854128508  SOLV      4461            0.0000000000
     13504      4473  TIP3      OH2            18.1190550248       -4.5175393232       16.5171728508  SOLV      4462            0.0000000000
     13505      4473  TIP3      H1             18.2586850248       -5.1092893232       15.7778728508  SOLV      4462            0.0000000000
     13506      4473  TIP3      H2             18.2863350248       -3.6449493232       16.1610528508  SOLV      4462            0.0000000000
     13507      4474  TIP3      OH2            12.5915950248       -7.5555893232        6.2897728508  SOLV      4463            0.0000000000
     13508      4474  TIP3      H1             11.8801450248       -7.0206193232        5.9378228508  SOLV      4463            0.0000000000
     13509      4474  TIP3      H2             13.2825550248       -7.5003793232        5.6296628508  SOLV      4463            0.0000000000
     13510      4475  TIP3      OH2            12.6455150248       -9.0981593232        3.3282728508  SOLV      4464            0.0000000000
     13511      4475  TIP3      H1             13.3465050248       -9.0754693232        3.9796728508  SOLV      4464            0.0000000000
     13512      4475  TIP3      H2             12.9478050248       -9.7261893232        2.6722028508  SOLV      4464            0.0000000000
     13513      4476  TIP3      OH2            19.9609850248       -8.1777393232       14.5832128508  SOLV      4465            0.0000000000
     13514      4476  TIP3      H1             19.3083950248       -7.4831793232       14.6723028508  SOLV      4465            0.0000000000
     13515      4476  TIP3      H2             20.4260150248       -7.9676493232       13.7733728508  SOLV      4465            0.0000000000
     13516      4477  TIP3      OH2            15.9973650248       -7.3462593232        7.2413628508  SOLV      4466            0.0000000000
     13517      4477  TIP3      H1             15.2654650248       -7.1178893232        7.8144228508  SOLV      4466            0.0000000000
     13518      4477  TIP3      H2             16.4445850248       -8.0599893232        7.6961128508  SOLV      4466            0.0000000000
     13519      4478  TIP3      OH2            15.8947150248       -9.1719993232       16.3090628508  SOLV      4467            0.0000000000
     13520      4478  TIP3      H1             15.9746250248       -8.4085593232       16.8809128508  SOLV      4467            0.0000000000
     13521      4478  TIP3      H2             15.2934850248       -8.8927593232       15.6185728508  SOLV      4467            0.0000000000
     13522      4479  TIP3      OH2             7.6427350248       -6.7156393232        9.1238628508  SOLV      4468            0.0000000000
     13523      4479  TIP3      H1              7.3122550248       -7.0862993232        8.3055628508  SOLV      4468            0.0000000000
     13524      4479  TIP3      H2              8.2311450248       -7.3862393232        9.4706928508  SOLV      4468            0.0000000000
     13525      4480  TIP3      OH2             9.0094850248       -3.2875793232       11.8050828508  SOLV      4469            0.0000000000
     13526      4480  TIP3      H1              8.9146150248       -3.8662693232       11.0485428508  SOLV      4469            0.0000000000
     13527      4480  TIP3      H2              9.7388450248       -3.6590093232       12.3013628508  SOLV      4469            0.0000000000
     13528      4481  TIP3      OH2             8.0092850248       -7.9470793232       12.7573628508  SOLV      4470            0.0000000000
     13529      4481  TIP3      H1              8.5745350248       -7.8256593232       11.9944828508  SOLV      4470            0.0000000000
     13530      4481  TIP3      H2              8.3281750248       -7.3095793232       13.3962128508  SOLV      4470            0.0000000000
     13531      4482  TIP3      OH2            14.3185050248       -2.4438893232       13.4914128508  SOLV      4471            0.0000000000
     13532      4482  TIP3      H1             14.0781650248       -1.7815793232       14.1393328508  SOLV      4471            0.0000000000
     13533      4482  TIP3      H2             14.1203250248       -3.2783693232       13.9163728508  SOLV      4471            0.0000000000
     13534      4483  TIP3      OH2             8.8893550248       -3.5478093232       17.4745528508  SOLV      4472            0.0000000000
     13535      4483  TIP3      H1              8.5781050248       -2.7654893232       17.9298728508  SOLV      4472            0.0000000000
     13536      4483  TIP3      H2              8.2393750248       -3.7008993232       16.7887528508  SOLV      4472            0.0000000000
     13537      4484  TIP3      OH2            14.8683150248       -8.1839693232        4.9264828508  SOLV      4473            0.0000000000
     13538      4484  TIP3      H1             15.4478650248       -8.0339393232        5.6733728508  SOLV      4473            0.0000000000
     13539      4484  TIP3      H2             15.2823150248       -7.7132293232        4.2031228508  SOLV      4473            0.0000000000
     13540      4485  TIP3      OH2             5.8093450248       -7.3496993232       16.7031228508  SOLV      4474            0.0000000000
     13541      4485  TIP3      H1              5.8796650248       -6.6990193232       17.4016228508  SOLV      4474            0.0000000000
     13542      4485  TIP3      H2              4.9185650248       -7.2469493232       16.3682128508  SOLV      4474            0.0000000000
     13543      4486  TIP3      OH2            12.5948050248       -1.4471193232        8.3617928508  SOLV      4475            0.0000000000
     13544      4486  TIP3      H1             13.0685650248       -1.1514893232        9.1392128508  SOLV      4475            0.0000000000
     13545      4486  TIP3      H2             12.0317350248       -0.7089593232        8.1287528508  SOLV      4475            0.0000000000
     13546      4487  TIP3      OH2             7.1289450248       -1.4763093232       18.2379328508  SOLV      4476            0.0000000000
     13547      4487  TIP3      H1              7.1364750248       -1.6123393232       17.2904828508  SOLV      4476            0.0000000000
     13548      4487  TIP3      H2              6.2129850248       -1.5934993232       18.4899328508  SOLV      4476            0.0000000000
     13549      4488  TIP3      OH2            18.5671550248      -16.4339293232        4.7394528508  SOLV      4477            0.0000000000
     13550      4488  TIP3      H1             17.6672250248      -16.2950293232        5.0345128508  SOLV      4477            0.0000000000
     13551      4488  TIP3      H2             18.8189950248      -15.6024693232        4.3376228508  SOLV      4477            0.0000000000
     13552      4489  TIP3      OH2             6.6330050248       -7.6462093232        6.7131428508  SOLV      4478            0.0000000000
     13553      4489  TIP3      H1              6.3411350248       -6.8780393232        6.2222728508  SOLV      4478            0.0000000000
     13554      4489  TIP3      H2              5.9585250248       -8.3055893232        6.5502828508  SOLV      4478            0.0000000000
     13555      4490  TIP3      OH2            19.7562950248       -2.0676893232        3.1158428508  SOLV      4479            0.0000000000
     13556      4490  TIP3      H1             19.8296450248       -1.1286693232        3.2863728508  SOLV      4479            0.0000000000
     13557      4490  TIP3      H2             20.6618050248       -2.3728293232        3.0595728508  SOLV      4479            0.0000000000
     13558      4491  TIP3      OH2             2.7260150248       -5.2832893232       15.5281228508  SOLV      4480            0.0000000000
     13559      4491  TIP3      H1              2.2248550248       -5.3113493232       14.7130928508  SOLV      4480            0.0000000000
     13560      4491  TIP3      H2              2.7313850248       -6.1889693232       15.8378528508  SOLV      4480            0.0000000000
     13561      4492  TIP3      OH2             2.4762850248       -2.5029093232       12.4121428508  SOLV      4481            0.0000000000
     13562      4492  TIP3      H1              3.4223450248       -2.6472093232       12.3930928508  SOLV      4481            0.0000000000
     13563      4492  TIP3      H2              2.3639150248       -1.7186293232       12.9492628508  SOLV      4481            0.0000000000
     13564      4493  TIP3      OH2            20.6741350248       -1.8369393232       18.0945128508  SOLV      4482            0.0000000000
     13565      4493  TIP3      H1             20.6248150248       -2.7921293232       18.0572728508  SOLV      4482            0.0000000000
     13566      4493  TIP3      H2             19.8473650248       -1.5694093232       18.4958928508  SOLV      4482            0.0000000000
     13567      4494  TIP3      OH2            11.6525350248       -2.2630193232       16.9706528508  SOLV      4483            0.0000000000
     13568      4494  TIP3      H1             11.7399950248       -1.4365593232       17.4455628508  SOLV      4483            0.0000000000
     13569      4494  TIP3      H2             10.7890450248       -2.5926393232       17.2195828508  SOLV      4483            0.0000000000
     13570      4495  TIP3      OH2            12.0671150248        1.5093506768        6.7767128508  SOLV      4484            0.0000000000
     13571      4495  TIP3      H1             11.9917150248        1.3880706768        5.8302328508  SOLV      4484            0.0000000000
     13572      4495  TIP3      H2             12.0999850248        2.4586206768        6.8951728508  SOLV      4484            0.0000000000
     13573      4496  TIP3      OH2             5.7204950248        0.2980506768        8.5576128508  SOLV      4485            0.0000000000
     13574      4496  TIP3      H1              5.8725350248       -0.0499093232        9.4362628508  SOLV      4485            0.0000000000
     13575      4496  TIP3      H2              4.8695350248       -0.0582193232        8.3023328508  SOLV      4485            0.0000000000
     13576      4497  TIP3      OH2            15.1687150248        0.6633706768        3.7789528508  SOLV      4486            0.0000000000
     13577      4497  TIP3      H1             15.5435550248       -0.0810193232        3.3082128508  SOLV      4486            0.0000000000
     13578      4497  TIP3      H2             15.1730850248        0.3934306768        4.6972828508  SOLV      4486            0.0000000000
     13579      4498  TIP3      OH2            14.8375250248        0.5890806768        6.5281728508  SOLV      4487            0.0000000000
     13580      4498  TIP3      H1             13.9025050248        0.6892706768        6.7068728508  SOLV      4487            0.0000000000
     13581      4498  TIP3      H2             15.1177150248       -0.1203193232        7.1064928508  SOLV      4487            0.0000000000
     13582      4499  TIP3      OH2            17.8261150248      -10.3436893232       18.5747328508  SOLV      4488            0.0000000000
     13583      4499  TIP3      H1             17.4187950248       -9.8631293232       17.8540628508  SOLV      4488            0.0000000000
     13584      4499  TIP3      H2             17.8666850248      -11.2490893232       18.2668128508  SOLV      4488            0.0000000000
     13585      4500  TIP3      OH2             4.9750650248       -3.9597493232       16.5714028508  SOLV      4489            0.0000000000
     13586      4500  TIP3      H1              5.1911950248       -4.3211893232       17.4309828508  SOLV      4489            0.0000000000
     13587      4500  TIP3      H2              4.1195350248       -4.3343693232       16.3617528508  SOLV      4489            0.0000000000
     13588      4501  TIP3      OH2             7.5938650248      -15.4896993232       12.5668228508  SOLV      4490            0.0000000000
     13589      4501  TIP3      H1              6.7322350248      -15.5768793232       12.1591128508  SOLV      4490            0.0000000000
     13590      4501  TIP3      H2              7.5714350248      -14.6336893232       12.9945828508  SOLV      4490            0.0000000000
     13591      4502  TIP3      OH2            12.2566450248      -15.7676593232       15.9415228508  SOLV      4491            0.0000000000
     13592      4502  TIP3      H1             12.6769550248      -16.1829493232       16.6945828508  SOLV      4491            0.0000000000
     13593      4502  TIP3      H2             11.3236050248      -15.9463293232       16.0587228508  SOLV      4491            0.0000000000
     13594      4503  TIP3      OH2            16.3456250248       -7.1511393232        2.5562728508  SOLV      4492            0.0000000000
     13595      4503  TIP3      H1             16.3877050248       -7.3737493232        1.6262728508  SOLV      4492            0.0000000000
     13596      4503  TIP3      H2             17.1948350248       -6.7524293232        2.7462628508  SOLV      4492            0.0000000000
     13597      4504  TIP3      OH2            11.9183750248      -13.2753193232        3.2266028508  SOLV      4493            0.0000000000
     13598      4504  TIP3      H1             11.6648550248      -13.2561593232        4.1494128508  SOLV      4493            0.0000000000
     13599      4504  TIP3      H2             11.6615850248      -14.1467793232        2.9252228508  SOLV      4493            0.0000000000
     13600      4505  TIP3      OH2             7.6848750248      -10.5242493232       13.6618428508  SOLV      4494            0.0000000000
     13601      4505  TIP3      H1              7.0430850248      -10.5645193232       14.3708528508  SOLV      4494            0.0000000000
     13602      4505  TIP3      H2              7.7220750248       -9.5977793232       13.4241428508  SOLV      4494            0.0000000000
     13603      4506  TIP3      OH2             7.6817850248      -10.3032393232        8.5738428508  SOLV      4495            0.0000000000
     13604      4506  TIP3      H1              6.7890750248      -10.6436293232        8.5152228508  SOLV      4495            0.0000000000
     13605      4506  TIP3      H2              8.1324450248      -10.6801493232        7.8181628508  SOLV      4495            0.0000000000
     13606      4507  TIP3      OH2            13.2173350248       -9.8872093232        7.3909228508  SOLV      4496            0.0000000000
     13607      4507  TIP3      H1             12.8083650248       -9.0723493232        7.0994028508  SOLV      4496            0.0000000000
     13608      4507  TIP3      H2             13.9379550248      -10.0271993232        6.7766328508  SOLV      4496            0.0000000000
     13609      4508  TIP3      OH2            12.3194950248       -9.7115693232       18.8789928508  SOLV      4497            0.0000000000
     13610      4508  TIP3      H1             11.7568750248      -10.4164093232       19.1997728508  SOLV      4497            0.0000000000
     13611      4508  TIP3      H2             13.1458350248       -9.8323793232       19.3467528508  SOLV      4497            0.0000000000
     13612      4509  TIP3      OH2            14.2221050248      -10.4411693232       10.2048928508  SOLV      4498            0.0000000000
     13613      4509  TIP3      H1             14.0265550248       -9.8354893232        9.4899528508  SOLV      4498            0.0000000000
     13614      4509  TIP3      H2             14.4033650248      -11.2746493232        9.7705228508  SOLV      4498            0.0000000000
     13615      4510  TIP3      OH2             5.4349250248      -10.2038993232       15.5290428508  SOLV      4499            0.0000000000
     13616      4510  TIP3      H1              5.3968650248       -9.8037393232       16.3977528508  SOLV      4499            0.0000000000
     13617      4510  TIP3      H2              4.9440350248      -11.0206593232       15.6193328508  SOLV      4499            0.0000000000
     13618      4511  TIP3      OH2             8.8006650248      -12.8296693232        2.3276428508  SOLV      4500            0.0000000000
     13619      4511  TIP3      H1              8.3697350248      -13.2746593232        3.0573828508  SOLV      4500            0.0000000000
     13620      4511  TIP3      H2              8.0825350248      -12.4580393232        1.8153928508  SOLV      4500            0.0000000000
     13621      4512  TIP3      OH2             2.0430050248      -13.0877193232        9.3795128508  SOLV      4501            0.0000000000
     13622      4512  TIP3      H1              2.6737750248      -13.1165093232       10.0989028508  SOLV      4501            0.0000000000
     13623      4512  TIP3      H2              2.4924350248      -13.5128493232        8.6491028508  SOLV      4501            0.0000000000
     13624      4513  TIP3      OH2             3.3172150248      -12.3415193232        4.8035528508  SOLV      4502            0.0000000000
     13625      4513  TIP3      H1              3.7913850248      -11.7505293232        4.2186428508  SOLV      4502            0.0000000000
     13626      4513  TIP3      H2              2.5998550248      -11.8112293232        5.1505628508  SOLV      4502            0.0000000000
     13627      4514  TIP3      OH2            13.4860250248       -8.8030393232       14.8761328508  SOLV      4503            0.0000000000
     13628      4514  TIP3      H1             13.8095050248       -9.4340693232       14.2331828508  SOLV      4503            0.0000000000
     13629      4514  TIP3      H2             13.0459550248       -9.3378193232       15.5368728508  SOLV      4503            0.0000000000
     13630      4515  TIP3      OH2            10.2633150248      -12.8754893232        9.6602528508  SOLV      4504            0.0000000000
     13631      4515  TIP3      H1              9.3524250248      -12.8188093232        9.9488528508  SOLV      4504            0.0000000000
     13632      4515  TIP3      H2             10.7686050248      -12.9359393232       10.4709728508  SOLV      4504            0.0000000000
     13633      4516  TIP3      OH2             5.0916550248      -11.2468593232        8.4870128508  SOLV      4505            0.0000000000
     13634      4516  TIP3      H1              4.2024550248      -11.1473093232        8.1469728508  SOLV      4505            0.0000000000
     13635      4516  TIP3      H2              5.3881450248      -12.0885593232        8.1408028508  SOLV      4505            0.0000000000
     13636      4517  TIP3      OH2             8.7448350248      -11.2465993232        6.1434728508  SOLV      4506            0.0000000000
     13637      4517  TIP3      H1              9.6763850248      -11.1175993232        6.3217828508  SOLV      4506            0.0000000000
     13638      4517  TIP3      H2              8.5298650248      -10.5771693232        5.4939428508  SOLV      4506            0.0000000000
     13639      4518  TIP3      OH2            14.6685050248      -13.6408593232       12.9244328508  SOLV      4507            0.0000000000
     13640      4518  TIP3      H1             13.9916650248      -13.5095493232       13.5884028508  SOLV      4507            0.0000000000
     13641      4518  TIP3      H2             14.1829950248      -13.7959093232       12.1142028508  SOLV      4507            0.0000000000
     13642      4519  TIP3      OH2             7.4188550248      -10.0523793232        3.7100828508  SOLV      4508            0.0000000000
     13643      4519  TIP3      H1              6.8763650248      -10.4319993232        3.0188428508  SOLV      4508            0.0000000000
     13644      4519  TIP3      H2              8.2523450248       -9.8579093232        3.2814928508  SOLV      4508            0.0000000000
     13645      4520  TIP3      OH2            17.9560150248        2.0306806768       19.2011928508  SOLV      4509            0.0000000000
     13646      4520  TIP3      H1             18.1558850248        2.4548706768       18.3667228508  SOLV      4509            0.0000000000
     13647      4520  TIP3      H2             18.6113850248        2.3745006768       19.8082328508  SOLV      4509            0.0000000000
     13648      4521  TIP3      OH2             5.5539950248       -5.4951893232       18.8092428508  SOLV      4510            0.0000000000
     13649      4521  TIP3      H1              6.2862350248       -5.2405993232       19.3706928508  SOLV      4510            0.0000000000
     13650      4521  TIP3      H2              4.7738650248       -5.2906493232       19.3247828508  SOLV      4510            0.0000000000
     13651      4522  TIP3      OH2            11.5832850248      -10.0881893232       11.5472128508  SOLV      4511            0.0000000000
     13652      4522  TIP3      H1             12.1476250248      -10.6345293232       11.0001728508  SOLV      4511            0.0000000000
     13653      4522  TIP3      H2             11.4356250248      -10.6099993232       12.3359728508  SOLV      4511            0.0000000000
     13654      4523  TIP3      OH2             6.5852550248      -13.9515793232        7.9656928508  SOLV      4512            0.0000000000
     13655      4523  TIP3      H1              6.2682050248      -14.8540493232        7.9302328508  SOLV      4512            0.0000000000
     13656      4523  TIP3      H2              7.3666650248      -13.9498393232        7.4128528508  SOLV      4512            0.0000000000
     13657      4524  TIP3      OH2            10.2098750248      -11.6995793232       13.9612528508  SOLV      4513            0.0000000000
     13658      4524  TIP3      H1              9.3744050248      -11.2456293232       14.0714928508  SOLV      4513            0.0000000000
     13659      4524  TIP3      H2             10.7339350248      -11.4237293232       14.7132428508  SOLV      4513            0.0000000000
     13660      4525  TIP3      OH2            10.7541350248       -5.4868093232        5.6458928508  SOLV      4514            0.0000000000
     13661      4525  TIP3      H1             10.0092350248       -5.9942793232        5.3236828508  SOLV      4514            0.0000000000
     13662      4525  TIP3      H2             10.6198550248       -5.4380093232        6.5923728508  SOLV      4514            0.0000000000
     13663      4526  TIP3      OH2            17.9040250248       -6.3539893232       14.4326528508  SOLV      4515            0.0000000000
     13664      4526  TIP3      H1             18.5459050248       -5.8973593232       13.8888728508  SOLV      4515            0.0000000000
     13665      4526  TIP3      H2             17.0737150248       -6.2407493232       13.9700628508  SOLV      4515            0.0000000000
     13666      4527  TIP3      OH2            14.6518150248      -12.6728193232        3.8451528508  SOLV      4516            0.0000000000
     13667      4527  TIP3      H1             13.7132350248      -12.5612593232        3.6940328508  SOLV      4516            0.0000000000
     13668      4527  TIP3      H2             14.9490250248      -11.8161293232        4.1517228508  SOLV      4516            0.0000000000
     13669      4528  TIP3      OH2            12.2733450248       -5.3024793232       16.8828028508  SOLV      4517            0.0000000000
     13670      4528  TIP3      H1             11.9279550248       -5.6842393232       17.6897628508  SOLV      4517            0.0000000000
     13671      4528  TIP3      H2             12.0733550248       -4.3691193232       16.9540928508  SOLV      4517            0.0000000000
     13672      4529  TIP3      OH2            15.3701650248      -10.8055493232        5.5058928508  SOLV      4518            0.0000000000
     13673      4529  TIP3      H1             16.2620650248      -10.9430493232        5.8250128508  SOLV      4518            0.0000000000
     13674      4529  TIP3      H2             15.4265250248      -10.0149393232        4.9692428508  SOLV      4518            0.0000000000
     13675      4530  TIP3      OH2             5.8789650248       -6.1918093232       11.4156828508  SOLV      4519            0.0000000000
     13676      4530  TIP3      H1              6.6236850248       -6.1942393232       10.8143328508  SOLV      4519            0.0000000000
     13677      4530  TIP3      H2              5.9566250248       -7.0154293232       11.8971928508  SOLV      4519            0.0000000000
     13678      4531  TIP3      OH2            12.8795450248       -4.0283793232        4.6713528508  SOLV      4520            0.0000000000
     13679      4531  TIP3      H1             12.5843850248       -3.2015893232        5.0528328508  SOLV      4520            0.0000000000
     13680      4531  TIP3      H2             12.1765450248       -4.6476893232        4.8674928508  SOLV      4520            0.0000000000
     13681      4532  TIP3      OH2             2.8869350248       -7.7311193232       16.7305328508  SOLV      4521            0.0000000000
     13682      4532  TIP3      H1              3.1097950248       -8.1491593232       17.5622828508  SOLV      4521            0.0000000000
     13683      4532  TIP3      H2              2.2849450248       -8.3436193232       16.3078128508  SOLV      4521            0.0000000000
     13684      4533  TIP3      OH2             9.9034250248       -8.2141293232       18.9435028508  SOLV      4522            0.0000000000
     13685      4533  TIP3      H1              9.6075050248       -8.3798293232       18.0484128508  SOLV      4522            0.0000000000
     13686      4533  TIP3      H2             10.8349450248       -8.4340993232       18.9328928508  SOLV      4522            0.0000000000
     13687      4534  TIP3      OH2            14.5237050248       -2.8409293232       16.8333028508  SOLV      4523            0.0000000000
     13688      4534  TIP3      H1             13.6231350248       -2.6576693232       16.5656928508  SOLV      4523            0.0000000000
     13689      4534  TIP3      H2             14.5578150248       -2.5819993232       17.7541828508  SOLV      4523            0.0000000000
     13690      4535  TIP3      OH2            20.2550350248      -10.5961393232        5.2005628508  SOLV      4524            0.0000000000
     13691      4535  TIP3      H1             19.7006650248      -10.9923393232        4.5283128508  SOLV      4524            0.0000000000
     13692      4535  TIP3      H2             20.3553950248       -9.6856193232        4.9228928508  SOLV      4524            0.0000000000
     13693      4536  TIP3      OH2            20.2182350248       -4.7959693232       18.0377128508  SOLV      4525            0.0000000000
     13694      4536  TIP3      H1             19.3670850248       -4.5575893232       17.6703528508  SOLV      4525            0.0000000000
     13695      4536  TIP3      H2             20.8085750248       -4.8126493232       17.2844228508  SOLV      4525            0.0000000000
     13696      4537  TIP3      OH2            18.5502050248       -1.8100993232        5.6657728508  SOLV      4526            0.0000000000
     13697      4537  TIP3      H1             18.1773150248       -2.6357193232        5.9748328508  SOLV      4526            0.0000000000
     13698      4537  TIP3      H2             18.8275550248       -1.9931593232        4.7681128508  SOLV      4526            0.0000000000
     13699      4538  TIP3      OH2             8.2539050248       -2.6739893232        8.8198328508  SOLV      4527            0.0000000000
     13700      4538  TIP3      H1              8.7811250248       -1.9005493232        8.6197128508  SOLV      4527            0.0000000000
     13701      4538  TIP3      H2              7.3737550248       -2.4490693232        8.5182328508  SOLV      4527            0.0000000000
     13702      4539  TIP3      OH2             4.0086750248       -7.8115793232        3.4070728508  SOLV      4528            0.0000000000
     13703      4539  TIP3      H1              4.6246650248       -7.1848593232        3.7865528508  SOLV      4528            0.0000000000
     13704      4539  TIP3      H2              3.1469350248       -7.4955993232        3.6787228508  SOLV      4528            0.0000000000
     13705      4540  TIP3      OH2             9.6811350248       -5.0109993232        8.3962628508  SOLV      4529            0.0000000000
     13706      4540  TIP3      H1              9.4401350248       -4.0855593232        8.4377928508  SOLV      4529            0.0000000000
     13707      4540  TIP3      H2              8.9404950248       -5.4698693232        8.7926528508  SOLV      4529            0.0000000000
     13708      4541  TIP3      OH2            10.1957950248       -0.8616393232       14.7113728508  SOLV      4530            0.0000000000
     13709      4541  TIP3      H1             10.5582650248       -0.0070793232       14.4778128508  SOLV      4530            0.0000000000
     13710      4541  TIP3      H2             10.7273150248       -1.1534793232       15.4520028508  SOLV      4530            0.0000000000
     13711      4542  TIP3      OH2             8.3642150248        0.0107606768        7.9414828508  SOLV      4531            0.0000000000
     13712      4542  TIP3      H1              7.4142650248        0.1165006768        7.9928128508  SOLV      4531            0.0000000000
     13713      4542  TIP3      H2              8.7160250248        0.8315006768        8.2862328508  SOLV      4531            0.0000000000
     13714      4543  TIP3      OH2            13.7398750248       -4.7625693232       14.4119328508  SOLV      4532            0.0000000000
     13715      4543  TIP3      H1             13.3140050248       -4.9903993232       15.2383328508  SOLV      4532            0.0000000000
     13716      4543  TIP3      H2             14.3204550248       -5.5013893232       14.2294628508  SOLV      4532            0.0000000000
     13717      4544  TIP3      OH2            15.9427650248       -3.8335193232        3.4858328508  SOLV      4533            0.0000000000
     13718      4544  TIP3      H1             16.2960750248       -4.2135393232        4.2901828508  SOLV      4533            0.0000000000
     13719      4544  TIP3      H2             14.9941150248       -3.9270393232        3.5727628508  SOLV      4533            0.0000000000
     13720      4545  TIP3      OH2            16.3982950248       -0.2106193232       16.8814128508  SOLV      4534            0.0000000000
     13721      4545  TIP3      H1             15.7966150248       -0.7663293232       16.3860428508  SOLV      4534            0.0000000000
     13722      4545  TIP3      H2             16.6796650248        0.4563606768       16.2551528508  SOLV      4534            0.0000000000
     13723      4546  TIP3      OH2            20.4462050248        0.6457306768        3.6868528508  SOLV      4535            0.0000000000
     13724      4546  TIP3      H1             21.1899950248        1.2317806768        3.5470128508  SOLV      4535            0.0000000000
     13725      4546  TIP3      H2             19.7520150248        1.2143106768        4.0200928508  SOLV      4535            0.0000000000
     13726      4547  TIP3      OH2             4.5208850248      -12.9778493232       16.2886728508  SOLV      4536            0.0000000000
     13727      4547  TIP3      H1              3.6281150248      -12.6393093232       16.2210728508  SOLV      4536            0.0000000000
     13728      4547  TIP3      H2              4.4221650248      -13.8332393232       16.7067528508  SOLV      4536            0.0000000000
     13729      4548  TIP3      OH2            16.8086950248       -5.1613193232        5.7126228508  SOLV      4537            0.0000000000
     13730      4548  TIP3      H1             16.5314550248       -5.8893893232        6.2687328508  SOLV      4537            0.0000000000
     13731      4548  TIP3      H2             17.7359950248       -5.0421193232        5.9178828508  SOLV      4537            0.0000000000
     13732      4549  TIP3      OH2             4.1720850248       -1.1734093232       14.7236128508  SOLV      4538            0.0000000000
     13733      4549  TIP3      H1              4.3891150248       -2.1051693232       14.6925828508  SOLV      4538            0.0000000000
     13734      4549  TIP3      H2              4.4184350248       -0.8989093232       15.6068928508  SOLV      4538            0.0000000000
     13735      4550  TIP3      OH2             8.9706050248       -3.1515293232        4.3890928508  SOLV      4539            0.0000000000
     13736      4550  TIP3      H1              9.1174050248       -3.6715493232        5.1791828508  SOLV      4539            0.0000000000
     13737      4550  TIP3      H2              8.9677750248       -2.2447693232        4.6956828508  SOLV      4539            0.0000000000
     13738      4551  TIP3      OH2             5.4237150248       -5.8991993232        4.8996328508  SOLV      4540            0.0000000000
     13739      4551  TIP3      H1              4.7376450248       -5.5469493232        5.4666028508  SOLV      4540            0.0000000000
     13740      4551  TIP3      H2              5.9465050248       -5.1362393232        4.6530628508  SOLV      4540            0.0000000000
     13741      4552  TIP3      OH2            13.2552250248      -13.2368193232       15.1785328508  SOLV      4541            0.0000000000
     13742      4552  TIP3      H1             13.9540150248      -13.1629493232       15.8285028508  SOLV      4541            0.0000000000
     13743      4552  TIP3      H2             12.8743650248      -14.1013193232       15.3328228508  SOLV      4541            0.0000000000
     13744      4553  TIP3      OH2            14.0397150248      -13.5846493232        6.2757628508  SOLV      4542            0.0000000000
     13745      4553  TIP3      H1             14.2595450248      -13.1131093232        5.4723028508  SOLV      4542            0.0000000000
     13746      4553  TIP3      H2             14.5981150248      -13.1903893232        6.9458228508  SOLV      4542            0.0000000000
     13747      4554  TIP3      OH2            11.7083250248       -1.4541693232        5.1385128508  SOLV      4543            0.0000000000
     13748      4554  TIP3      H1             10.8919350248       -0.9571993232        5.1909428508  SOLV      4543            0.0000000000
     13749      4554  TIP3      H2             12.2379550248       -0.9788193232        4.4983928508  SOLV      4543            0.0000000000
     13750      4555  TIP3      OH2            11.2397050248      -11.8567693232        7.1106028508  SOLV      4544            0.0000000000
     13751      4555  TIP3      H1             12.0519650248      -11.3524493232        7.1567728508  SOLV      4544            0.0000000000
     13752      4555  TIP3      H2             10.9950050248      -12.0017993232        8.0245628508  SOLV      4544            0.0000000000
     13753      4556  TIP3      OH2            11.7753450248      -10.8704993232       16.2952628508  SOLV      4545            0.0000000000
     13754      4556  TIP3      H1             11.8943750248      -10.2969593232       17.0523028508  SOLV      4545            0.0000000000
     13755      4556  TIP3      H2             12.4308050248      -11.5585593232       16.4100428508  SOLV      4545            0.0000000000
     13756      4557  TIP3      OH2            12.1233750248      -14.7754693232        8.0487128508  SOLV      4546            0.0000000000
     13757      4557  TIP3      H1             11.7767250248      -14.1584093232        8.6931428508  SOLV      4546            0.0000000000
     13758      4557  TIP3      H2             12.7820650248      -14.2748993232        7.5672628508  SOLV      4546            0.0000000000
     13759      4558  TIP3      OH2             7.7810750248      -13.7125293232        4.7359628508  SOLV      4547            0.0000000000
     13760      4558  TIP3      H1              7.6975550248      -12.8242193232        5.0826028508  SOLV      4547            0.0000000000
     13761      4558  TIP3      H2              8.6711050248      -13.9778593232        4.9676428508  SOLV      4547            0.0000000000
     13762      4559  TIP3      OH2             6.0396050248       -3.2853093232        3.7964128508  SOLV      4548            0.0000000000
     13763      4559  TIP3      H1              6.6317550248       -2.5858293232        4.0726528508  SOLV      4548            0.0000000000
     13764      4559  TIP3      H2              6.4989050248       -3.7183593232        3.0768728508  SOLV      4548            0.0000000000
     13765      4560  TIP3      OH2             4.3555250248      -10.6210093232        2.9123528508  SOLV      4549            0.0000000000
     13766      4560  TIP3      H1              4.3107850248       -9.6816993232        3.0910528508  SOLV      4549            0.0000000000
     13767      4560  TIP3      H2              3.4678450248      -10.8565193232        2.6425628508  SOLV      4549            0.0000000000
     13768      4561  TIP3      OH2            17.6684850248        0.0428806768       12.8483128508  SOLV      4550            0.0000000000
     13769      4561  TIP3      H1             17.5129150248        0.7213206768       12.1912428508  SOLV      4550            0.0000000000
     13770      4561  TIP3      H2             18.6011250248        0.1148106768       13.0513728508  SOLV      4550            0.0000000000
     13771      4562  TIP3      OH2             5.1637250248      -15.8393493232       11.5854528508  SOLV      4551            0.0000000000
     13772      4562  TIP3      H1              4.9347050248      -15.7800993232       10.6579528508  SOLV      4551            0.0000000000
     13773      4562  TIP3      H2              4.7210650248      -16.6307993232       11.8918628508  SOLV      4551            0.0000000000
     13774      4563  TIP3      OH2             4.0940550248       -1.8986393232        7.7460328508  SOLV      4552            0.0000000000
     13775      4563  TIP3      H1              3.2619150248       -1.4263693232        7.7731728508  SOLV      4552            0.0000000000
     13776      4563  TIP3      H2              4.6398850248       -1.3888793232        7.1473428508  SOLV      4552            0.0000000000
     13777      4564  TIP3      OH2             3.3824250248        0.7137306768       19.0758328508  SOLV      4553            0.0000000000
     13778      4564  TIP3      H1              3.9226450248        0.4971306768       19.8357528508  SOLV      4553            0.0000000000
     13779      4564  TIP3      H2              2.9012250248       -0.0916693232       18.8860828508  SOLV      4553            0.0000000000
     13780      4565  TIP3      OH2             7.9797650248       -0.3668293232       20.6962528508  SOLV      4554            0.0000000000
     13781      4565  TIP3      H1              8.7474850248       -0.8257493232       21.0371728508  SOLV      4554            0.0000000000
     13782      4565  TIP3      H2              7.9583850248       -0.5928493232       19.7663728508  SOLV      4554            0.0000000000
     13783      4566  TIP3      OH2            14.5566350248       -1.9867193232       19.4254028508  SOLV      4555            0.0000000000
     13784      4566  TIP3      H1             14.2055850248       -2.8434193232       19.6684428508  SOLV      4555            0.0000000000
     13785      4566  TIP3      H2             15.2829550248       -1.8440493232       20.0323028508  SOLV      4555            0.0000000000
     13786      4567  TIP3      OH2            16.6760150248       -1.0417793232        2.3052328508  SOLV      4556            0.0000000000
     13787      4567  TIP3      H1             16.9590550248       -1.8362593232        2.7579228508  SOLV      4556            0.0000000000
     13788      4567  TIP3      H2             17.4158050248       -0.8086793232        1.7443428508  SOLV      4556            0.0000000000
     13789      4568  TIP3      OH2             3.2893750248       -5.4758593232       20.0302628508  SOLV      4557            0.0000000000
     13790      4568  TIP3      H1              3.4334250248       -6.3777893232       19.7439328508  SOLV      4557            0.0000000000
     13791      4568  TIP3      H2              2.5171150248       -5.1896493232       19.5424928508  SOLV      4557            0.0000000000
     13792      4569  TIP3      OH2             9.9449850248       -5.5060493232       19.4629028508  SOLV      4558            0.0000000000
     13793      4569  TIP3      H1              9.6163650248       -5.2352393232       18.6056428508  SOLV      4558            0.0000000000
     13794      4569  TIP3      H2             10.0968050248       -6.4470693232       19.3754028508  SOLV      4558            0.0000000000
     13795      4570  TIP3      OH2            12.9830850248       -4.0851193232        1.8985228508  SOLV      4559            0.0000000000
     13796      4570  TIP3      H1             12.7144950248       -3.9049093232        2.7994128508  SOLV      4559            0.0000000000
     13797      4570  TIP3      H2             12.7766450248       -5.0104993232        1.7671028508  SOLV      4559            0.0000000000
     13798      4571  TIP3      OH2            15.6795050248       -5.5903193232       16.8461328508  SOLV      4560            0.0000000000
     13799      4571  TIP3      H1             16.4249850248       -5.0019493232       16.7265328508  SOLV      4560            0.0000000000
     13800      4571  TIP3      H2             14.9221850248       -5.0083493232       16.9094428508  SOLV      4560            0.0000000000
     13801      4572  TIP3      OH2             4.1220250248       -8.2755293232       19.4501928508  SOLV      4561            0.0000000000
     13802      4572  TIP3      H1              4.5301450248       -9.1328693232       19.3292528508  SOLV      4561            0.0000000000
     13803      4572  TIP3      H2              3.8617850248       -8.2613993232       20.3712228508  SOLV      4561            0.0000000000
     13804      4573  TIP3      OH2             8.7801250248       -7.1596693232        4.4685228508  SOLV      4562            0.0000000000
     13805      4573  TIP3      H1              8.3203250248       -7.6438393232        5.1543728508  SOLV      4562            0.0000000000
     13806      4573  TIP3      H2              9.0349950248       -7.8281293232        3.8325728508  SOLV      4562            0.0000000000
     13807      4574  TIP3      OH2             8.0690550248       -9.2669593232       16.8244828508  SOLV      4563            0.0000000000
     13808      4574  TIP3      H1              7.4506650248       -8.5922993232       17.1049528508  SOLV      4563            0.0000000000
     13809      4574  TIP3      H2              8.4131750248       -8.9455693232       15.9911028508  SOLV      4563            0.0000000000
     13810      4575  TIP3      OH2             9.8511650248       -8.9164893232        2.7308428508  SOLV      4564            0.0000000000
     13811      4575  TIP3      H1              9.6706650248       -9.0713693232        1.8036728508  SOLV      4564            0.0000000000
     13812      4575  TIP3      H2             10.8012150248       -8.8086193232        2.7756328508  SOLV      4564            0.0000000000
     13813      4576  TIP3      OH2            13.0888750248       -6.7954293232       20.1019628508  SOLV      4565            0.0000000000
     13814      4576  TIP3      H1             14.0419950248       -6.7115193232       20.0745628508  SOLV      4565            0.0000000000
     13815      4576  TIP3      H2             12.9283350248       -7.5072493232       20.7214528508  SOLV      4565            0.0000000000
     13816      4577  TIP3      OH2            19.2409950248       -6.5620693232        2.1766528508  SOLV      4566            0.0000000000
     13817      4577  TIP3      H1             18.9674750248       -6.9865193232        1.3634828508  SOLV      4566            0.0000000000
     13818      4577  TIP3      H2             19.2804050248       -5.6306193232        1.9596928508  SOLV      4566            0.0000000000
     13819      4578  TIP3      OH2             8.4084250248      -11.9118793232       17.9067928508  SOLV      4567            0.0000000000
     13820      4578  TIP3      H1              8.5585150248      -12.6407493232       17.3047628508  SOLV      4567            0.0000000000
     13821      4578  TIP3      H2              8.4106650248      -11.1347093232       17.3480128508  SOLV      4567            0.0000000000
     13822      4579  TIP3      OH2             8.8209950248      -13.5422993232       15.3995328508  SOLV      4568            0.0000000000
     13823      4579  TIP3      H1              9.3567450248      -13.0906293232       14.7474628508  SOLV      4568            0.0000000000
     13824      4579  TIP3      H2              7.9689550248      -13.6503193232       14.9769428508  SOLV      4568            0.0000000000
     13825      4580  TIP3      OH2            10.4028350248       -8.1026793232       15.6390528508  SOLV      4569            0.0000000000
     13826      4580  TIP3      H1             11.1533150248       -8.2589293232       15.0658328508  SOLV      4569            0.0000000000
     13827      4580  TIP3      H2             10.0636650248       -7.2510193232       15.3636028508  SOLV      4569            0.0000000000
     13828      4581  TIP3      OH2            14.8184550248      -10.2874993232       20.6675828508  SOLV      4570            0.0000000000
     13829      4581  TIP3      H1             15.0105850248      -11.2185593232       20.5560328508  SOLV      4570            0.0000000000
     13830      4581  TIP3      H2             15.6760850248       -9.8625493232       20.6571228508  SOLV      4570            0.0000000000
     13831      4582  TIP3      OH2            16.1351750248       -7.4989793232       18.7448528508  SOLV      4571            0.0000000000
     13832      4582  TIP3      H1             15.8536750248       -6.7895193232       18.1672328508  SOLV      4571            0.0000000000
     13833      4582  TIP3      H2             17.0776050248       -7.5716793232       18.5939728508  SOLV      4571            0.0000000000
     13834      4583  TIP3      OH2             6.8870550248      -10.7135293232       19.8183528508  SOLV      4572            0.0000000000
     13835      4583  TIP3      H1              6.1199550248      -11.2460493232       19.6081128508  SOLV      4572            0.0000000000
     13836      4583  TIP3      H2              7.5659550248      -11.0234893232       19.2189828508  SOLV      4572            0.0000000000
     13837      4584  TIP3      OH2             9.6265450248      -16.0857293232       15.8308928508  SOLV      4573            0.0000000000
     13838      4584  TIP3      H1              9.5285050248      -15.1394093232       15.7255128508  SOLV      4573            0.0000000000
     13839      4584  TIP3      H2              8.8841650248      -16.4583493232       15.3552428508  SOLV      4573            0.0000000000
     13840      4585  TIP3      OH2            10.8905950248      -11.7641893232       19.3947328508  SOLV      4574            0.0000000000
     13841      4585  TIP3      H1             10.6551350248      -11.9835193232       20.2962228508  SOLV      4574            0.0000000000
     13842      4585  TIP3      H2             10.1072850248      -11.9710693232       18.8849828508  SOLV      4574            0.0000000000
     13843      4586  TIP3      OH2            13.6062550248      -12.6368393232       18.4700828508  SOLV      4575            0.0000000000
     13844      4586  TIP3      H1             12.6587950248      -12.6048693232       18.6024128508  SOLV      4575            0.0000000000
     13845      4586  TIP3      H2             13.9189250248      -13.2621293232       19.1239028508  SOLV      4575            0.0000000000
     13846      4587  TIP3      OH2            15.2404050248      -14.0027293232       20.4752728508  SOLV      4576            0.0000000000
     13847      4587  TIP3      H1             15.1435850248      -14.9549993232       20.4694628508  SOLV      4576            0.0000000000
     13848      4587  TIP3      H2             14.9187150248      -13.7340493232       21.3358228508  SOLV      4576            0.0000000000
     13849      4588  TIP3      OH2             5.0673350248      -12.7931493232       19.5228228508  SOLV      4577            0.0000000000
     13850      4588  TIP3      H1              5.2790750248      -13.4995393232       18.9125728508  SOLV      4577            0.0000000000
     13851      4588  TIP3      H2              4.9560850248      -13.2305493232       20.3669428508  SOLV      4577            0.0000000000
     13852      4589  TIP3      OH2            10.2021050248      -15.1091493232       20.5558028508  SOLV      4578            0.0000000000
     13853      4589  TIP3      H1             10.0703250248      -15.5847693232       19.7356528508  SOLV      4578            0.0000000000
     13854      4589  TIP3      H2              9.6028450248      -14.3647893232       20.5005128508  SOLV      4578            0.0000000000
     13855      4590  TIP3      OH2             3.3168250248       -3.5897393232        3.2150128508  SOLV      4579            0.0000000000
     13856      4590  TIP3      H1              4.2307450248       -3.5108493232        3.4884028508  SOLV      4579            0.0000000000
     13857      4590  TIP3      H2              3.3241350248       -4.2767793232        2.5485728508  SOLV      4579            0.0000000000
     13858      4591  TIP3      OH2             1.9658850248        1.8031106768        8.2924028508  SOLV      4580            0.0000000000
     13859      4591  TIP3      H1              1.3185950248        1.3412806768        7.7595228508  SOLV      4580            0.0000000000
     13860      4591  TIP3      H2              2.3203450248        1.1314406768        8.8750228508  SOLV      4580            0.0000000000
     13861      4592  TIP3      OH2             2.8358050248       -0.1161893232       10.0970228508  SOLV      4581            0.0000000000
     13862      4592  TIP3      H1              2.5014850248       -0.9964593232       10.2690428508  SOLV      4581            0.0000000000
     13863      4592  TIP3      H2              3.0580450248        0.2293106768       10.9615828508  SOLV      4581            0.0000000000
     13864      4593  TIP3      OH2            20.3842850248        0.6934506768       13.0775028508  SOLV      4582            0.0000000000
     13865      4593  TIP3      H1             20.3629550248        0.8782906768       14.0164428508  SOLV      4582            0.0000000000
     13866      4593  TIP3      H2             21.0749050248        1.2618506768       12.7366428508  SOLV      4582            0.0000000000
     13867      4594  TIP3      OH2            19.9475750248        0.2605606768       15.9994128508  SOLV      4583            0.0000000000
     13868      4594  TIP3      H1             19.4604450248       -0.4750293232       15.6281528508  SOLV      4583            0.0000000000
     13869      4594  TIP3      H2             20.4968450248       -0.1330493232       16.6773528508  SOLV      4583            0.0000000000
     13870      4595  TIP3      OH2            18.3983050248       -3.9496293232       20.6374428508  SOLV      4584            0.0000000000
     13871      4595  TIP3      H1             17.5324150248       -4.0546593232       21.0316728508  SOLV      4584            0.0000000000
     13872      4595  TIP3      H2             18.7748950248       -3.1912993232       21.0839128508  SOLV      4584            0.0000000000
     13873      4596  TIP3      OH2            19.6992750248       -5.6932593232        6.1516928508  SOLV      4585            0.0000000000
     13874      4596  TIP3      H1             20.5494150248       -5.2721693232        6.2788528508  SOLV      4585            0.0000000000
     13875      4596  TIP3      H2             19.7047850248       -6.4332493232        6.7588328508  SOLV      4585            0.0000000000
     13876      4597  TIP3      OH2            20.0938350248       -7.6395193232        7.9752628508  SOLV      4586            0.0000000000
     13877      4597  TIP3      H1             19.3672950248       -8.1192593232        8.3730228508  SOLV      4586            0.0000000000
     13878      4597  TIP3      H2             20.6751650248       -7.4340493232        8.7074228508  SOLV      4586            0.0000000000
     13879      4598  TIP3      OH2            19.8529550248       -4.8547693232       12.9230228508  SOLV      4587            0.0000000000
     13880      4598  TIP3      H1             20.6863750248       -5.2327693232       12.6423828508  SOLV      4587            0.0000000000
     13881      4598  TIP3      H2             19.9649850248       -3.9116493232       12.8039328508  SOLV      4587            0.0000000000
     13882      4599  TIP3      OH2            18.3391850248       -1.9770193232       15.2298628508  SOLV      4588            0.0000000000
     13883      4599  TIP3      H1             17.6917150248       -1.6518693232       15.8553828508  SOLV      4588            0.0000000000
     13884      4599  TIP3      H2             17.8215850248       -2.4172493232       14.5556928508  SOLV      4588            0.0000000000
     13885      4600  TIP3      OH2            20.3621450248       -7.7386693232        4.3663928508  SOLV      4589            0.0000000000
     13886      4600  TIP3      H1             19.8402550248       -7.3822593232        3.6474828508  SOLV      4589            0.0000000000
     13887      4600  TIP3      H2             20.3290650248       -7.0638893232        5.0444828508  SOLV      4589            0.0000000000
     13888      4601  TIP3      OH2            18.7110450248      -10.4991093232        2.9171028508  SOLV      4590            0.0000000000
     13889      4601  TIP3      H1             18.8074850248       -9.8324093232        2.2370728508  SOLV      4590            0.0000000000
     13890      4601  TIP3      H2             18.5710050248      -11.3144793232        2.4356528508  SOLV      4590            0.0000000000
     13891      4602  TIP3      OH2            17.8805150248       -9.1188693232        8.5381328508  SOLV      4591            0.0000000000
     13892      4602  TIP3      H1             17.7303950248      -10.0640093232        8.5179128508  SOLV      4591            0.0000000000
     13893      4602  TIP3      H2             17.5269650248       -8.8377293232        9.3820428508  SOLV      4591            0.0000000000
     13894      4603  TIP3      OH2             2.9157550248       -7.0406493232       12.5485128508  SOLV      4592            0.0000000000
     13895      4603  TIP3      H1              3.1000450248       -7.1224793232       11.6128028508  SOLV      4592            0.0000000000
     13896      4603  TIP3      H2              3.7650450248       -7.1649493232       12.9721528508  SOLV      4592            0.0000000000
     13897      4604  TIP3      OH2            18.7368050248       -7.1485393232       18.1769628508  SOLV      4593            0.0000000000
     13898      4604  TIP3      H1             19.3195350248       -7.8833093232       18.3686828508  SOLV      4593            0.0000000000
     13899      4604  TIP3      H2             19.3007350248       -6.3765093232       18.2235428508  SOLV      4593            0.0000000000
     13900      4605  TIP3      OH2            20.2335150248       -9.2459593232       18.8615028508  SOLV      4594            0.0000000000
     13901      4605  TIP3      H1             19.3701850248       -9.6247493232       18.6959728508  SOLV      4594            0.0000000000
     13902      4605  TIP3      H2             20.8378850248       -9.9844793232       18.7870828508  SOLV      4594            0.0000000000
     13903      4606  TIP3      OH2            17.9584250248      -13.0911293232        2.0346528508  SOLV      4595            0.0000000000
     13904      4606  TIP3      H1             18.5690050248      -13.4624493232        2.6714728508  SOLV      4595            0.0000000000
     13905      4606  TIP3      H2             17.1215750248      -13.5124393232        2.2306528508  SOLV      4595            0.0000000000
     13906      4607  TIP3      OH2            17.5909950248      -11.5362893232        7.0006428508  SOLV      4596            0.0000000000
     13907      4607  TIP3      H1             17.8707050248      -12.4432493232        7.1248128508  SOLV      4596            0.0000000000
     13908      4607  TIP3      H2             18.3501650248      -11.1021393232        6.6115628508  SOLV      4596            0.0000000000
     13909      4608  TIP3      OH2            18.2320150248      -10.2180193232       15.2124728508  SOLV      4597            0.0000000000
     13910      4608  TIP3      H1             17.3891450248       -9.9499793232       15.5784528508  SOLV      4597            0.0000000000
     13911      4608  TIP3      H2             18.6744450248       -9.3958293232       15.0015828508  SOLV      4597            0.0000000000
     13912      4609  TIP3      OH2             2.5132350248      -11.7701493232       18.6893928508  SOLV      4598            0.0000000000
     13913      4609  TIP3      H1              3.4327250248      -11.8923193232       18.9257028508  SOLV      4598            0.0000000000
     13914      4609  TIP3      H2              2.0636850248      -12.5201793232       19.0787428508  SOLV      4598            0.0000000000
     13915      4610  TIP3      OH2            20.5151750248      -16.2379993232       20.5659728508  SOLV      4599            0.0000000000
     13916      4610  TIP3      H1             20.8648750248      -16.8916493232       19.9604428508  SOLV      4599            0.0000000000
     13917      4610  TIP3      H2             20.6621250248      -15.4005893232       20.1262328508  SOLV      4599            0.0000000000
     13918      4611  TIP3      OH2            18.2044750248      -14.2733593232        7.0488428508  SOLV      4600            0.0000000000
     13919      4611  TIP3      H1             18.3869750248      -14.7222093232        7.8743428508  SOLV      4600            0.0000000000
     13920      4611  TIP3      H2             17.6047650248      -14.8579193232        6.5853028508  SOLV      4600            0.0000000000
     13921      4612  TIP3      OH2             3.7344850248      -13.4579893232       11.5806828508  SOLV      4601            0.0000000000
     13922      4612  TIP3      H1              4.1796450248      -14.2497393232       11.8826528508  SOLV      4601            0.0000000000
     13923      4612  TIP3      H2              4.2007850248      -12.7414693232       12.0112428508  SOLV      4601            0.0000000000
     13924      4613  TIP3      OH2             2.0385150248      -10.4586893232       12.6497028508  SOLV      4602            0.0000000000
     13925      4613  TIP3      H1              2.5304950248      -10.6796393232       11.8589028508  SOLV      4602            0.0000000000
     13926      4613  TIP3      H2              2.4006050248       -9.6183493232       12.9306528508  SOLV      4602            0.0000000000
     13927      4614  TIP3      OH2            20.0348950248      -14.1285393232       18.9151028508  SOLV      4603            0.0000000000
     13928      4614  TIP3      H1             19.1174650248      -13.8578293232       18.8794528508  SOLV      4603            0.0000000000
     13929      4614  TIP3      H2             20.1578350248      -14.6636993232       18.1310728508  SOLV      4603            0.0000000000
     13930      4615  TIP3      OH2            20.0710950248      -14.2055493232        3.5768728508  SOLV      4604            0.0000000000
     13931      4615  TIP3      H1             20.4833550248      -14.9269793232        3.1016728508  SOLV      4604            0.0000000000
     13932      4615  TIP3      H2             20.7527450248      -13.5360893232        3.6353028508  SOLV      4604            0.0000000000
     13933      4616  TIP3      OH2             2.3521650248      -14.2007793232        6.7039428508  SOLV      4605            0.0000000000
     13934      4616  TIP3      H1              1.4270050248      -13.9921193232        6.5744928508  SOLV      4605            0.0000000000
     13935      4616  TIP3      H2              2.8061550248      -13.7166993232        6.0141728508  SOLV      4605            0.0000000000
     13936      4617  TIP3      OH2            17.1228850248        0.7833906768        8.6496828508  SOLV      4606            0.0000000000
     13937      4617  TIP3      H1             17.7751750248        0.4356006768        8.0415928508  SOLV      4606            0.0000000000
     13938      4617  TIP3      H2             17.6332650248        1.2717106768        9.2956528508  SOLV      4606            0.0000000000
     13939      4618  TIP3      OH2             2.3157050248      -15.4628793232       15.0481928508  SOLV      4607            0.0000000000
     13940      4618  TIP3      H1              1.6507550248      -15.7088493232       15.6912828508  SOLV      4607            0.0000000000
     13941      4618  TIP3      H2              1.8728350248      -14.8408393232       14.4709928508  SOLV      4607            0.0000000000
     13942      4619  TIP3      OH2             4.5076350248       -2.2874693232       19.1927728508  SOLV      4608            0.0000000000
     13943      4619  TIP3      H1              3.6868850248       -2.1128193232       18.7322428508  SOLV      4608            0.0000000000
     13944      4619  TIP3      H2              4.2554150248       -2.3609993232       20.1132128508  SOLV      4608            0.0000000000
     13945      4620  TIP3      OH2             7.4619250248       -1.3133493232       15.4511728508  SOLV      4609            0.0000000000
     13946      4620  TIP3      H1              7.0370350248       -0.5034993232       15.1686328508  SOLV      4609            0.0000000000
     13947      4620  TIP3      H2              8.3662050248       -1.2279393232       15.1491528508  SOLV      4609            0.0000000000
     13948      4621  TIP3      OH2            11.7730650248        0.0856506768       18.4105428508  SOLV      4610            0.0000000000
     13949      4621  TIP3      H1             11.9578150248       -0.2477393232       19.2885728508  SOLV      4610            0.0000000000
     13950      4621  TIP3      H2             12.6195150248        0.3955106768       18.0884628508  SOLV      4610            0.0000000000
     13951      4622  TIP3      OH2            14.1181050248        1.3715406768       17.6546828508  SOLV      4611            0.0000000000
     13952      4622  TIP3      H1             14.7949950248        0.7387706768       17.4146028508  SOLV      4611            0.0000000000
     13953      4622  TIP3      H2             14.4399850248        1.7725906768       18.4620128508  SOLV      4611            0.0000000000
     13954      4623  TIP3      OH2            19.0354850248      -16.0389093232       16.7341828508  SOLV      4612            0.0000000000
     13955      4623  TIP3      H1             18.2228350248      -15.7138793232       16.3466528508  SOLV      4612            0.0000000000
     13956      4623  TIP3      H2             19.2683350248      -16.7990593232       16.2010928508  SOLV      4612            0.0000000000
     13957      4624  TIP3      OH2             4.8635950248        1.9430406768       15.4987028508  SOLV      4613            0.0000000000
     13958      4624  TIP3      H1              4.1432350248        2.3831406768       15.0474728508  SOLV      4613            0.0000000000
     13959      4624  TIP3      H2              4.4979950248        1.6925106768       16.3471028508  SOLV      4613            0.0000000000
     13960      4625  TIP3      OH2             7.3308550248        1.5434306768       14.5284228508  SOLV      4614            0.0000000000
     13961      4625  TIP3      H1              6.4660750248        1.6152806768       14.9324328508  SOLV      4614            0.0000000000
     13962      4625  TIP3      H2              7.2757550248        2.0901606768       13.7446728508  SOLV      4614            0.0000000000
     13963      4626  TIP3      OH2            12.0414150248        1.4313206768       13.7040228508  SOLV      4615            0.0000000000
     13964      4626  TIP3      H1             11.5848150248        1.9602906768       13.0498628508  SOLV      4615            0.0000000000
     13965      4626  TIP3      H2             12.2042150248        2.0344606768       14.4292528508  SOLV      4615            0.0000000000
     13966      4627  TIP3      OH2            14.3690450248        0.3092806768       14.6490528508  SOLV      4616            0.0000000000
     13967      4627  TIP3      H1             13.4644150248        0.4743006768       14.3832628508  SOLV      4616            0.0000000000
     13968      4627  TIP3      H2             14.7979050248        1.1625006768       14.5833928508  SOLV      4616            0.0000000000
     13969      4628  TIP3      OH2            16.9732350248        1.8791906768       14.9438328508  SOLV      4617            0.0000000000
     13970      4628  TIP3      H1             16.7914350248        2.7950806768       14.7333228508  SOLV      4617            0.0000000000
     13971      4628  TIP3      H2             17.1500150248        1.4689006768       14.0972928508  SOLV      4617            0.0000000000
     13972      4629  TIP3      OH2             4.2784050248        0.5662906768       12.4088828508  SOLV      4618            0.0000000000
     13973      4629  TIP3      H1              4.2600050248        0.1408006768       13.2661128508  SOLV      4618            0.0000000000
     13974      4629  TIP3      H2              5.0831950248        0.2477906768       12.0001028508  SOLV      4618            0.0000000000
     13975      4630  TIP3      OH2             6.4197150248       -0.7238393232       11.0638728508  SOLV      4619            0.0000000000
     13976      4630  TIP3      H1              6.2007850248       -1.6400993232       11.2334728508  SOLV      4619            0.0000000000
     13977      4630  TIP3      H2              7.2439350248       -0.5837993232       11.5300128508  SOLV      4619            0.0000000000
     13978      4631  TIP3      OH2             8.9569650248       -0.2539093232       11.9126728508  SOLV      4620            0.0000000000
     13979      4631  TIP3      H1              9.1695350248       -1.1420093232       11.6257628508  SOLV      4620            0.0000000000
     13980      4631  TIP3      H2              9.0214750248       -0.2881393232       12.8670728508  SOLV      4620            0.0000000000
     13981      4632  TIP3      OH2            12.4653350248      -14.5898493232       11.0570028508  SOLV      4621            0.0000000000
     13982      4632  TIP3      H1             11.7910150248      -15.2192893232       11.3125828508  SOLV      4621            0.0000000000
     13983      4632  TIP3      H2             13.0292550248      -15.0739593232       10.4537928508  SOLV      4621            0.0000000000
     13984      4633  TIP3      OH2            17.6080550248      -16.4824493232       11.1697128508  SOLV      4622            0.0000000000
     13985      4633  TIP3      H1             18.2118150248      -15.9349093232       10.6678128508  SOLV      4622            0.0000000000
     13986      4633  TIP3      H2             16.7382550248      -16.1634093232       10.9291228508  SOLV      4622            0.0000000000
     13987      4634  TIP3      OH2            19.3350950248      -15.3435793232        9.5028028508  SOLV      4623            0.0000000000
     13988      4634  TIP3      H1             19.9468450248      -15.8580093232        8.9761628508  SOLV      4623            0.0000000000
     13989      4634  TIP3      H2             19.7174350248      -14.4663693232        9.5262428508  SOLV      4623            0.0000000000
     13990      4635  TIP3      OH2             4.7920850248      -15.9558193232        8.8789928508  SOLV      4624            0.0000000000
     13991      4635  TIP3      H1              4.0150650248      -16.1903293232        8.3715828508  SOLV      4624            0.0000000000
     13992      4635  TIP3      H2              5.3224450248      -16.7526093232        8.8877928508  SOLV      4624            0.0000000000
     13993      4636  TIP3      OH2             3.6284250248      -16.1580093232        4.6826028508  SOLV      4625            0.0000000000
     13994      4636  TIP3      H1              4.0674950248      -15.5469593232        4.0909528508  SOLV      4625            0.0000000000
     13995      4636  TIP3      H2              2.9946650248      -15.6195993232        5.1566028508  SOLV      4625            0.0000000000
     13996      4637  TIP3      OH2             9.3713450248      -16.0291093232        8.6923028508  SOLV      4626            0.0000000000
     13997      4637  TIP3      H1             10.2456850248      -15.6406793232        8.6627328508  SOLV      4626            0.0000000000
     13998      4637  TIP3      H2              9.2354250248      -16.2443293232        9.6150228508  SOLV      4626            0.0000000000
     13999      4638  TIP3      OH2            14.9281850248      -15.9991293232       10.3414728508  SOLV      4627            0.0000000000
     14000      4638  TIP3      H1             15.0043450248      -15.9039693232        9.3920728508  SOLV      4627            0.0000000000
     14001      4638  TIP3      H2             14.6531050248      -16.9068393232       10.4703828508  SOLV      4627            0.0000000000
     14002      4639  TIP3      OH2            16.2814450248      -15.9733493232        6.0339728508  SOLV      4628            0.0000000000
     14003      4639  TIP3      H1             15.5785550248      -15.3584293232        5.8241128508  SOLV      4628            0.0000000000
     14004      4639  TIP3      H2             15.8365850248      -16.8106793232        6.1650628508  SOLV      4628            0.0000000000
     14005      4640  TIP3      OH2             3.5293750248       -0.2097893232        5.5801128508  SOLV      4629            0.0000000000
     14006      4640  TIP3      H1              2.8443650248       -0.2478993232        4.9126228508  SOLV      4629            0.0000000000
     14007      4640  TIP3      H2              3.5330950248        0.7029706768        5.8683228508  SOLV      4629            0.0000000000
     14008      4641  TIP3      OH2             5.4893350248      -14.2418593232        3.1250128508  SOLV      4630            0.0000000000
     14009      4641  TIP3      H1              5.9806750248      -14.8716193232        2.5975628508  SOLV      4630            0.0000000000
     14010      4641  TIP3      H2              6.1129650248      -13.9459193232        3.7881328508  SOLV      4630            0.0000000000
     14011      4642  TIP3      OH2            10.5153450248      -13.9487093232        5.5820628508  SOLV      4631            0.0000000000
     14012      4642  TIP3      H1             10.6934750248      -14.5953893232        6.2649228508  SOLV      4631            0.0000000000
     14013      4642  TIP3      H2             10.4619650248      -13.1149393232        6.0491728508  SOLV      4631            0.0000000000
     14014      4643  TIP3      OH2            12.3937250248        0.9997006768        3.9777328508  SOLV      4632            0.0000000000
     14015      4643  TIP3      H1             13.2597450248        1.3664406768        3.7995528508  SOLV      4632            0.0000000000
     14016      4643  TIP3      H2             12.1470050248        0.5605006768        3.1638128508  SOLV      4632            0.0000000000
     14017      4644  TIP3      OH2            19.1026850248        0.5627306768        6.6568428508  SOLV      4633            0.0000000000
     14018      4644  TIP3      H1             18.9083950248       -0.1850593232        6.0918028508  SOLV      4633            0.0000000000
     14019      4644  TIP3      H2             19.0636950248        1.3207406768        6.0736328508  SOLV      4633            0.0000000000
     14020      4645  TIP3      OH2             4.7498850248      -15.4416293232       18.3966128508  SOLV      4634            0.0000000000
     14021      4645  TIP3      H1              4.3837050248      -16.2073693232       18.8390828508  SOLV      4634            0.0000000000
     14022      4645  TIP3      H2              5.6627350248      -15.4126093232       18.6831228508  SOLV      4634            0.0000000000
     14023      4646  TIP3      OH2            15.1441950248      -16.7586593232       20.1146028508  SOLV      4635            0.0000000000
     14024      4646  TIP3      H1             15.2209150248      -17.1845893232       20.9683728508  SOLV      4635            0.0000000000
     14025      4646  TIP3      H2             16.0378550248      -16.7451893232       19.7719528508  SOLV      4635            0.0000000000
     14026      4647  TIP3      OH2            18.3203050248       -0.6860293232       18.8070228508  SOLV      4636            0.0000000000
     14027      4647  TIP3      H1             17.5384950248       -0.8722293232       18.2870828508  SOLV      4636            0.0000000000
     14028      4647  TIP3      H2             18.2482950248        0.2434006768       19.0242728508  SOLV      4636            0.0000000000
     14029      4648  TIP3      OH2            31.6594750248       -7.5445193232       12.2565628508  SOLV      4637            0.0000000000
     14030      4648  TIP3      H1             31.6212250248       -8.1908893232       12.9615228508  SOLV      4637            0.0000000000
     14031      4648  TIP3      H2             31.3371250248       -8.0110793232       11.4854328508  SOLV      4637            0.0000000000
     14032      4649  TIP3      OH2            24.0279750248       -7.9303093232       13.8495528508  SOLV      4638            0.0000000000
     14033      4649  TIP3      H1             24.0691850248       -8.5559793232       14.5727928508  SOLV      4638            0.0000000000
     14034      4649  TIP3      H2             24.7307450248       -7.3064493232       14.0315928508  SOLV      4638            0.0000000000
     14035      4650  TIP3      OH2            24.9512850248       -3.4804193232       12.3844628508  SOLV      4639            0.0000000000
     14036      4650  TIP3      H1             24.5818050248       -4.2823693232       12.0148928508  SOLV      4639            0.0000000000
     14037      4650  TIP3      H2             25.8923950248       -3.6489293232       12.4308028508  SOLV      4639            0.0000000000
     14038      4651  TIP3      OH2            21.5613350248       -9.8201593232        7.7773428508  SOLV      4640            0.0000000000
     14039      4651  TIP3      H1             21.1136750248       -8.9742893232        7.7589928508  SOLV      4640            0.0000000000
     14040      4651  TIP3      H2             21.0004550248      -10.3997393232        7.2618528508  SOLV      4640            0.0000000000
     14041      4652  TIP3      OH2            22.2719450248       -7.6581993232        9.9031428508  SOLV      4641            0.0000000000
     14042      4652  TIP3      H1             22.4852950248       -8.4280393232       10.4304428508  SOLV      4641            0.0000000000
     14043      4652  TIP3      H2             23.0097050248       -7.5685293232        9.2999028508  SOLV      4641            0.0000000000
     14044      4653  TIP3      OH2            32.4770450248        0.4986906768       10.7701128508  SOLV      4642            0.0000000000
     14045      4653  TIP3      H1             33.0966850248       -0.1778393232       10.4970328508  SOLV      4642            0.0000000000
     14046      4653  TIP3      H2             32.2687850248        0.2807706768       11.6786028508  SOLV      4642            0.0000000000
     14047      4654  TIP3      OH2            30.0489150248       -5.1123793232       12.6626628508  SOLV      4643            0.0000000000
     14048      4654  TIP3      H1             30.3527050248       -5.7982393232       12.0680728508  SOLV      4643            0.0000000000
     14049      4654  TIP3      H2             30.7703150248       -4.9935093232       13.2804628508  SOLV      4643            0.0000000000
     14050      4655  TIP3      OH2            26.3444450248      -12.6164993232       10.2626228508  SOLV      4644            0.0000000000
     14051      4655  TIP3      H1             26.3875550248      -11.7566493232        9.8442528508  SOLV      4644            0.0000000000
     14052      4655  TIP3      H2             25.8868550248      -13.1690293232        9.6289428508  SOLV      4644            0.0000000000
     14053      4656  TIP3      OH2            22.9645950248      -10.2199193232       11.0247628508  SOLV      4645            0.0000000000
     14054      4656  TIP3      H1             23.6182550248      -10.7697493232       11.4567728508  SOLV      4645            0.0000000000
     14055      4656  TIP3      H2             22.9885250248      -10.4940193232       10.1079628508  SOLV      4645            0.0000000000
     14056      4657  TIP3      OH2            28.1210450248       -8.6697893232       10.2399128508  SOLV      4646            0.0000000000
     14057      4657  TIP3      H1             28.7371450248       -9.1962493232       10.7493128508  SOLV      4646            0.0000000000
     14058      4657  TIP3      H2             27.5349250248       -9.3099193232        9.8362728508  SOLV      4646            0.0000000000
     14059      4658  TIP3      OH2            25.1546350248      -13.6986593232       14.3367028508  SOLV      4647            0.0000000000
     14060      4658  TIP3      H1             24.9358050248      -13.1685993232       13.5703028508  SOLV      4647            0.0000000000
     14061      4658  TIP3      H2             24.4867250248      -13.4721093232       14.9838428508  SOLV      4647            0.0000000000
     14062      4659  TIP3      OH2            32.5236150248       -4.1985493232        7.8806128508  SOLV      4648            0.0000000000
     14063      4659  TIP3      H1             32.2281250248       -4.5213193232        7.0293028508  SOLV      4648            0.0000000000
     14064      4659  TIP3      H2             32.1993950248       -3.2988793232        7.9218728508  SOLV      4648            0.0000000000
     14065      4660  TIP3      OH2            27.7237750248       -6.0230893232       14.6240728508  SOLV      4649            0.0000000000
     14066      4660  TIP3      H1             26.9836850248       -5.4249393232       14.7275928508  SOLV      4649            0.0000000000
     14067      4660  TIP3      H2             28.4377250248       -5.4691293232       14.3084328508  SOLV      4649            0.0000000000
     14068      4661  TIP3      OH2            24.7483650248      -11.8064793232       12.2889228508  SOLV      4650            0.0000000000
     14069      4661  TIP3      H1             25.3619950248      -11.1737193232       12.6621628508  SOLV      4650            0.0000000000
     14070      4661  TIP3      H2             25.2604350248      -12.2789793232       11.6326128508  SOLV      4650            0.0000000000
     14071      4662  TIP3      OH2            26.1312050248       -4.0587893232       15.4112228508  SOLV      4651            0.0000000000
     14072      4662  TIP3      H1             26.1259650248       -3.1794393232       15.0331528508  SOLV      4651            0.0000000000
     14073      4662  TIP3      H2             25.2776150248       -4.1423793232       15.8362128508  SOLV      4651            0.0000000000
     14074      4663  TIP3      OH2            22.2522950248       -4.3879993232        6.1931528508  SOLV      4652            0.0000000000
     14075      4663  TIP3      H1             21.9803850248       -4.1588993232        5.3044428508  SOLV      4652            0.0000000000
     14076      4663  TIP3      H2             22.2978650248       -3.5501193232        6.6536828508  SOLV      4652            0.0000000000
     14077      4664  TIP3      OH2            31.4475950248       -7.5555893232        6.2897728508  SOLV      4653            0.0000000000
     14078      4664  TIP3      H1             30.7361450248       -7.0206193232        5.9378228508  SOLV      4653            0.0000000000
     14079      4664  TIP3      H2             32.1385550248       -7.5003793232        5.6296628508  SOLV      4653            0.0000000000
     14080      4665  TIP3      OH2            26.4987350248       -6.7156393232        9.1238628508  SOLV      4654            0.0000000000
     14081      4665  TIP3      H1             26.1682550248       -7.0862993232        8.3055628508  SOLV      4654            0.0000000000
     14082      4665  TIP3      H2             27.0871450248       -7.3862393232        9.4706928508  SOLV      4654            0.0000000000
     14083      4666  TIP3      OH2            27.8654850248       -3.2875793232       11.8050828508  SOLV      4655            0.0000000000
     14084      4666  TIP3      H1             27.7706150248       -3.8662693232       11.0485428508  SOLV      4655            0.0000000000
     14085      4666  TIP3      H2             28.5948450248       -3.6590093232       12.3013628508  SOLV      4655            0.0000000000
     14086      4667  TIP3      OH2            26.8652850248       -7.9470793232       12.7573628508  SOLV      4656            0.0000000000
     14087      4667  TIP3      H1             27.4305350248       -7.8256593232       11.9944828508  SOLV      4656            0.0000000000
     14088      4667  TIP3      H2             27.1841750248       -7.3095793232       13.3962128508  SOLV      4656            0.0000000000
     14089      4668  TIP3      OH2            33.1745050248       -2.4438893232       13.4914128508  SOLV      4657            0.0000000000
     14090      4668  TIP3      H1             32.9341650248       -1.7815793232       14.1393328508  SOLV      4657            0.0000000000
     14091      4668  TIP3      H2             32.9763250248       -3.2783693232       13.9163728508  SOLV      4657            0.0000000000
     14092      4669  TIP3      OH2            27.7453550248       -3.5478093232       17.4745528508  SOLV      4658            0.0000000000
     14093      4669  TIP3      H1             27.4341050248       -2.7654893232       17.9298728508  SOLV      4658            0.0000000000
     14094      4669  TIP3      H2             27.0953750248       -3.7008993232       16.7887528508  SOLV      4658            0.0000000000
     14095      4670  TIP3      OH2            24.6653450248       -7.3496993232       16.7031228508  SOLV      4659            0.0000000000
     14096      4670  TIP3      H1             24.7356650248       -6.6990193232       17.4016228508  SOLV      4659            0.0000000000
     14097      4670  TIP3      H2             23.7745650248       -7.2469493232       16.3682128508  SOLV      4659            0.0000000000
     14098      4671  TIP3      OH2            31.4508050248       -1.4471193232        8.3617928508  SOLV      4660            0.0000000000
     14099      4671  TIP3      H1             31.9245650248       -1.1514893232        9.1392128508  SOLV      4660            0.0000000000
     14100      4671  TIP3      H2             30.8877350248       -0.7089593232        8.1287528508  SOLV      4660            0.0000000000
     14101      4672  TIP3      OH2            25.9849450248       -1.4763093232       18.2379328508  SOLV      4661            0.0000000000
     14102      4672  TIP3      H1             25.9924750248       -1.6123393232       17.2904828508  SOLV      4661            0.0000000000
     14103      4672  TIP3      H2             25.0689850248       -1.5934993232       18.4899328508  SOLV      4661            0.0000000000
     14104      4673  TIP3      OH2            25.4890050248       -7.6462093232        6.7131428508  SOLV      4662            0.0000000000
     14105      4673  TIP3      H1             25.1971350248       -6.8780393232        6.2222728508  SOLV      4662            0.0000000000
     14106      4673  TIP3      H2             24.8145250248       -8.3055893232        6.5502828508  SOLV      4662            0.0000000000
     14107      4674  TIP3      OH2            21.5820150248       -5.2832893232       15.5281228508  SOLV      4663            0.0000000000
     14108      4674  TIP3      H1             21.0808550248       -5.3113493232       14.7130928508  SOLV      4663            0.0000000000
     14109      4674  TIP3      H2             21.5873850248       -6.1889693232       15.8378528508  SOLV      4663            0.0000000000
     14110      4675  TIP3      OH2            21.3322850248       -2.5029093232       12.4121428508  SOLV      4664            0.0000000000
     14111      4675  TIP3      H1             22.2783450248       -2.6472093232       12.3930928508  SOLV      4664            0.0000000000
     14112      4675  TIP3      H2             21.2199150248       -1.7186293232       12.9492628508  SOLV      4664            0.0000000000
     14113      4676  TIP3      OH2            30.9231150248        1.5093506768        6.7767128508  SOLV      4665            0.0000000000
     14114      4676  TIP3      H1             30.8477150248        1.3880706768        5.8302328508  SOLV      4665            0.0000000000
     14115      4676  TIP3      H2             30.9559850248        2.4586206768        6.8951728508  SOLV      4665            0.0000000000
     14116      4677  TIP3      OH2            24.5764950248        0.2980506768        8.5576128508  SOLV      4666            0.0000000000
     14117      4677  TIP3      H1             24.7285350248       -0.0499093232        9.4362628508  SOLV      4666            0.0000000000
     14118      4677  TIP3      H2             23.7255350248       -0.0582193232        8.3023328508  SOLV      4666            0.0000000000
     14119      4678  TIP3      OH2            34.0247150248        0.6633706768        3.7789528508  SOLV      4667            0.0000000000
     14120      4678  TIP3      H1             34.3995550248       -0.0810193232        3.3082128508  SOLV      4667            0.0000000000
     14121      4678  TIP3      H2             34.0290850248        0.3934306768        4.6972828508  SOLV      4667            0.0000000000
     14122      4679  TIP3      OH2            33.6935250248        0.5890806768        6.5281728508  SOLV      4668            0.0000000000
     14123      4679  TIP3      H1             32.7585050248        0.6892706768        6.7068728508  SOLV      4668            0.0000000000
     14124      4679  TIP3      H2             33.9737150248       -0.1203193232        7.1064928508  SOLV      4668            0.0000000000
     14125      4680  TIP3      OH2            23.8310650248       -3.9597493232       16.5714028508  SOLV      4669            0.0000000000
     14126      4680  TIP3      H1             24.0471950248       -4.3211893232       17.4309828508  SOLV      4669            0.0000000000
     14127      4680  TIP3      H2             22.9755350248       -4.3343693232       16.3617528508  SOLV      4669            0.0000000000
     14128      4681  TIP3      OH2            26.4498650248      -15.4896993232       12.5668228508  SOLV      4670            0.0000000000
     14129      4681  TIP3      H1             25.5882350248      -15.5768793232       12.1591128508  SOLV      4670            0.0000000000
     14130      4681  TIP3      H2             26.4274350248      -14.6336893232       12.9945828508  SOLV      4670            0.0000000000
     14131      4682  TIP3      OH2            26.5408750248      -10.5242493232       13.6618428508  SOLV      4671            0.0000000000
     14132      4682  TIP3      H1             25.8990850248      -10.5645193232       14.3708528508  SOLV      4671            0.0000000000
     14133      4682  TIP3      H2             26.5780750248       -9.5977793232       13.4241428508  SOLV      4671            0.0000000000
     14134      4683  TIP3      OH2            26.5377850248      -10.3032393232        8.5738428508  SOLV      4672            0.0000000000
     14135      4683  TIP3      H1             25.6450750248      -10.6436293232        8.5152228508  SOLV      4672            0.0000000000
     14136      4683  TIP3      H2             26.9884450248      -10.6801493232        7.8181628508  SOLV      4672            0.0000000000
     14137      4684  TIP3      OH2            24.2909250248      -10.2038993232       15.5290428508  SOLV      4673            0.0000000000
     14138      4684  TIP3      H1             24.2528650248       -9.8037393232       16.3977528508  SOLV      4673            0.0000000000
     14139      4684  TIP3      H2             23.8000350248      -11.0206593232       15.6193328508  SOLV      4673            0.0000000000
     14140      4685  TIP3      OH2            27.6566650248      -12.8296693232        2.3276428508  SOLV      4674            0.0000000000
     14141      4685  TIP3      H1             27.2257350248      -13.2746593232        3.0573828508  SOLV      4674            0.0000000000
     14142      4685  TIP3      H2             26.9385350248      -12.4580393232        1.8153928508  SOLV      4674            0.0000000000
     14143      4686  TIP3      OH2            20.8990050248      -13.0877193232        9.3795128508  SOLV      4675            0.0000000000
     14144      4686  TIP3      H1             21.5297750248      -13.1165093232       10.0989028508  SOLV      4675            0.0000000000
     14145      4686  TIP3      H2             21.3484350248      -13.5128493232        8.6491028508  SOLV      4675            0.0000000000
     14146      4687  TIP3      OH2            22.1732150248      -12.3415193232        4.8035528508  SOLV      4676            0.0000000000
     14147      4687  TIP3      H1             22.6473850248      -11.7505293232        4.2186428508  SOLV      4676            0.0000000000
     14148      4687  TIP3      H2             21.4558550248      -11.8112293232        5.1505628508  SOLV      4676            0.0000000000
     14149      4688  TIP3      OH2            29.1193150248      -12.8754893232        9.6602528508  SOLV      4677            0.0000000000
     14150      4688  TIP3      H1             28.2084250248      -12.8188093232        9.9488528508  SOLV      4677            0.0000000000
     14151      4688  TIP3      H2             29.6246050248      -12.9359393232       10.4709728508  SOLV      4677            0.0000000000
     14152      4689  TIP3      OH2            23.9476550248      -11.2468593232        8.4870128508  SOLV      4678            0.0000000000
     14153      4689  TIP3      H1             23.0584550248      -11.1473093232        8.1469728508  SOLV      4678            0.0000000000
     14154      4689  TIP3      H2             24.2441450248      -12.0885593232        8.1408028508  SOLV      4678            0.0000000000
     14155      4690  TIP3      OH2            27.6008350248      -11.2465993232        6.1434728508  SOLV      4679            0.0000000000
     14156      4690  TIP3      H1             28.5323850248      -11.1175993232        6.3217828508  SOLV      4679            0.0000000000
     14157      4690  TIP3      H2             27.3858650248      -10.5771693232        5.4939428508  SOLV      4679            0.0000000000
     14158      4691  TIP3      OH2            26.2748550248      -10.0523793232        3.7100828508  SOLV      4680            0.0000000000
     14159      4691  TIP3      H1             25.7323650248      -10.4319993232        3.0188428508  SOLV      4680            0.0000000000
     14160      4691  TIP3      H2             27.1083450248       -9.8579093232        3.2814928508  SOLV      4680            0.0000000000
     14161      4692  TIP3      OH2            24.4099950248       -5.4951893232       18.8092428508  SOLV      4681            0.0000000000
     14162      4692  TIP3      H1             25.1422350248       -5.2405993232       19.3706928508  SOLV      4681            0.0000000000
     14163      4692  TIP3      H2             23.6298650248       -5.2906493232       19.3247828508  SOLV      4681            0.0000000000
     14164      4693  TIP3      OH2            30.4392850248      -10.0881893232       11.5472128508  SOLV      4682            0.0000000000
     14165      4693  TIP3      H1             31.0036250248      -10.6345293232       11.0001728508  SOLV      4682            0.0000000000
     14166      4693  TIP3      H2             30.2916250248      -10.6099993232       12.3359728508  SOLV      4682            0.0000000000
     14167      4694  TIP3      OH2            25.4412550248      -13.9515793232        7.9656928508  SOLV      4683            0.0000000000
     14168      4694  TIP3      H1             25.1242050248      -14.8540493232        7.9302328508  SOLV      4683            0.0000000000
     14169      4694  TIP3      H2             26.2226650248      -13.9498393232        7.4128528508  SOLV      4683            0.0000000000
     14170      4695  TIP3      OH2            29.0658750248      -11.6995793232       13.9612528508  SOLV      4684            0.0000000000
     14171      4695  TIP3      H1             28.2304050248      -11.2456293232       14.0714928508  SOLV      4684            0.0000000000
     14172      4695  TIP3      H2             29.5899350248      -11.4237293232       14.7132428508  SOLV      4684            0.0000000000
     14173      4696  TIP3      OH2            29.6101350248       -5.4868093232        5.6458928508  SOLV      4685            0.0000000000
     14174      4696  TIP3      H1             28.8652350248       -5.9942793232        5.3236828508  SOLV      4685            0.0000000000
     14175      4696  TIP3      H2             29.4758550248       -5.4380093232        6.5923728508  SOLV      4685            0.0000000000
     14176      4697  TIP3      OH2            31.1293450248       -5.3024793232       16.8828028508  SOLV      4686            0.0000000000
     14177      4697  TIP3      H1             30.7839550248       -5.6842393232       17.6897628508  SOLV      4686            0.0000000000
     14178      4697  TIP3      H2             30.9293550248       -4.3691193232       16.9540928508  SOLV      4686            0.0000000000
     14179      4698  TIP3      OH2            24.7349650248       -6.1918093232       11.4156828508  SOLV      4687            0.0000000000
     14180      4698  TIP3      H1             25.4796850248       -6.1942393232       10.8143328508  SOLV      4687            0.0000000000
     14181      4698  TIP3      H2             24.8126250248       -7.0154293232       11.8971928508  SOLV      4687            0.0000000000
     14182      4699  TIP3      OH2            31.7355450248       -4.0283793232        4.6713528508  SOLV      4688            0.0000000000
     14183      4699  TIP3      H1             31.4403850248       -3.2015893232        5.0528328508  SOLV      4688            0.0000000000
     14184      4699  TIP3      H2             31.0325450248       -4.6476893232        4.8674928508  SOLV      4688            0.0000000000
     14185      4700  TIP3      OH2            21.7429350248       -7.7311193232       16.7305328508  SOLV      4689            0.0000000000
     14186      4700  TIP3      H1             21.9657950248       -8.1491593232       17.5622828508  SOLV      4689            0.0000000000
     14187      4700  TIP3      H2             21.1409450248       -8.3436193232       16.3078128508  SOLV      4689            0.0000000000
     14188      4701  TIP3      OH2            28.7594250248       -8.2141293232       18.9435028508  SOLV      4690            0.0000000000
     14189      4701  TIP3      H1             28.4635050248       -8.3798293232       18.0484128508  SOLV      4690            0.0000000000
     14190      4701  TIP3      H2             29.6909450248       -8.4340993232       18.9328928508  SOLV      4690            0.0000000000
     14191      4702  TIP3      OH2            33.3797050248       -2.8409293232       16.8333028508  SOLV      4691            0.0000000000
     14192      4702  TIP3      H1             32.4791350248       -2.6576693232       16.5656928508  SOLV      4691            0.0000000000
     14193      4702  TIP3      H2             33.4138150248       -2.5819993232       17.7541828508  SOLV      4691            0.0000000000
     14194      4703  TIP3      OH2            27.1099050248       -2.6739893232        8.8198328508  SOLV      4692            0.0000000000
     14195      4703  TIP3      H1             27.6371250248       -1.9005493232        8.6197128508  SOLV      4692            0.0000000000
     14196      4703  TIP3      H2             26.2297550248       -2.4490693232        8.5182328508  SOLV      4692            0.0000000000
     14197      4704  TIP3      OH2            22.8646750248       -7.8115793232        3.4070728508  SOLV      4693            0.0000000000
     14198      4704  TIP3      H1             23.4806650248       -7.1848593232        3.7865528508  SOLV      4693            0.0000000000
     14199      4704  TIP3      H2             22.0029350248       -7.4955993232        3.6787228508  SOLV      4693            0.0000000000
     14200      4705  TIP3      OH2            28.5371350248       -5.0109993232        8.3962628508  SOLV      4694            0.0000000000
     14201      4705  TIP3      H1             28.2961350248       -4.0855593232        8.4377928508  SOLV      4694            0.0000000000
     14202      4705  TIP3      H2             27.7964950248       -5.4698693232        8.7926528508  SOLV      4694            0.0000000000
     14203      4706  TIP3      OH2            27.2202150248        0.0107606768        7.9414828508  SOLV      4695            0.0000000000
     14204      4706  TIP3      H1             26.2702650248        0.1165006768        7.9928128508  SOLV      4695            0.0000000000
     14205      4706  TIP3      H2             27.5720250248        0.8315006768        8.2862328508  SOLV      4695            0.0000000000
     14206      4707  TIP3      OH2            23.3768850248      -12.9778493232       16.2886728508  SOLV      4696            0.0000000000
     14207      4707  TIP3      H1             22.4841150248      -12.6393093232       16.2210728508  SOLV      4696            0.0000000000
     14208      4707  TIP3      H2             23.2781650248      -13.8332393232       16.7067528508  SOLV      4696            0.0000000000
     14209      4708  TIP3      OH2            23.0280850248       -1.1734093232       14.7236128508  SOLV      4697            0.0000000000
     14210      4708  TIP3      H1             23.2451150248       -2.1051693232       14.6925828508  SOLV      4697            0.0000000000
     14211      4708  TIP3      H2             23.2744350248       -0.8989093232       15.6068928508  SOLV      4697            0.0000000000
     14212      4709  TIP3      OH2            28.8895450248       -2.7219093232        1.9328328508  SOLV      4698            0.0000000000
     14213      4709  TIP3      H1             29.1285250248       -3.4700993232        1.3857228508  SOLV      4698            0.0000000000
     14214      4709  TIP3      H2             28.6206750248       -3.1097393232        2.7656128508  SOLV      4698            0.0000000000
     14215      4710  TIP3      OH2            27.8266050248       -3.1515293232        4.3890928508  SOLV      4699            0.0000000000
     14216      4710  TIP3      H1             27.9734050248       -3.6715493232        5.1791828508  SOLV      4699            0.0000000000
     14217      4710  TIP3      H2             27.8237750248       -2.2447693232        4.6956828508  SOLV      4699            0.0000000000
     14218      4711  TIP3      OH2            24.2797150248       -5.8991993232        4.8996328508  SOLV      4700            0.0000000000
     14219      4711  TIP3      H1             23.5936450248       -5.5469493232        5.4666028508  SOLV      4700            0.0000000000
     14220      4711  TIP3      H2             24.8025050248       -5.1362393232        4.6530628508  SOLV      4700            0.0000000000
     14221      4712  TIP3      OH2            30.5643250248       -1.4541693232        5.1385128508  SOLV      4701            0.0000000000
     14222      4712  TIP3      H1             29.7479350248       -0.9571993232        5.1909428508  SOLV      4701            0.0000000000
     14223      4712  TIP3      H2             31.0939550248       -0.9788193232        4.4983928508  SOLV      4701            0.0000000000
     14224      4713  TIP3      OH2            27.9026350248       -0.4104493232        5.1202028508  SOLV      4702            0.0000000000
     14225      4713  TIP3      H1             28.0635050248        0.3893006768        4.6194628508  SOLV      4702            0.0000000000
     14226      4713  TIP3      H2             27.7054150248       -0.1038493232        6.0052628508  SOLV      4702            0.0000000000
     14227      4714  TIP3      OH2            26.6370750248      -13.7125293232        4.7359628508  SOLV      4703            0.0000000000
     14228      4714  TIP3      H1             26.5535550248      -12.8242193232        5.0826028508  SOLV      4703            0.0000000000
     14229      4714  TIP3      H2             27.5271050248      -13.9778593232        4.9676428508  SOLV      4703            0.0000000000
     14230      4715  TIP3      OH2            24.8956050248       -3.2853093232        3.7964128508  SOLV      4704            0.0000000000
     14231      4715  TIP3      H1             25.4877550248       -2.5858293232        4.0726528508  SOLV      4704            0.0000000000
     14232      4715  TIP3      H2             25.3549050248       -3.7183593232        3.0768728508  SOLV      4704            0.0000000000
     14233      4716  TIP3      OH2            23.2115250248      -10.6210093232        2.9123528508  SOLV      4705            0.0000000000
     14234      4716  TIP3      H1             23.1667850248       -9.6816993232        3.0910528508  SOLV      4705            0.0000000000
     14235      4716  TIP3      H2             22.3238450248      -10.8565193232        2.6425628508  SOLV      4705            0.0000000000
     14236      4717  TIP3      OH2            24.0197250248      -15.8393493232       11.5854528508  SOLV      4706            0.0000000000
     14237      4717  TIP3      H1             23.7907050248      -15.7800993232       10.6579528508  SOLV      4706            0.0000000000
     14238      4717  TIP3      H2             23.5770650248      -16.6307993232       11.8918628508  SOLV      4706            0.0000000000
     14239      4718  TIP3      OH2            22.9500550248       -1.8986393232        7.7460328508  SOLV      4707            0.0000000000
     14240      4718  TIP3      H1             22.1179150248       -1.4263693232        7.7731728508  SOLV      4707            0.0000000000
     14241      4718  TIP3      H2             23.4958850248       -1.3888793232        7.1473428508  SOLV      4707            0.0000000000
     14242      4719  TIP3      OH2            22.2384250248        0.7137306768       19.0758328508  SOLV      4708            0.0000000000
     14243      4719  TIP3      H1             22.7786450248        0.4971306768       19.8357528508  SOLV      4708            0.0000000000
     14244      4719  TIP3      H2             21.7572250248       -0.0916693232       18.8860828508  SOLV      4708            0.0000000000
     14245      4720  TIP3      OH2            26.8357650248       -0.3668293232       20.6962528508  SOLV      4709            0.0000000000
     14246      4720  TIP3      H1             27.6034850248       -0.8257493232       21.0371728508  SOLV      4709            0.0000000000
     14247      4720  TIP3      H2             26.8143850248       -0.5928493232       19.7663728508  SOLV      4709            0.0000000000
     14248      4721  TIP3      OH2            30.9277250248       -0.8587693232        2.0714328508  SOLV      4710            0.0000000000
     14249      4721  TIP3      H1             30.2838250248       -1.4899093232        2.3928028508  SOLV      4710            0.0000000000
     14250      4721  TIP3      H2             31.6895550248       -1.3899693232        1.8397828508  SOLV      4710            0.0000000000
     14251      4722  TIP3      OH2            33.4126350248       -1.9867193232       19.4254028508  SOLV      4711            0.0000000000
     14252      4722  TIP3      H1             33.0615850248       -2.8434193232       19.6684428508  SOLV      4711            0.0000000000
     14253      4722  TIP3      H2             34.1389550248       -1.8440493232       20.0323028508  SOLV      4711            0.0000000000
     14254      4723  TIP3      OH2            22.1453750248       -5.4758593232       20.0302628508  SOLV      4712            0.0000000000
     14255      4723  TIP3      H1             22.2894250248       -6.3777893232       19.7439328508  SOLV      4712            0.0000000000
     14256      4723  TIP3      H2             21.3731150248       -5.1896493232       19.5424928508  SOLV      4712            0.0000000000
     14257      4724  TIP3      OH2            26.4867450248       -5.1322893232        2.1627228508  SOLV      4713            0.0000000000
     14258      4724  TIP3      H1             26.5511550248       -5.9263293232        2.6933628508  SOLV      4713            0.0000000000
     14259      4724  TIP3      H2             27.1396650248       -5.2510093232        1.4729228508  SOLV      4713            0.0000000000
     14260      4725  TIP3      OH2            28.8009850248       -5.5060493232       19.4629028508  SOLV      4714            0.0000000000
     14261      4725  TIP3      H1             28.4723650248       -5.2352393232       18.6056428508  SOLV      4714            0.0000000000
     14262      4725  TIP3      H2             28.9528050248       -6.4470693232       19.3754028508  SOLV      4714            0.0000000000
     14263      4726  TIP3      OH2            31.8390850248       -4.0851193232        1.8985228508  SOLV      4715            0.0000000000
     14264      4726  TIP3      H1             31.5704950248       -3.9049093232        2.7994128508  SOLV      4715            0.0000000000
     14265      4726  TIP3      H2             31.6326450248       -5.0104993232        1.7671028508  SOLV      4715            0.0000000000
     14266      4727  TIP3      OH2            22.9780250248       -8.2755293232       19.4501928508  SOLV      4716            0.0000000000
     14267      4727  TIP3      H1             23.3861450248       -9.1328693232       19.3292528508  SOLV      4716            0.0000000000
     14268      4727  TIP3      H2             22.7177850248       -8.2613993232       20.3712228508  SOLV      4716            0.0000000000
     14269      4728  TIP3      OH2            27.6361250248       -7.1596693232        4.4685228508  SOLV      4717            0.0000000000
     14270      4728  TIP3      H1             27.1763250248       -7.6438393232        5.1543728508  SOLV      4717            0.0000000000
     14271      4728  TIP3      H2             27.8909950248       -7.8281293232        3.8325728508  SOLV      4717            0.0000000000
     14272      4729  TIP3      OH2            26.9250550248       -9.2669593232       16.8244828508  SOLV      4718            0.0000000000
     14273      4729  TIP3      H1             26.3066650248       -8.5922993232       17.1049528508  SOLV      4718            0.0000000000
     14274      4729  TIP3      H2             27.2691750248       -8.9455693232       15.9911028508  SOLV      4718            0.0000000000
     14275      4730  TIP3      OH2            28.7071650248       -8.9164893232        2.7308428508  SOLV      4719            0.0000000000
     14276      4730  TIP3      H1             28.5266650248       -9.0713693232        1.8036728508  SOLV      4719            0.0000000000
     14277      4730  TIP3      H2             29.6572150248       -8.8086193232        2.7756328508  SOLV      4719            0.0000000000
     14278      4731  TIP3      OH2            27.2644250248      -11.9118793232       17.9067928508  SOLV      4720            0.0000000000
     14279      4731  TIP3      H1             27.4145150248      -12.6407493232       17.3047628508  SOLV      4720            0.0000000000
     14280      4731  TIP3      H2             27.2666650248      -11.1347093232       17.3480128508  SOLV      4720            0.0000000000
     14281      4732  TIP3      OH2            27.6769950248      -13.5422993232       15.3995328508  SOLV      4721            0.0000000000
     14282      4732  TIP3      H1             28.2127450248      -13.0906293232       14.7474628508  SOLV      4721            0.0000000000
     14283      4732  TIP3      H2             26.8249550248      -13.6503193232       14.9769428508  SOLV      4721            0.0000000000
     14284      4733  TIP3      OH2            29.2588350248       -8.1026793232       15.6390528508  SOLV      4722            0.0000000000
     14285      4733  TIP3      H1             30.0093150248       -8.2589293232       15.0658328508  SOLV      4722            0.0000000000
     14286      4733  TIP3      H2             28.9196650248       -7.2510193232       15.3636028508  SOLV      4722            0.0000000000
     14287      4734  TIP3      OH2            25.7430550248      -10.7135293232       19.8183528508  SOLV      4723            0.0000000000
     14288      4734  TIP3      H1             24.9759550248      -11.2460493232       19.6081128508  SOLV      4723            0.0000000000
     14289      4734  TIP3      H2             26.4219550248      -11.0234893232       19.2189828508  SOLV      4723            0.0000000000
     14290      4735  TIP3      OH2            28.4825450248      -16.0857293232       15.8308928508  SOLV      4724            0.0000000000
     14291      4735  TIP3      H1             28.3845050248      -15.1394093232       15.7255128508  SOLV      4724            0.0000000000
     14292      4735  TIP3      H2             27.7401650248      -16.4583493232       15.3552428508  SOLV      4724            0.0000000000
     14293      4736  TIP3      OH2            29.7465950248      -11.7641893232       19.3947328508  SOLV      4725            0.0000000000
     14294      4736  TIP3      H1             29.5111350248      -11.9835193232       20.2962228508  SOLV      4725            0.0000000000
     14295      4736  TIP3      H2             28.9632850248      -11.9710693232       18.8849828508  SOLV      4725            0.0000000000
     14296      4737  TIP3      OH2            23.9233350248      -12.7931493232       19.5228228508  SOLV      4726            0.0000000000
     14297      4737  TIP3      H1             24.1350750248      -13.4995393232       18.9125728508  SOLV      4726            0.0000000000
     14298      4737  TIP3      H2             23.8120850248      -13.2305493232       20.3669428508  SOLV      4726            0.0000000000
     14299      4738  TIP3      OH2            29.0581050248      -15.1091493232       20.5558028508  SOLV      4727            0.0000000000
     14300      4738  TIP3      H1             28.9263250248      -15.5847693232       19.7356528508  SOLV      4727            0.0000000000
     14301      4738  TIP3      H2             28.4588450248      -14.3647893232       20.5005128508  SOLV      4727            0.0000000000
     14302      4739  TIP3      OH2            28.6043350248        1.7738806768        3.7322028508  SOLV      4728            0.0000000000
     14303      4739  TIP3      H1             29.5374050248        1.9317506768        3.8760428508  SOLV      4728            0.0000000000
     14304      4739  TIP3      H2             28.3402150248        2.4491806768        3.1073528508  SOLV      4728            0.0000000000
     14305      4740  TIP3      OH2            22.1728250248       -3.5897393232        3.2150128508  SOLV      4729            0.0000000000
     14306      4740  TIP3      H1             23.0867450248       -3.5108493232        3.4884028508  SOLV      4729            0.0000000000
     14307      4740  TIP3      H2             22.1801350248       -4.2767793232        2.5485728508  SOLV      4729            0.0000000000
     14308      4741  TIP3      OH2            20.8218850248        1.8031106768        8.2924028508  SOLV      4730            0.0000000000
     14309      4741  TIP3      H1             20.1745950248        1.3412806768        7.7595228508  SOLV      4730            0.0000000000
     14310      4741  TIP3      H2             21.1763450248        1.1314406768        8.8750228508  SOLV      4730            0.0000000000
     14311      4742  TIP3      OH2            21.6918050248       -0.1161893232       10.0970228508  SOLV      4731            0.0000000000
     14312      4742  TIP3      H1             21.3574850248       -0.9964593232       10.2690428508  SOLV      4731            0.0000000000
     14313      4742  TIP3      H2             21.9140450248        0.2293106768       10.9615828508  SOLV      4731            0.0000000000
     14314      4743  TIP3      OH2            21.7717550248       -7.0406493232       12.5485128508  SOLV      4732            0.0000000000
     14315      4743  TIP3      H1             21.9560450248       -7.1224793232       11.6128028508  SOLV      4732            0.0000000000
     14316      4743  TIP3      H2             22.6210450248       -7.1649493232       12.9721528508  SOLV      4732            0.0000000000
     14317      4744  TIP3      OH2            21.3692350248      -11.7701493232       18.6893928508  SOLV      4733            0.0000000000
     14318      4744  TIP3      H1             22.2887250248      -11.8923193232       18.9257028508  SOLV      4733            0.0000000000
     14319      4744  TIP3      H2             20.9196850248      -12.5201793232       19.0787428508  SOLV      4733            0.0000000000
     14320      4745  TIP3      OH2            22.5904850248      -13.4579893232       11.5806828508  SOLV      4734            0.0000000000
     14321      4745  TIP3      H1             23.0356450248      -14.2497393232       11.8826528508  SOLV      4734            0.0000000000
     14322      4745  TIP3      H2             23.0567850248      -12.7414693232       12.0112428508  SOLV      4734            0.0000000000
     14323      4746  TIP3      OH2            20.8945150248      -10.4586893232       12.6497028508  SOLV      4735            0.0000000000
     14324      4746  TIP3      H1             21.3864950248      -10.6796393232       11.8589028508  SOLV      4735            0.0000000000
     14325      4746  TIP3      H2             21.2566050248       -9.6183493232       12.9306528508  SOLV      4735            0.0000000000
     14326      4747  TIP3      OH2            21.2081650248      -14.2007793232        6.7039428508  SOLV      4736            0.0000000000
     14327      4747  TIP3      H1             20.2830050248      -13.9921193232        6.5744928508  SOLV      4736            0.0000000000
     14328      4747  TIP3      H2             21.6621550248      -13.7166993232        6.0141728508  SOLV      4736            0.0000000000
     14329      4748  TIP3      OH2            21.1717050248      -15.4628793232       15.0481928508  SOLV      4737            0.0000000000
     14330      4748  TIP3      H1             20.5067550248      -15.7088493232       15.6912828508  SOLV      4737            0.0000000000
     14331      4748  TIP3      H2             20.7288350248      -14.8408393232       14.4709928508  SOLV      4737            0.0000000000
     14332      4749  TIP3      OH2            23.3636350248       -2.2874693232       19.1927728508  SOLV      4738            0.0000000000
     14333      4749  TIP3      H1             22.5428850248       -2.1128193232       18.7322428508  SOLV      4738            0.0000000000
     14334      4749  TIP3      H2             23.1114150248       -2.3609993232       20.1132128508  SOLV      4738            0.0000000000
     14335      4750  TIP3      OH2            26.3179250248       -1.3133493232       15.4511728508  SOLV      4739            0.0000000000
     14336      4750  TIP3      H1             25.8930350248       -0.5034993232       15.1686328508  SOLV      4739            0.0000000000
     14337      4750  TIP3      H2             27.2222050248       -1.2279393232       15.1491528508  SOLV      4739            0.0000000000
     14338      4751  TIP3      OH2            32.9741050248        1.3715406768       17.6546828508  SOLV      4740            0.0000000000
     14339      4751  TIP3      H1             33.6509950248        0.7387706768       17.4146028508  SOLV      4740            0.0000000000
     14340      4751  TIP3      H2             33.2959850248        1.7725906768       18.4620128508  SOLV      4740            0.0000000000
     14341      4752  TIP3      OH2            23.7195950248        1.9430406768       15.4987028508  SOLV      4741            0.0000000000
     14342      4752  TIP3      H1             22.9992350248        2.3831406768       15.0474728508  SOLV      4741            0.0000000000
     14343      4752  TIP3      H2             23.3539950248        1.6925106768       16.3471028508  SOLV      4741            0.0000000000
     14344      4753  TIP3      OH2            26.1868550248        1.5434306768       14.5284228508  SOLV      4742            0.0000000000
     14345      4753  TIP3      H1             25.3220750248        1.6152806768       14.9324328508  SOLV      4742            0.0000000000
     14346      4753  TIP3      H2             26.1317550248        2.0901606768       13.7446728508  SOLV      4742            0.0000000000
     14347      4754  TIP3      OH2            30.8974150248        1.4313206768       13.7040228508  SOLV      4743            0.0000000000
     14348      4754  TIP3      H1             30.4408150248        1.9602906768       13.0498628508  SOLV      4743            0.0000000000
     14349      4754  TIP3      H2             31.0602150248        2.0344606768       14.4292528508  SOLV      4743            0.0000000000
     14350      4755  TIP3      OH2            23.1344050248        0.5662906768       12.4088828508  SOLV      4744            0.0000000000
     14351      4755  TIP3      H1             23.1160050248        0.1408006768       13.2661128508  SOLV      4744            0.0000000000
     14352      4755  TIP3      H2             23.9391950248        0.2477906768       12.0001028508  SOLV      4744            0.0000000000
     14353      4756  TIP3      OH2            25.2757150248       -0.7238393232       11.0638728508  SOLV      4745            0.0000000000
     14354      4756  TIP3      H1             25.0567850248       -1.6400993232       11.2334728508  SOLV      4745            0.0000000000
     14355      4756  TIP3      H2             26.0999350248       -0.5837993232       11.5300128508  SOLV      4745            0.0000000000
     14356      4757  TIP3      OH2            27.8129650248       -0.2539093232       11.9126728508  SOLV      4746            0.0000000000
     14357      4757  TIP3      H1             28.0255350248       -1.1420093232       11.6257628508  SOLV      4746            0.0000000000
     14358      4757  TIP3      H2             27.8774750248       -0.2881393232       12.8670728508  SOLV      4746            0.0000000000
     14359      4758  TIP3      OH2            23.6480850248      -15.9558193232        8.8789928508  SOLV      4747            0.0000000000
     14360      4758  TIP3      H1             22.8710650248      -16.1903293232        8.3715828508  SOLV      4747            0.0000000000
     14361      4758  TIP3      H2             24.1784450248      -16.7526093232        8.8877928508  SOLV      4747            0.0000000000
     14362      4759  TIP3      OH2            22.4844250248      -16.1580093232        4.6826028508  SOLV      4748            0.0000000000
     14363      4759  TIP3      H1             22.9234950248      -15.5469593232        4.0909528508  SOLV      4748            0.0000000000
     14364      4759  TIP3      H2             21.8506650248      -15.6195993232        5.1566028508  SOLV      4748            0.0000000000
     14365      4760  TIP3      OH2            28.2273450248      -16.0291093232        8.6923028508  SOLV      4749            0.0000000000
     14366      4760  TIP3      H1             29.1016850248      -15.6406793232        8.6627328508  SOLV      4749            0.0000000000
     14367      4760  TIP3      H2             28.0914250248      -16.2443293232        9.6150228508  SOLV      4749            0.0000000000
     14368      4761  TIP3      OH2            22.3853750248       -0.2097893232        5.5801128508  SOLV      4750            0.0000000000
     14369      4761  TIP3      H1             21.7003650248       -0.2478993232        4.9126228508  SOLV      4750            0.0000000000
     14370      4761  TIP3      H2             22.3890950248        0.7029706768        5.8683228508  SOLV      4750            0.0000000000
     14371      4762  TIP3      OH2            24.3453350248      -14.2418593232        3.1250128508  SOLV      4751            0.0000000000
     14372      4762  TIP3      H1             24.8366750248      -14.8716193232        2.5975628508  SOLV      4751            0.0000000000
     14373      4762  TIP3      H2             24.9689650248      -13.9459193232        3.7881328508  SOLV      4751            0.0000000000
     14374      4763  TIP3      OH2            29.3713450248      -13.9487093232        5.5820628508  SOLV      4752            0.0000000000
     14375      4763  TIP3      H1             29.5494750248      -14.5953893232        6.2649228508  SOLV      4752            0.0000000000
     14376      4763  TIP3      H2             29.3179650248      -13.1149393232        6.0491728508  SOLV      4752            0.0000000000
     14377      4764  TIP3      OH2            31.2497250248        0.9997006768        3.9777328508  SOLV      4753            0.0000000000
     14378      4764  TIP3      H1             32.1157450248        1.3664406768        3.7995528508  SOLV      4753            0.0000000000
     14379      4764  TIP3      H2             31.0030050248        0.5605006768        3.1638128508  SOLV      4753            0.0000000000
     14380      4765  TIP3      OH2            23.6058850248      -15.4416293232       18.3966128508  SOLV      4754            0.0000000000
     14381      4765  TIP3      H1             23.2397050248      -16.2073693232       18.8390828508  SOLV      4754            0.0000000000
     14382      4765  TIP3      H2             24.5187350248      -15.4126093232       18.6831228508  SOLV      4754            0.0000000000
     14383      4766  TIP3      OH2            25.5789650248      -16.0911893232       19.9323228508  SOLV      4755            0.0000000000
     14384      4766  TIP3      H1             26.4773250248      -16.3651693232       19.7476628508  SOLV      4755            0.0000000000
     14385      4766  TIP3      H2             25.1922750248      -16.8335893232       20.3965828508  SOLV      4755            0.0000000000
     14386      4767  TIP3      OH2            24.2034950248        0.7102906768        2.6053228508  SOLV      4756            0.0000000000
     14387      4767  TIP3      H1             23.9359550248        0.9965806768        3.4786328508  SOLV      4756            0.0000000000
     14388      4767  TIP3      H2             24.9747550248        0.1642106768        2.7575728508  SOLV      4756            0.0000000000
     14389      4768  TIP3      OH2           -23.8416549752       12.0564106768        8.8377428508  SOLV      4757            0.0000000000
     14390      4768  TIP3      H1            -23.7525449752       13.0002306768        8.7054528508  SOLV      4757            0.0000000000
     14391      4768  TIP3      H2            -24.4798949752       11.7810506768        8.1796828508  SOLV      4757            0.0000000000
     14392      4769  TIP3      OH2           -24.9085249752       11.3114806768       12.2565628508  SOLV      4758            0.0000000000
     14393      4769  TIP3      H1            -24.9467749752       10.6651106768       12.9615228508  SOLV      4758            0.0000000000
     14394      4769  TIP3      H2            -25.2308749752       10.8449206768       11.4854328508  SOLV      4758            0.0000000000
     14395      4770  TIP3      OH2           -21.2025049752       14.2505206768       10.5580728508  SOLV      4759            0.0000000000
     14396      4770  TIP3      H1            -21.6432349752       13.5301206768       11.0086328508  SOLV      4759            0.0000000000
     14397      4770  TIP3      H2            -21.2155349752       14.9712406768       11.1878428508  SOLV      4759            0.0000000000
     14398      4771  TIP3      OH2           -24.0909549752       19.3546906768       10.7701128508  SOLV      4760            0.0000000000
     14399      4771  TIP3      H1            -23.4713149752       18.6781606768       10.4970328508  SOLV      4760            0.0000000000
     14400      4771  TIP3      H2            -24.2992149752       19.1367706768       11.6786028508  SOLV      4760            0.0000000000
     14401      4772  TIP3      OH2           -26.5190849752       13.7436206768       12.6626628508  SOLV      4761            0.0000000000
     14402      4772  TIP3      H1            -26.2152949752       13.0577606768       12.0680728508  SOLV      4761            0.0000000000
     14403      4772  TIP3      H2            -25.7976849752       13.8624906768       13.2804628508  SOLV      4761            0.0000000000
     14404      4773  TIP3      OH2           -17.8561049752        5.3451506768       13.5232828508  SOLV      4762            0.0000000000
     14405      4773  TIP3      H1            -17.8068849752        5.9552706768       14.2591928508  SOLV      4762            0.0000000000
     14406      4773  TIP3      H2            -17.4305949752        5.8062406768       12.8003928508  SOLV      4762            0.0000000000
     14407      4774  TIP3      OH2           -23.3783849752        8.1378606768       12.9901428508  SOLV      4763            0.0000000000
     14408      4774  TIP3      H1            -23.2357949752        7.1915606768       13.0103028508  SOLV      4763            0.0000000000
     14409      4774  TIP3      H2            -23.4844849752        8.3448406768       12.0616328508  SOLV      4763            0.0000000000
     14410      4775  TIP3      OH2           -30.2235549752        6.2395006768       10.2626228508  SOLV      4764            0.0000000000
     14411      4775  TIP3      H1            -30.1804449752        7.0993506768        9.8442528508  SOLV      4764            0.0000000000
     14412      4775  TIP3      H2            -30.6811449752        5.6869706768        9.6289428508  SOLV      4764            0.0000000000
     14413      4776  TIP3      OH2           -22.5012849752        6.3700606768        8.6634528508  SOLV      4765            0.0000000000
     14414      4776  TIP3      H1            -21.8548549752        6.0413806768        9.2882128508  SOLV      4765            0.0000000000
     14415      4776  TIP3      H2            -21.9913449752        6.8879606768        8.0405928508  SOLV      4765            0.0000000000
     14416      4777  TIP3      OH2           -28.4469549752       10.1862106768       10.2399128508  SOLV      4766            0.0000000000
     14417      4777  TIP3      H1            -27.8308549752        9.6597506768       10.7493128508  SOLV      4766            0.0000000000
     14418      4777  TIP3      H2            -29.0330749752        9.5460806768        9.8362728508  SOLV      4766            0.0000000000
     14419      4778  TIP3      OH2           -17.4646449752        6.8230706768       15.7592628508  SOLV      4767            0.0000000000
     14420      4778  TIP3      H1            -18.1531849752        7.4811406768       15.6639228508  SOLV      4767            0.0000000000
     14421      4778  TIP3      H2            -17.4491849752        6.6258606768       16.6958028508  SOLV      4767            0.0000000000
     14422      4779  TIP3      OH2           -31.4133649752        5.1573406768       14.3367028508  SOLV      4768            0.0000000000
     14423      4779  TIP3      H1            -31.6321949752        5.6874006768       13.5703028508  SOLV      4768            0.0000000000
     14424      4779  TIP3      H2            -32.0812749752        5.3838906768       14.9838428508  SOLV      4768            0.0000000000
     14425      4780  TIP3      OH2           -24.0443849752       14.6574506768        7.8806128508  SOLV      4769            0.0000000000
     14426      4780  TIP3      H1            -24.3398749752       14.3346806768        7.0293028508  SOLV      4769            0.0000000000
     14427      4780  TIP3      H2            -24.3686049752       15.5571206768        7.9218728508  SOLV      4769            0.0000000000
     14428      4781  TIP3      OH2           -28.8442249752       12.8329106768       14.6240728508  SOLV      4770            0.0000000000
     14429      4781  TIP3      H1            -29.5843149752       13.4310606768       14.7275928508  SOLV      4770            0.0000000000
     14430      4781  TIP3      H2            -28.1302749752       13.3868706768       14.3084328508  SOLV      4770            0.0000000000
     14431      4782  TIP3      OH2           -20.7374449752        5.6609906768       10.6440428508  SOLV      4771            0.0000000000
     14432      4782  TIP3      H1            -20.9526449752        4.8953306768       11.1766428508  SOLV      4771            0.0000000000
     14433      4782  TIP3      H2            -20.0817049752        6.1334506768       11.1568928508  SOLV      4771            0.0000000000
     14434      4783  TIP3      OH2           -31.8196349752        7.0495206768       12.2889228508  SOLV      4772            0.0000000000
     14435      4783  TIP3      H1            -31.2060049752        7.6822806768       12.6621628508  SOLV      4772            0.0000000000
     14436      4783  TIP3      H2            -31.3075649752        6.5770206768       11.6326128508  SOLV      4772            0.0000000000
     14437      4784  TIP3      OH2           -20.6907349752       16.0895906768       12.9060028508  SOLV      4773            0.0000000000
     14438      4784  TIP3      H1            -21.6323649752       16.1479806768       13.0676928508  SOLV      4773            0.0000000000
     14439      4784  TIP3      H2            -20.4141249752       16.9956406768       12.7689728508  SOLV      4773            0.0000000000
     14440      4785  TIP3      OH2           -20.3900349752        4.3761206768       14.3233928508  SOLV      4774            0.0000000000
     14441      4785  TIP3      H1            -21.1261149752        4.9868306768       14.2855228508  SOLV      4774            0.0000000000
     14442      4785  TIP3      H2            -19.7066349752        4.7910206768       13.7970328508  SOLV      4774            0.0000000000
     14443      4786  TIP3      OH2           -27.3868949752        2.4628506768       11.7891928508  SOLV      4775            0.0000000000
     14444      4786  TIP3      H1            -27.5044749752        1.5144506768       11.7350228508  SOLV      4775            0.0000000000
     14445      4786  TIP3      H2            -28.2418849752        2.7954606768       12.0623028508  SOLV      4775            0.0000000000
     14446      4787  TIP3      OH2           -22.4386149752       17.8709406768        9.5311628508  SOLV      4776            0.0000000000
     14447      4787  TIP3      H1            -22.0133849752       17.1637306768        9.0461228508  SOLV      4776            0.0000000000
     14448      4787  TIP3      H2            -22.1216149752       18.6722106768        9.1143828508  SOLV      4776            0.0000000000
     14449      4788  TIP3      OH2           -21.2789649752       15.7717906768        8.0398228508  SOLV      4777            0.0000000000
     14450      4788  TIP3      H1            -21.5364849752       15.0818006768        7.4284128508  SOLV      4777            0.0000000000
     14451      4788  TIP3      H2            -21.2078849752       15.3289106768        8.8854128508  SOLV      4777            0.0000000000
     14452      4789  TIP3      OH2           -19.5929449752       14.3384606768       16.5171728508  SOLV      4778            0.0000000000
     14453      4789  TIP3      H1            -19.4533149752       13.7467106768       15.7778728508  SOLV      4778            0.0000000000
     14454      4789  TIP3      H2            -19.4256649752       15.2110506768       16.1610528508  SOLV      4778            0.0000000000
     14455      4790  TIP3      OH2           -25.1204049752       11.3004106768        6.2897728508  SOLV      4779            0.0000000000
     14456      4790  TIP3      H1            -25.8318549752       11.8353806768        5.9378228508  SOLV      4779            0.0000000000
     14457      4790  TIP3      H2            -24.4294449752       11.3556206768        5.6296628508  SOLV      4779            0.0000000000
     14458      4791  TIP3      OH2           -25.0664849752        9.7578406768        3.3282728508  SOLV      4780            0.0000000000
     14459      4791  TIP3      H1            -24.3654949752        9.7805306768        3.9796728508  SOLV      4780            0.0000000000
     14460      4791  TIP3      H2            -24.7641949752        9.1298106768        2.6722028508  SOLV      4780            0.0000000000
     14461      4792  TIP3      OH2           -17.7510149752       10.6782606768       14.5832128508  SOLV      4781            0.0000000000
     14462      4792  TIP3      H1            -18.4036049752       11.3728206768       14.6723028508  SOLV      4781            0.0000000000
     14463      4792  TIP3      H2            -17.2859849752       10.8883506768       13.7733728508  SOLV      4781            0.0000000000
     14464      4793  TIP3      OH2           -21.7146349752       11.5097406768        7.2413628508  SOLV      4782            0.0000000000
     14465      4793  TIP3      H1            -22.4465349752       11.7381106768        7.8144228508  SOLV      4782            0.0000000000
     14466      4793  TIP3      H2            -21.2674149752       10.7960106768        7.6961128508  SOLV      4782            0.0000000000
     14467      4794  TIP3      OH2           -21.8172849752        9.6840006768       16.3090628508  SOLV      4783            0.0000000000
     14468      4794  TIP3      H1            -21.7373749752       10.4474406768       16.8809128508  SOLV      4783            0.0000000000
     14469      4794  TIP3      H2            -22.4185149752        9.9632406768       15.6185728508  SOLV      4783            0.0000000000
     14470      4795  TIP3      OH2           -30.0692649752       12.1403606768        9.1238628508  SOLV      4784            0.0000000000
     14471      4795  TIP3      H1            -30.3997449752       11.7697006768        8.3055628508  SOLV      4784            0.0000000000
     14472      4795  TIP3      H2            -29.4808549752       11.4697606768        9.4706928508  SOLV      4784            0.0000000000
     14473      4796  TIP3      OH2           -28.7025149752       15.5684206768       11.8050828508  SOLV      4785            0.0000000000
     14474      4796  TIP3      H1            -28.7973849752       14.9897306768       11.0485428508  SOLV      4785            0.0000000000
     14475      4796  TIP3      H2            -27.9731549752       15.1969906768       12.3013628508  SOLV      4785            0.0000000000
     14476      4797  TIP3      OH2           -29.7027149752       10.9089206768       12.7573628508  SOLV      4786            0.0000000000
     14477      4797  TIP3      H1            -29.1374649752       11.0303406768       11.9944828508  SOLV      4786            0.0000000000
     14478      4797  TIP3      H2            -29.3838249752       11.5464206768       13.3962128508  SOLV      4786            0.0000000000
     14479      4798  TIP3      OH2           -23.3934949752       16.4121106768       13.4914128508  SOLV      4787            0.0000000000
     14480      4798  TIP3      H1            -23.6338349752       17.0744206768       14.1393328508  SOLV      4787            0.0000000000
     14481      4798  TIP3      H2            -23.5916749752       15.5776306768       13.9163728508  SOLV      4787            0.0000000000
     14482      4799  TIP3      OH2           -22.8436849752       10.6720306768        4.9264828508  SOLV      4788            0.0000000000
     14483      4799  TIP3      H1            -22.2641349752       10.8220606768        5.6733728508  SOLV      4788            0.0000000000
     14484      4799  TIP3      H2            -22.4296849752       11.1427706768        4.2031228508  SOLV      4788            0.0000000000
     14485      4800  TIP3      OH2           -25.1171949752       17.4088806768        8.3617928508  SOLV      4789            0.0000000000
     14486      4800  TIP3      H1            -24.6434349752       17.7045106768        9.1392128508  SOLV      4789            0.0000000000
     14487      4800  TIP3      H2            -25.6802649752       18.1470406768        8.1287528508  SOLV      4789            0.0000000000
     14488      4801  TIP3      OH2           -19.1448449752        2.4220706768        4.7394528508  SOLV      4790            0.0000000000
     14489      4801  TIP3      H1            -20.0447749752        2.5609706768        5.0345128508  SOLV      4790            0.0000000000
     14490      4801  TIP3      H2            -18.8930049752        3.2535306768        4.3376228508  SOLV      4790            0.0000000000
     14491      4802  TIP3      OH2           -17.9557049752       16.7883106768        3.1158428508  SOLV      4791            0.0000000000
     14492      4802  TIP3      H1            -17.8823549752       17.7273306768        3.2863728508  SOLV      4791            0.0000000000
     14493      4802  TIP3      H2            -17.0501949752       16.4831706768        3.0595728508  SOLV      4791            0.0000000000
     14494      4803  TIP3      OH2           -17.0378649752       17.0190606768       18.0945128508  SOLV      4792            0.0000000000
     14495      4803  TIP3      H1            -17.0871849752       16.0638706768       18.0572728508  SOLV      4792            0.0000000000
     14496      4803  TIP3      H2            -17.8646349752       17.2865906768       18.4958928508  SOLV      4792            0.0000000000
     14497      4804  TIP3      OH2           -26.0594649752       16.5929806768       16.9706528508  SOLV      4793            0.0000000000
     14498      4804  TIP3      H1            -25.9720049752       17.4194406768       17.4455628508  SOLV      4793            0.0000000000
     14499      4804  TIP3      H2            -26.9229549752       16.2633606768       17.2195828508  SOLV      4793            0.0000000000
     14500      4805  TIP3      OH2           -25.6448849752       20.3653506768        6.7767128508  SOLV      4794            0.0000000000
     14501      4805  TIP3      H1            -25.7202849752       20.2440706768        5.8302328508  SOLV      4794            0.0000000000
     14502      4805  TIP3      H2            -25.6120149752       21.3146206768        6.8951728508  SOLV      4794            0.0000000000
     14503      4806  TIP3      OH2           -22.5432849752       19.5193706768        3.7789528508  SOLV      4795            0.0000000000
     14504      4806  TIP3      H1            -22.1684449752       18.7749806768        3.3082128508  SOLV      4795            0.0000000000
     14505      4806  TIP3      H2            -22.5389149752       19.2494306768        4.6972828508  SOLV      4795            0.0000000000
     14506      4807  TIP3      OH2           -22.8744749752       19.4450806768        6.5281728508  SOLV      4796            0.0000000000
     14507      4807  TIP3      H1            -23.8094949752       19.5452706768        6.7068728508  SOLV      4796            0.0000000000
     14508      4807  TIP3      H2            -22.5942849752       18.7356806768        7.1064928508  SOLV      4796            0.0000000000
     14509      4808  TIP3      OH2           -19.8858849752        8.5123106768       18.5747328508  SOLV      4797            0.0000000000
     14510      4808  TIP3      H1            -20.2932049752        8.9928706768       17.8540628508  SOLV      4797            0.0000000000
     14511      4808  TIP3      H2            -19.8453149752        7.6069106768       18.2668128508  SOLV      4797            0.0000000000
     14512      4809  TIP3      OH2           -30.1181349752        3.3663006768       12.5668228508  SOLV      4798            0.0000000000
     14513      4809  TIP3      H1            -30.9797649752        3.2791206768       12.1591128508  SOLV      4798            0.0000000000
     14514      4809  TIP3      H2            -30.1405649752        4.2223106768       12.9945828508  SOLV      4798            0.0000000000
     14515      4810  TIP3      OH2           -25.4553549752        3.0883406768       15.9415228508  SOLV      4799            0.0000000000
     14516      4810  TIP3      H1            -25.0350449752        2.6730506768       16.6945828508  SOLV      4799            0.0000000000
     14517      4810  TIP3      H2            -26.3883949752        2.9096706768       16.0587228508  SOLV      4799            0.0000000000
     14518      4811  TIP3      OH2           -22.1288649752        6.8438606768       16.7949728508  SOLV      4800            0.0000000000
     14519      4811  TIP3      H1            -22.6429149752        6.7180806768       17.5925728508  SOLV      4800            0.0000000000
     14520      4811  TIP3      H2            -22.2843949752        7.7561706768       16.5505928508  SOLV      4800            0.0000000000
     14521      4812  TIP3      OH2           -21.3663749752       11.7048606768        2.5562728508  SOLV      4801            0.0000000000
     14522      4812  TIP3      H1            -21.3242949752       11.4822506768        1.6262728508  SOLV      4801            0.0000000000
     14523      4812  TIP3      H2            -20.5171649752       12.1035706768        2.7462628508  SOLV      4801            0.0000000000
     14524      4813  TIP3      OH2           -25.7936249752        5.5806806768        3.2266028508  SOLV      4802            0.0000000000
     14525      4813  TIP3      H1            -26.0471449752        5.5998406768        4.1494128508  SOLV      4802            0.0000000000
     14526      4813  TIP3      H2            -26.0504149752        4.7092206768        2.9252228508  SOLV      4802            0.0000000000
     14527      4814  TIP3      OH2           -30.0271249752        8.3317506768       13.6618428508  SOLV      4803            0.0000000000
     14528      4814  TIP3      H1            -30.6689149752        8.2914806768       14.3708528508  SOLV      4803            0.0000000000
     14529      4814  TIP3      H2            -29.9899249752        9.2582206768       13.4241428508  SOLV      4803            0.0000000000
     14530      4815  TIP3      OH2           -30.0302149752        8.5527606768        8.5738428508  SOLV      4804            0.0000000000
     14531      4815  TIP3      H1            -30.9229249752        8.2123706768        8.5152228508  SOLV      4804            0.0000000000
     14532      4815  TIP3      H2            -29.5795549752        8.1758506768        7.8181628508  SOLV      4804            0.0000000000
     14533      4816  TIP3      OH2           -24.4946649752        8.9687906768        7.3909228508  SOLV      4805            0.0000000000
     14534      4816  TIP3      H1            -24.9036349752        9.7836506768        7.0994028508  SOLV      4805            0.0000000000
     14535      4816  TIP3      H2            -23.7740449752        8.8288006768        6.7766328508  SOLV      4805            0.0000000000
     14536      4817  TIP3      OH2           -25.3925049752        9.1444306768       18.8789928508  SOLV      4806            0.0000000000
     14537      4817  TIP3      H1            -25.9551249752        8.4395906768       19.1997728508  SOLV      4806            0.0000000000
     14538      4817  TIP3      H2            -24.5661649752        9.0236206768       19.3467528508  SOLV      4806            0.0000000000
     14539      4818  TIP3      OH2           -23.4898949752        8.4148306768       10.2048928508  SOLV      4807            0.0000000000
     14540      4818  TIP3      H1            -23.6854449752        9.0205106768        9.4899528508  SOLV      4807            0.0000000000
     14541      4818  TIP3      H2            -23.3086349752        7.5813506768        9.7705228508  SOLV      4807            0.0000000000
     14542      4819  TIP3      OH2           -28.9113349752        6.0263306768        2.3276428508  SOLV      4808            0.0000000000
     14543      4819  TIP3      H1            -29.3422649752        5.5813406768        3.0573828508  SOLV      4808            0.0000000000
     14544      4819  TIP3      H2            -29.6294649752        6.3979606768        1.8153928508  SOLV      4808            0.0000000000
     14545      4820  TIP3      OH2           -24.2259749752       10.0529606768       14.8761328508  SOLV      4809            0.0000000000
     14546      4820  TIP3      H1            -23.9024949752        9.4219306768       14.2331828508  SOLV      4809            0.0000000000
     14547      4820  TIP3      H2            -24.6660449752        9.5181806768       15.5368728508  SOLV      4809            0.0000000000
     14548      4821  TIP3      OH2           -27.4486849752        5.9805106768        9.6602528508  SOLV      4810            0.0000000000
     14549      4821  TIP3      H1            -28.3595749752        6.0371906768        9.9488528508  SOLV      4810            0.0000000000
     14550      4821  TIP3      H2            -26.9433949752        5.9200606768       10.4709728508  SOLV      4810            0.0000000000
     14551      4822  TIP3      OH2           -28.9671649752        7.6094006768        6.1434728508  SOLV      4811            0.0000000000
     14552      4822  TIP3      H1            -28.0356149752        7.7384006768        6.3217828508  SOLV      4811            0.0000000000
     14553      4822  TIP3      H2            -29.1821349752        8.2788306768        5.4939428508  SOLV      4811            0.0000000000
     14554      4823  TIP3      OH2           -23.0434949752        5.2151406768       12.9244328508  SOLV      4812            0.0000000000
     14555      4823  TIP3      H1            -23.7203349752        5.3464506768       13.5884028508  SOLV      4812            0.0000000000
     14556      4823  TIP3      H2            -23.5290049752        5.0600906768       12.1142028508  SOLV      4812            0.0000000000
     14557      4824  TIP3      OH2           -30.2931449752        8.8036206768        3.7100828508  SOLV      4813            0.0000000000
     14558      4824  TIP3      H1            -30.8356349752        8.4240006768        3.0188428508  SOLV      4813            0.0000000000
     14559      4824  TIP3      H2            -29.4596549752        8.9980906768        3.2814928508  SOLV      4813            0.0000000000
     14560      4825  TIP3      OH2           -19.7559849752       20.8866806768       19.2011928508  SOLV      4814            0.0000000000
     14561      4825  TIP3      H1            -19.5561149752       21.3108706768       18.3667228508  SOLV      4814            0.0000000000
     14562      4825  TIP3      H2            -19.1006149752       21.2305006768       19.8082328508  SOLV      4814            0.0000000000
     14563      4826  TIP3      OH2           -26.1287149752        8.7678106768       11.5472128508  SOLV      4815            0.0000000000
     14564      4826  TIP3      H1            -25.5643749752        8.2214706768       11.0001728508  SOLV      4815            0.0000000000
     14565      4826  TIP3      H2            -26.2763749752        8.2460006768       12.3359728508  SOLV      4815            0.0000000000
     14566      4827  TIP3      OH2           -31.1267449752        4.9044206768        7.9656928508  SOLV      4816            0.0000000000
     14567      4827  TIP3      H1            -31.4437949752        4.0019506768        7.9302328508  SOLV      4816            0.0000000000
     14568      4827  TIP3      H2            -30.3453349752        4.9061606768        7.4128528508  SOLV      4816            0.0000000000
     14569      4828  TIP3      OH2           -27.5021249752        7.1564206768       13.9612528508  SOLV      4817            0.0000000000
     14570      4828  TIP3      H1            -28.3375949752        7.6103706768       14.0714928508  SOLV      4817            0.0000000000
     14571      4828  TIP3      H2            -26.9780649752        7.4322706768       14.7132428508  SOLV      4817            0.0000000000
     14572      4829  TIP3      OH2           -26.9578649752       13.3691906768        5.6458928508  SOLV      4818            0.0000000000
     14573      4829  TIP3      H1            -27.7027649752       12.8617206768        5.3236828508  SOLV      4818            0.0000000000
     14574      4829  TIP3      H2            -27.0921449752       13.4179906768        6.5923728508  SOLV      4818            0.0000000000
     14575      4830  TIP3      OH2           -19.8079749752       12.5020106768       14.4326528508  SOLV      4819            0.0000000000
     14576      4830  TIP3      H1            -19.1660949752       12.9586406768       13.8888728508  SOLV      4819            0.0000000000
     14577      4830  TIP3      H2            -20.6382849752       12.6152506768       13.9700628508  SOLV      4819            0.0000000000
     14578      4831  TIP3      OH2           -23.0601849752        6.1831806768        3.8451528508  SOLV      4820            0.0000000000
     14579      4831  TIP3      H1            -23.9987649752        6.2947406768        3.6940328508  SOLV      4820            0.0000000000
     14580      4831  TIP3      H2            -22.7629749752        7.0398706768        4.1517228508  SOLV      4820            0.0000000000
     14581      4832  TIP3      OH2           -25.4386549752       13.5535206768       16.8828028508  SOLV      4821            0.0000000000
     14582      4832  TIP3      H1            -25.7840449752       13.1717606768       17.6897628508  SOLV      4821            0.0000000000
     14583      4832  TIP3      H2            -25.6386449752       14.4868806768       16.9540928508  SOLV      4821            0.0000000000
     14584      4833  TIP3      OH2           -22.3418349752        8.0504506768        5.5058928508  SOLV      4822            0.0000000000
     14585      4833  TIP3      H1            -21.4499349752        7.9129506768        5.8250128508  SOLV      4822            0.0000000000
     14586      4833  TIP3      H2            -22.2854749752        8.8410606768        4.9692428508  SOLV      4822            0.0000000000
     14587      4834  TIP3      OH2           -24.8324549752       14.8276206768        4.6713528508  SOLV      4823            0.0000000000
     14588      4834  TIP3      H1            -25.1276149752       15.6544106768        5.0528328508  SOLV      4823            0.0000000000
     14589      4834  TIP3      H2            -25.5354549752       14.2083106768        4.8674928508  SOLV      4823            0.0000000000
     14590      4835  TIP3      OH2           -27.8085749752       10.6418706768       18.9435028508  SOLV      4824            0.0000000000
     14591      4835  TIP3      H1            -28.1044949752       10.4761706768       18.0484128508  SOLV      4824            0.0000000000
     14592      4835  TIP3      H2            -26.8770549752       10.4219006768       18.9328928508  SOLV      4824            0.0000000000
     14593      4836  TIP3      OH2           -23.1882949752       16.0150706768       16.8333028508  SOLV      4825            0.0000000000
     14594      4836  TIP3      H1            -24.0888649752       16.1983306768       16.5656928508  SOLV      4825            0.0000000000
     14595      4836  TIP3      H2            -23.1541849752       16.2740006768       17.7541828508  SOLV      4825            0.0000000000
     14596      4837  TIP3      OH2           -17.4569649752        8.2598606768        5.2005628508  SOLV      4826            0.0000000000
     14597      4837  TIP3      H1            -18.0113349752        7.8636606768        4.5283128508  SOLV      4826            0.0000000000
     14598      4837  TIP3      H2            -17.3566049752        9.1703806768        4.9228928508  SOLV      4826            0.0000000000
     14599      4838  TIP3      OH2           -17.4937649752       14.0600306768       18.0377128508  SOLV      4827            0.0000000000
     14600      4838  TIP3      H1            -18.3449149752       14.2984106768       17.6703528508  SOLV      4827            0.0000000000
     14601      4838  TIP3      H2            -16.9034249752       14.0433506768       17.2844228508  SOLV      4827            0.0000000000
     14602      4839  TIP3      OH2           -19.1617949752       17.0459006768        5.6657728508  SOLV      4828            0.0000000000
     14603      4839  TIP3      H1            -19.5346849752       16.2202806768        5.9748328508  SOLV      4828            0.0000000000
     14604      4839  TIP3      H2            -18.8844449752       16.8628406768        4.7681128508  SOLV      4828            0.0000000000
     14605      4840  TIP3      OH2           -22.0014049752       11.8538506768       12.6869628508  SOLV      4829            0.0000000000
     14606      4840  TIP3      H1            -22.9297149752       11.6220406768       12.6598928508  SOLV      4829            0.0000000000
     14607      4840  TIP3      H2            -21.5502949752       11.0768306768       12.3568428508  SOLV      4829            0.0000000000
     14608      4841  TIP3      OH2           -28.0308649752       13.8450006768        8.3962628508  SOLV      4830            0.0000000000
     14609      4841  TIP3      H1            -28.2718649752       14.7704406768        8.4377928508  SOLV      4830            0.0000000000
     14610      4841  TIP3      H2            -28.7715049752       13.3861306768        8.7926528508  SOLV      4830            0.0000000000
     14611      4842  TIP3      OH2           -27.5162049752       17.9943606768       14.7113728508  SOLV      4831            0.0000000000
     14612      4842  TIP3      H1            -27.1537349752       18.8489206768       14.4778128508  SOLV      4831            0.0000000000
     14613      4842  TIP3      H2            -26.9846849752       17.7025206768       15.4520028508  SOLV      4831            0.0000000000
     14614      4843  TIP3      OH2           -23.9721249752       14.0934306768       14.4119328508  SOLV      4832            0.0000000000
     14615      4843  TIP3      H1            -24.3979949752       13.8656006768       15.2383328508  SOLV      4832            0.0000000000
     14616      4843  TIP3      H2            -23.3915449752       13.3546106768       14.2294628508  SOLV      4832            0.0000000000
     14617      4844  TIP3      OH2           -21.7692349752       15.0224806768        3.4858328508  SOLV      4833            0.0000000000
     14618      4844  TIP3      H1            -21.4159249752       14.6424606768        4.2901828508  SOLV      4833            0.0000000000
     14619      4844  TIP3      H2            -22.7178849752       14.9289606768        3.5727628508  SOLV      4833            0.0000000000
     14620      4845  TIP3      OH2           -21.3137049752       18.6453806768       16.8814128508  SOLV      4834            0.0000000000
     14621      4845  TIP3      H1            -21.9153849752       18.0896706768       16.3860428508  SOLV      4834            0.0000000000
     14622      4845  TIP3      H2            -21.0323349752       19.3123606768       16.2551528508  SOLV      4834            0.0000000000
     14623      4846  TIP3      OH2           -17.2657949752       19.5017306768        3.6868528508  SOLV      4835            0.0000000000
     14624      4846  TIP3      H1            -16.5220049752       20.0877806768        3.5470128508  SOLV      4835            0.0000000000
     14625      4846  TIP3      H2            -17.9599849752       20.0703106768        4.0200928508  SOLV      4835            0.0000000000
     14626      4847  TIP3      OH2           -20.9033049752       13.6946806768        5.7126228508  SOLV      4836            0.0000000000
     14627      4847  TIP3      H1            -21.1805449752       12.9666106768        6.2687328508  SOLV      4836            0.0000000000
     14628      4847  TIP3      H2            -19.9760049752       13.8138806768        5.9178828508  SOLV      4836            0.0000000000
     14629      4848  TIP3      OH2           -27.6784549752       16.1340906768        1.9328328508  SOLV      4837            0.0000000000
     14630      4848  TIP3      H1            -27.4394749752       15.3859006768        1.3857228508  SOLV      4837            0.0000000000
     14631      4848  TIP3      H2            -27.9473249752       15.7462606768        2.7656128508  SOLV      4837            0.0000000000
     14632      4849  TIP3      OH2           -28.7413949752       15.7044706768        4.3890928508  SOLV      4838            0.0000000000
     14633      4849  TIP3      H1            -28.5945949752       15.1844506768        5.1791828508  SOLV      4838            0.0000000000
     14634      4849  TIP3      H2            -28.7442249752       16.6112306768        4.6956828508  SOLV      4838            0.0000000000
     14635      4850  TIP3      OH2           -24.4567749752        5.6191806768       15.1785328508  SOLV      4839            0.0000000000
     14636      4850  TIP3      H1            -23.7579849752        5.6930506768       15.8285028508  SOLV      4839            0.0000000000
     14637      4850  TIP3      H2            -24.8376349752        4.7546806768       15.3328228508  SOLV      4839            0.0000000000
     14638      4851  TIP3      OH2           -23.6722849752        5.2713506768        6.2757628508  SOLV      4840            0.0000000000
     14639      4851  TIP3      H1            -23.4524549752        5.7428906768        5.4723028508  SOLV      4840            0.0000000000
     14640      4851  TIP3      H2            -23.1138849752        5.6656106768        6.9458228508  SOLV      4840            0.0000000000
     14641      4852  TIP3      OH2           -26.0036749752       17.4018306768        5.1385128508  SOLV      4841            0.0000000000
     14642      4852  TIP3      H1            -26.8200649752       17.8988006768        5.1909428508  SOLV      4841            0.0000000000
     14643      4852  TIP3      H2            -25.4740449752       17.8771806768        4.4983928508  SOLV      4841            0.0000000000
     14644      4853  TIP3      OH2           -26.4722949752        6.9992306768        7.1106028508  SOLV      4842            0.0000000000
     14645      4853  TIP3      H1            -25.6600349752        7.5035506768        7.1567728508  SOLV      4842            0.0000000000
     14646      4853  TIP3      H2            -26.7169949752        6.8542006768        8.0245628508  SOLV      4842            0.0000000000
     14647      4854  TIP3      OH2           -25.9366549752        7.9855006768       16.2952628508  SOLV      4843            0.0000000000
     14648      4854  TIP3      H1            -25.8176249752        8.5590406768       17.0523028508  SOLV      4843            0.0000000000
     14649      4854  TIP3      H2            -25.2811949752        7.2974406768       16.4100428508  SOLV      4843            0.0000000000
     14650      4855  TIP3      OH2           -25.5886249752        4.0805306768        8.0487128508  SOLV      4844            0.0000000000
     14651      4855  TIP3      H1            -25.9352749752        4.6975906768        8.6931428508  SOLV      4844            0.0000000000
     14652      4855  TIP3      H2            -24.9299349752        4.5811006768        7.5672628508  SOLV      4844            0.0000000000
     14653      4856  TIP3      OH2           -29.9309249752        5.1434706768        4.7359628508  SOLV      4845            0.0000000000
     14654      4856  TIP3      H1            -30.0144449752        6.0317806768        5.0826028508  SOLV      4845            0.0000000000
     14655      4856  TIP3      H2            -29.0408949752        4.8781406768        4.9676428508  SOLV      4845            0.0000000000
     14656      4857  TIP3      OH2           -19.7320749752        5.8925306768       17.1302328508  SOLV      4846            0.0000000000
     14657      4857  TIP3      H1            -20.6484949752        6.1547006768       17.0426028508  SOLV      4846            0.0000000000
     14658      4857  TIP3      H2            -19.3965749752        5.8894306768       16.2337628508  SOLV      4846            0.0000000000
     14659      4858  TIP3      OH2           -21.1299749752        9.6426306768       11.2259628508  SOLV      4847            0.0000000000
     14660      4858  TIP3      H1            -21.9275349752        9.2276506768       10.8974628508  SOLV      4847            0.0000000000
     14661      4858  TIP3      H2            -20.6848649752        8.9520006768       11.7170128508  SOLV      4847            0.0000000000
     14662      4859  TIP3      OH2           -20.0435149752       18.8988806768       12.8483128508  SOLV      4848            0.0000000000
     14663      4859  TIP3      H1            -20.1990849752       19.5773206768       12.1912428508  SOLV      4848            0.0000000000
     14664      4859  TIP3      H2            -19.1108749752       18.9708106768       13.0513728508  SOLV      4848            0.0000000000
     14665      4860  TIP3      OH2           -32.5482749752        3.0166506768       11.5854528508  SOLV      4849            0.0000000000
     14666      4860  TIP3      H1            -32.7772949752        3.0759006768       10.6579528508  SOLV      4849            0.0000000000
     14667      4860  TIP3      H2            -32.9909349752        2.2252006768       11.8918628508  SOLV      4849            0.0000000000
     14668      4861  TIP3      OH2           -25.6402749752       17.9972306768        2.0714328508  SOLV      4850            0.0000000000
     14669      4861  TIP3      H1            -26.2841749752       17.3660906768        2.3928028508  SOLV      4850            0.0000000000
     14670      4861  TIP3      H2            -24.8784449752       17.4660306768        1.8397828508  SOLV      4850            0.0000000000
     14671      4862  TIP3      OH2           -23.1553649752       16.8692806768       19.4254028508  SOLV      4851            0.0000000000
     14672      4862  TIP3      H1            -23.5064149752       16.0125806768       19.6684428508  SOLV      4851            0.0000000000
     14673      4862  TIP3      H2            -22.4290449752       17.0119506768       20.0323028508  SOLV      4851            0.0000000000
     14674      4863  TIP3      OH2           -21.0359849752       17.8142206768        2.3052328508  SOLV      4852            0.0000000000
     14675      4863  TIP3      H1            -20.7529449752       17.0197406768        2.7579228508  SOLV      4852            0.0000000000
     14676      4863  TIP3      H2            -20.2961949752       18.0473206768        1.7443428508  SOLV      4852            0.0000000000
     14677      4864  TIP3      OH2           -27.7670149752       13.3499506768       19.4629028508  SOLV      4853            0.0000000000
     14678      4864  TIP3      H1            -28.0956349752       13.6207606768       18.6056428508  SOLV      4853            0.0000000000
     14679      4864  TIP3      H2            -27.6151949752       12.4089306768       19.3754028508  SOLV      4853            0.0000000000
     14680      4865  TIP3      OH2           -24.7289149752       14.7708806768        1.8985228508  SOLV      4854            0.0000000000
     14681      4865  TIP3      H1            -24.9975049752       14.9510906768        2.7994128508  SOLV      4854            0.0000000000
     14682      4865  TIP3      H2            -24.9353549752       13.8455006768        1.7671028508  SOLV      4854            0.0000000000
     14683      4866  TIP3      OH2           -22.0324949752       13.2656806768       16.8461328508  SOLV      4855            0.0000000000
     14684      4866  TIP3      H1            -21.2870149752       13.8540506768       16.7265328508  SOLV      4855            0.0000000000
     14685      4866  TIP3      H2            -22.7898149752       13.8476506768       16.9094428508  SOLV      4855            0.0000000000
     14686      4867  TIP3      OH2           -28.9318749752       11.6963306768        4.4685228508  SOLV      4856            0.0000000000
     14687      4867  TIP3      H1            -29.3916749752       11.2121606768        5.1543728508  SOLV      4856            0.0000000000
     14688      4867  TIP3      H2            -28.6770049752       11.0278706768        3.8325728508  SOLV      4856            0.0000000000
     14689      4868  TIP3      OH2           -29.6429449752        9.5890406768       16.8244828508  SOLV      4857            0.0000000000
     14690      4868  TIP3      H1            -30.2613349752       10.2637006768       17.1049528508  SOLV      4857            0.0000000000
     14691      4868  TIP3      H2            -29.2988249752        9.9104306768       15.9911028508  SOLV      4857            0.0000000000
     14692      4869  TIP3      OH2           -27.8608349752        9.9395106768        2.7308428508  SOLV      4858            0.0000000000
     14693      4869  TIP3      H1            -28.0413349752        9.7846306768        1.8036728508  SOLV      4858            0.0000000000
     14694      4869  TIP3      H2            -26.9107849752       10.0473806768        2.7756328508  SOLV      4858            0.0000000000
     14695      4870  TIP3      OH2           -24.6231249752       12.0605706768       20.1019628508  SOLV      4859            0.0000000000
     14696      4870  TIP3      H1            -23.6700049752       12.1444806768       20.0745628508  SOLV      4859            0.0000000000
     14697      4870  TIP3      H2            -24.7836649752       11.3487506768       20.7214528508  SOLV      4859            0.0000000000
     14698      4871  TIP3      OH2           -18.4710049752       12.2939306768        2.1766528508  SOLV      4860            0.0000000000
     14699      4871  TIP3      H1            -18.7445249752       11.8694806768        1.3634828508  SOLV      4860            0.0000000000
     14700      4871  TIP3      H2            -18.4315949752       13.2253806768        1.9596928508  SOLV      4860            0.0000000000
     14701      4872  TIP3      OH2           -29.3035749752        6.9441206768       17.9067928508  SOLV      4861            0.0000000000
     14702      4872  TIP3      H1            -29.1534849752        6.2152506768       17.3047628508  SOLV      4861            0.0000000000
     14703      4872  TIP3      H2            -29.3013349752        7.7212906768       17.3480128508  SOLV      4861            0.0000000000
     14704      4873  TIP3      OH2           -28.8910049752        5.3137006768       15.3995328508  SOLV      4862            0.0000000000
     14705      4873  TIP3      H1            -28.3552549752        5.7653706768       14.7474628508  SOLV      4862            0.0000000000
     14706      4873  TIP3      H2            -29.7430449752        5.2056806768       14.9769428508  SOLV      4862            0.0000000000
     14707      4874  TIP3      OH2           -27.3091649752       10.7533206768       15.6390528508  SOLV      4863            0.0000000000
     14708      4874  TIP3      H1            -26.5586849752       10.5970706768       15.0658328508  SOLV      4863            0.0000000000
     14709      4874  TIP3      H2            -27.6483349752       11.6049806768       15.3636028508  SOLV      4863            0.0000000000
     14710      4875  TIP3      OH2           -22.8935449752        8.5685006768       20.6675828508  SOLV      4864            0.0000000000
     14711      4875  TIP3      H1            -22.7014149752        7.6374406768       20.5560328508  SOLV      4864            0.0000000000
     14712      4875  TIP3      H2            -22.0359149752        8.9934506768       20.6571228508  SOLV      4864            0.0000000000
     14713      4876  TIP3      OH2           -21.5768249752       11.3570206768       18.7448528508  SOLV      4865            0.0000000000
     14714      4876  TIP3      H1            -21.8583249752       12.0664806768       18.1672328508  SOLV      4865            0.0000000000
     14715      4876  TIP3      H2            -20.6343949752       11.2843206768       18.5939728508  SOLV      4865            0.0000000000
     14716      4877  TIP3      OH2           -30.8249449752        8.1424706768       19.8183528508  SOLV      4866            0.0000000000
     14717      4877  TIP3      H1            -31.5920449752        7.6099506768       19.6081128508  SOLV      4866            0.0000000000
     14718      4877  TIP3      H2            -30.1460449752        7.8325106768       19.2189828508  SOLV      4866            0.0000000000
     14719      4878  TIP3      OH2           -28.0854549752        2.7702706768       15.8308928508  SOLV      4867            0.0000000000
     14720      4878  TIP3      H1            -28.1834949752        3.7165906768       15.7255128508  SOLV      4867            0.0000000000
     14721      4878  TIP3      H2            -28.8278349752        2.3976506768       15.3552428508  SOLV      4867            0.0000000000
     14722      4879  TIP3      OH2           -26.8214049752        7.0918106768       19.3947328508  SOLV      4868            0.0000000000
     14723      4879  TIP3      H1            -27.0568649752        6.8724806768       20.2962228508  SOLV      4868            0.0000000000
     14724      4879  TIP3      H2            -27.6047149752        6.8849306768       18.8849828508  SOLV      4868            0.0000000000
     14725      4880  TIP3      OH2           -24.1057449752        6.2191606768       18.4700828508  SOLV      4869            0.0000000000
     14726      4880  TIP3      H1            -25.0532049752        6.2511306768       18.6024128508  SOLV      4869            0.0000000000
     14727      4880  TIP3      H2            -23.7930749752        5.5938706768       19.1239028508  SOLV      4869            0.0000000000
     14728      4881  TIP3      OH2           -22.4715949752        4.8532706768       20.4752728508  SOLV      4870            0.0000000000
     14729      4881  TIP3      H1            -22.5684149752        3.9010006768       20.4694628508  SOLV      4870            0.0000000000
     14730      4881  TIP3      H2            -22.7932849752        5.1219506768       21.3358228508  SOLV      4870            0.0000000000
     14731      4882  TIP3      OH2           -27.8636449752        2.0640106768       18.5021728508  SOLV      4871            0.0000000000
     14732      4882  TIP3      H1            -27.1518049752        1.4242306768       18.4880828508  SOLV      4871            0.0000000000
     14733      4882  TIP3      H2            -27.9646049752        2.3308406768       17.5884828508  SOLV      4871            0.0000000000
     14734      4883  TIP3      OH2           -27.5098949752        3.7468506768       20.5558028508  SOLV      4872            0.0000000000
     14735      4883  TIP3      H1            -27.6416749752        3.2712306768       19.7356528508  SOLV      4872            0.0000000000
     14736      4883  TIP3      H2            -28.1091549752        4.4912106768       20.5005128508  SOLV      4872            0.0000000000
     14737      4884  TIP3      OH2           -17.3277149752       19.5494506768       13.0775028508  SOLV      4873            0.0000000000
     14738      4884  TIP3      H1            -17.3490449752       19.7342906768       14.0164428508  SOLV      4873            0.0000000000
     14739      4884  TIP3      H2            -16.6370949752       20.1178506768       12.7366428508  SOLV      4873            0.0000000000
     14740      4885  TIP3      OH2           -17.7644249752       19.1165606768       15.9994128508  SOLV      4874            0.0000000000
     14741      4885  TIP3      H1            -18.2515549752       18.3809706768       15.6281528508  SOLV      4874            0.0000000000
     14742      4885  TIP3      H2            -17.2151549752       18.7229506768       16.6773528508  SOLV      4874            0.0000000000
     14743      4886  TIP3      OH2           -19.3136949752       14.9063706768       20.6374428508  SOLV      4875            0.0000000000
     14744      4886  TIP3      H1            -20.1795849752       14.8013406768       21.0316728508  SOLV      4875            0.0000000000
     14745      4886  TIP3      H2            -18.9371049752       15.6647006768       21.0839128508  SOLV      4875            0.0000000000
     14746      4887  TIP3      OH2           -18.0127249752       13.1627406768        6.1516928508  SOLV      4876            0.0000000000
     14747      4887  TIP3      H1            -17.1625849752       13.5838306768        6.2788528508  SOLV      4876            0.0000000000
     14748      4887  TIP3      H2            -18.0072149752       12.4227506768        6.7588328508  SOLV      4876            0.0000000000
     14749      4888  TIP3      OH2           -17.6181649752       11.2164806768        7.9752628508  SOLV      4877            0.0000000000
     14750      4888  TIP3      H1            -18.3447049752       10.7367406768        8.3730228508  SOLV      4877            0.0000000000
     14751      4888  TIP3      H2            -17.0368349752       11.4219506768        8.7074228508  SOLV      4877            0.0000000000
     14752      4889  TIP3      OH2           -17.8590449752       14.0012306768       12.9230228508  SOLV      4878            0.0000000000
     14753      4889  TIP3      H1            -17.0256249752       13.6232306768       12.6423828508  SOLV      4878            0.0000000000
     14754      4889  TIP3      H2            -17.7470149752       14.9443506768       12.8039328508  SOLV      4878            0.0000000000
     14755      4890  TIP3      OH2           -19.3728149752       16.8789806768       15.2298628508  SOLV      4879            0.0000000000
     14756      4890  TIP3      H1            -20.0202849752       17.2041306768       15.8553828508  SOLV      4879            0.0000000000
     14757      4890  TIP3      H2            -19.8904149752       16.4387506768       14.5556928508  SOLV      4879            0.0000000000
     14758      4891  TIP3      OH2           -17.3498549752       11.1173306768        4.3663928508  SOLV      4880            0.0000000000
     14759      4891  TIP3      H1            -17.8717449752       11.4737406768        3.6474828508  SOLV      4880            0.0000000000
     14760      4891  TIP3      H2            -17.3829349752       11.7921106768        5.0444828508  SOLV      4880            0.0000000000
     14761      4892  TIP3      OH2           -19.0009549752        8.3568906768        2.9171028508  SOLV      4881            0.0000000000
     14762      4892  TIP3      H1            -18.9045149752        9.0235906768        2.2370728508  SOLV      4881            0.0000000000
     14763      4892  TIP3      H2            -19.1409949752        7.5415206768        2.4356528508  SOLV      4881            0.0000000000
     14764      4893  TIP3      OH2           -19.8314849752        9.7371306768        8.5381328508  SOLV      4882            0.0000000000
     14765      4893  TIP3      H1            -19.9816049752        8.7919906768        8.5179128508  SOLV      4882            0.0000000000
     14766      4893  TIP3      H2            -20.1850349752       10.0182706768        9.3820428508  SOLV      4882            0.0000000000
     14767      4894  TIP3      OH2           -18.9751949752       11.7074606768       18.1769628508  SOLV      4883            0.0000000000
     14768      4894  TIP3      H1            -18.3924649752       10.9726906768       18.3686828508  SOLV      4883            0.0000000000
     14769      4894  TIP3      H2            -18.4112649752       12.4794906768       18.2235428508  SOLV      4883            0.0000000000
     14770      4895  TIP3      OH2           -17.4784849752        9.6100406768       18.8615028508  SOLV      4884            0.0000000000
     14771      4895  TIP3      H1            -18.3418149752        9.2312506768       18.6959728508  SOLV      4884            0.0000000000
     14772      4895  TIP3      H2            -16.8741149752        8.8715206768       18.7870828508  SOLV      4884            0.0000000000
     14773      4896  TIP3      OH2           -19.7535749752        5.7648706768        2.0346528508  SOLV      4885            0.0000000000
     14774      4896  TIP3      H1            -19.1429949752        5.3935506768        2.6714728508  SOLV      4885            0.0000000000
     14775      4896  TIP3      H2            -20.5904249752        5.3435606768        2.2306528508  SOLV      4885            0.0000000000
     14776      4897  TIP3      OH2           -20.1210049752        7.3197106768        7.0006428508  SOLV      4886            0.0000000000
     14777      4897  TIP3      H1            -19.8412949752        6.4127506768        7.1248128508  SOLV      4886            0.0000000000
     14778      4897  TIP3      H2            -19.3618349752        7.7538606768        6.6115628508  SOLV      4886            0.0000000000
     14779      4898  TIP3      OH2           -19.5091749752        7.9014506768       12.4365328508  SOLV      4887            0.0000000000
     14780      4898  TIP3      H1            -18.5763749752        8.1134406768       12.4021328508  SOLV      4887            0.0000000000
     14781      4898  TIP3      H2            -19.7444249752        8.0026606768       13.3588328508  SOLV      4887            0.0000000000
     14782      4899  TIP3      OH2           -19.4799849752        8.6379806768       15.2124728508  SOLV      4888            0.0000000000
     14783      4899  TIP3      H1            -20.3228549752        8.9060206768       15.5784528508  SOLV      4888            0.0000000000
     14784      4899  TIP3      H2            -19.0375549752        9.4601706768       15.0015828508  SOLV      4888            0.0000000000
     14785      4900  TIP3      OH2           -17.1968249752        2.6180006768       20.5659728508  SOLV      4889            0.0000000000
     14786      4900  TIP3      H1            -16.8471249752        1.9643506768       19.9604428508  SOLV      4889            0.0000000000
     14787      4900  TIP3      H2            -17.0498749752        3.4554106768       20.1262328508  SOLV      4889            0.0000000000
     14788      4901  TIP3      OH2           -19.5075249752        4.5826406768        7.0488428508  SOLV      4890            0.0000000000
     14789      4901  TIP3      H1            -19.3250249752        4.1337906768        7.8743428508  SOLV      4890            0.0000000000
     14790      4901  TIP3      H2            -20.1072349752        3.9980806768        6.5853028508  SOLV      4890            0.0000000000
     14791      4902  TIP3      OH2           -17.6771049752        4.7274606768       18.9151028508  SOLV      4891            0.0000000000
     14792      4902  TIP3      H1            -18.5945349752        4.9981706768       18.8794528508  SOLV      4891            0.0000000000
     14793      4902  TIP3      H2            -17.5541649752        4.1923006768       18.1310728508  SOLV      4891            0.0000000000
     14794      4903  TIP3      OH2           -17.6409049752        4.6504506768        3.5768728508  SOLV      4892            0.0000000000
     14795      4903  TIP3      H1            -17.2286449752        3.9290206768        3.1016728508  SOLV      4892            0.0000000000
     14796      4903  TIP3      H2            -16.9592549752        5.3199106768        3.6353028508  SOLV      4892            0.0000000000
     14797      4904  TIP3      OH2           -20.5891149752       19.6393906768        8.6496828508  SOLV      4893            0.0000000000
     14798      4904  TIP3      H1            -19.9368249752       19.2916006768        8.0415928508  SOLV      4893            0.0000000000
     14799      4904  TIP3      H2            -20.0787349752       20.1277106768        9.2956528508  SOLV      4893            0.0000000000
     14800      4905  TIP3      OH2           -25.9389349752       18.9416506768       18.4105428508  SOLV      4894            0.0000000000
     14801      4905  TIP3      H1            -25.7541849752       18.6082606768       19.2885728508  SOLV      4894            0.0000000000
     14802      4905  TIP3      H2            -25.0924849752       19.2515106768       18.0884628508  SOLV      4894            0.0000000000
     14803      4906  TIP3      OH2           -23.5938949752       20.2275406768       17.6546828508  SOLV      4895            0.0000000000
     14804      4906  TIP3      H1            -22.9170049752       19.5947706768       17.4146028508  SOLV      4895            0.0000000000
     14805      4906  TIP3      H2            -23.2720149752       20.6285906768       18.4620128508  SOLV      4895            0.0000000000
     14806      4907  TIP3      OH2           -18.6765149752        2.8170906768       16.7341828508  SOLV      4896            0.0000000000
     14807      4907  TIP3      H1            -19.4891649752        3.1421206768       16.3466528508  SOLV      4896            0.0000000000
     14808      4907  TIP3      H2            -18.4436649752        2.0569406768       16.2010928508  SOLV      4896            0.0000000000
     14809      4908  TIP3      OH2           -25.6705849752       20.2873206768       13.7040228508  SOLV      4897            0.0000000000
     14810      4908  TIP3      H1            -26.1271849752       20.8162906768       13.0498628508  SOLV      4897            0.0000000000
     14811      4908  TIP3      H2            -25.5077849752       20.8904606768       14.4292528508  SOLV      4897            0.0000000000
     14812      4909  TIP3      OH2           -23.3429549752       19.1652806768       14.6490528508  SOLV      4898            0.0000000000
     14813      4909  TIP3      H1            -24.2475849752       19.3303006768       14.3832628508  SOLV      4898            0.0000000000
     14814      4909  TIP3      H2            -22.9140949752       20.0185006768       14.5833928508  SOLV      4898            0.0000000000
     14815      4910  TIP3      OH2           -20.7387649752       20.7351906768       14.9438328508  SOLV      4899            0.0000000000
     14816      4910  TIP3      H1            -20.9205649752       21.6510806768       14.7333228508  SOLV      4899            0.0000000000
     14817      4910  TIP3      H2            -20.5619849752       20.3249006768       14.0972928508  SOLV      4899            0.0000000000
     14818      4911  TIP3      OH2           -25.2466649752        4.2661506768       11.0570028508  SOLV      4900            0.0000000000
     14819      4911  TIP3      H1            -25.9209849752        3.6367106768       11.3125828508  SOLV      4900            0.0000000000
     14820      4911  TIP3      H2            -24.6827449752        3.7820406768       10.4537928508  SOLV      4900            0.0000000000
     14821      4912  TIP3      OH2           -20.1039449752        2.3735506768       11.1697128508  SOLV      4901            0.0000000000
     14822      4912  TIP3      H1            -19.5001849752        2.9210906768       10.6678128508  SOLV      4901            0.0000000000
     14823      4912  TIP3      H2            -20.9737449752        2.6925906768       10.9291228508  SOLV      4901            0.0000000000
     14824      4913  TIP3      OH2           -18.3769049752        3.5124206768        9.5028028508  SOLV      4902            0.0000000000
     14825      4913  TIP3      H1            -17.7651549752        2.9979906768        8.9761628508  SOLV      4902            0.0000000000
     14826      4913  TIP3      H2            -17.9945649752        4.3896306768        9.5262428508  SOLV      4902            0.0000000000
     14827      4914  TIP3      OH2           -32.9199149752        2.9001806768        8.8789928508  SOLV      4903            0.0000000000
     14828      4914  TIP3      H1            -33.6969349752        2.6656706768        8.3715828508  SOLV      4903            0.0000000000
     14829      4914  TIP3      H2            -32.3895549752        2.1033906768        8.8877928508  SOLV      4903            0.0000000000
     14830      4915  TIP3      OH2           -28.3406549752        2.8268906768        8.6923028508  SOLV      4904            0.0000000000
     14831      4915  TIP3      H1            -27.4663149752        3.2153206768        8.6627328508  SOLV      4904            0.0000000000
     14832      4915  TIP3      H2            -28.4765749752        2.6116706768        9.6150228508  SOLV      4904            0.0000000000
     14833      4916  TIP3      OH2           -22.7838149752        2.8568706768       10.3414728508  SOLV      4905            0.0000000000
     14834      4916  TIP3      H1            -22.7076549752        2.9520306768        9.3920728508  SOLV      4905            0.0000000000
     14835      4916  TIP3      H2            -23.0588949752        1.9491606768       10.4703828508  SOLV      4905            0.0000000000
     14836      4917  TIP3      OH2           -21.4305549752        2.8826506768        6.0339728508  SOLV      4906            0.0000000000
     14837      4917  TIP3      H1            -22.1334449752        3.4975706768        5.8241128508  SOLV      4906            0.0000000000
     14838      4917  TIP3      H2            -21.8754149752        2.0453206768        6.1650628508  SOLV      4906            0.0000000000
     14839      4918  TIP3      OH2           -32.2226649752        4.6141406768        3.1250128508  SOLV      4907            0.0000000000
     14840      4918  TIP3      H1            -31.7313249752        3.9843806768        2.5975628508  SOLV      4907            0.0000000000
     14841      4918  TIP3      H2            -31.5990349752        4.9100806768        3.7881328508  SOLV      4907            0.0000000000
     14842      4919  TIP3      OH2           -27.1966549752        4.9072906768        5.5820628508  SOLV      4908            0.0000000000
     14843      4919  TIP3      H1            -27.0185249752        4.2606106768        6.2649228508  SOLV      4908            0.0000000000
     14844      4919  TIP3      H2            -27.2500349752        5.7410606768        6.0491728508  SOLV      4908            0.0000000000
     14845      4920  TIP3      OH2           -25.3182749752       19.8557006768        3.9777328508  SOLV      4909            0.0000000000
     14846      4920  TIP3      H1            -24.4522549752       20.2224406768        3.7995528508  SOLV      4909            0.0000000000
     14847      4920  TIP3      H2            -25.5649949752       19.4165006768        3.1638128508  SOLV      4909            0.0000000000
     14848      4921  TIP3      OH2           -18.6093149752       19.4187306768        6.6568428508  SOLV      4910            0.0000000000
     14849      4921  TIP3      H1            -18.8036049752       18.6709406768        6.0918028508  SOLV      4910            0.0000000000
     14850      4921  TIP3      H2            -18.6483049752       20.1767406768        6.0736328508  SOLV      4910            0.0000000000
     14851      4922  TIP3      OH2           -32.9621149752        3.4143706768       18.3966128508  SOLV      4911            0.0000000000
     14852      4922  TIP3      H1            -33.3282949752        2.6486306768       18.8390828508  SOLV      4911            0.0000000000
     14853      4922  TIP3      H2            -32.0492649752        3.4433906768       18.6831228508  SOLV      4911            0.0000000000
     14854      4923  TIP3      OH2           -30.9890349752        2.7648106768       19.9323228508  SOLV      4912            0.0000000000
     14855      4923  TIP3      H1            -30.0906749752        2.4908306768       19.7476628508  SOLV      4912            0.0000000000
     14856      4923  TIP3      H2            -31.3757249752        2.0224106768       20.3965828508  SOLV      4912            0.0000000000
     14857      4924  TIP3      OH2           -22.5678049752        2.0973406768       20.1146028508  SOLV      4913            0.0000000000
     14858      4924  TIP3      H1            -22.4910849752        1.6714106768       20.9683728508  SOLV      4913            0.0000000000
     14859      4924  TIP3      H2            -21.6741449752        2.1108106768       19.7719528508  SOLV      4913            0.0000000000
     14860      4925  TIP3      OH2           -19.3916949752       18.1699706768       18.8070228508  SOLV      4914            0.0000000000
     14861      4925  TIP3      H1            -20.1735049752       17.9837706768       18.2870828508  SOLV      4914            0.0000000000
     14862      4925  TIP3      H2            -19.4637049752       19.0994006768       19.0242728508  SOLV      4914            0.0000000000
     14863      4926  TIP3      OH2            -4.9856549752       12.0564106768        8.8377428508  SOLV      4915            0.0000000000
     14864      4926  TIP3      H1             -4.8965449752       13.0002306768        8.7054528508  SOLV      4915            0.0000000000
     14865      4926  TIP3      H2             -5.6238949752       11.7810506768        8.1796828508  SOLV      4915            0.0000000000
     14866      4927  TIP3      OH2            -6.0525249752       11.3114806768       12.2565628508  SOLV      4916            0.0000000000
     14867      4927  TIP3      H1             -6.0907749752       10.6651106768       12.9615228508  SOLV      4916            0.0000000000
     14868      4927  TIP3      H2             -6.3748749752       10.8449206768       11.4854328508  SOLV      4916            0.0000000000
     14869      4928  TIP3      OH2           -13.6840249752       10.9256906768       13.8495528508  SOLV      4917            0.0000000000
     14870      4928  TIP3      H1            -13.6428149752       10.3000206768       14.5727928508  SOLV      4917            0.0000000000
     14871      4928  TIP3      H2            -12.9812549752       11.5495506768       14.0315928508  SOLV      4917            0.0000000000
     14872      4929  TIP3      OH2            -2.3465049752       14.2505206768       10.5580728508  SOLV      4918            0.0000000000
     14873      4929  TIP3      H1             -2.7872349752       13.5301206768       11.0086328508  SOLV      4918            0.0000000000
     14874      4929  TIP3      H2             -2.3595349752       14.9712406768       11.1878428508  SOLV      4918            0.0000000000
     14875      4930  TIP3      OH2           -12.7607149752       15.3755806768       12.3844628508  SOLV      4919            0.0000000000
     14876      4930  TIP3      H1            -13.1301949752       14.5736306768       12.0148928508  SOLV      4919            0.0000000000
     14877      4930  TIP3      H2            -11.8196049752       15.2070706768       12.4308028508  SOLV      4919            0.0000000000
     14878      4931  TIP3      OH2           -16.1506649752        9.0358406768        7.7773428508  SOLV      4920            0.0000000000
     14879      4931  TIP3      H1            -16.5983249752        9.8817106768        7.7589928508  SOLV      4920            0.0000000000
     14880      4931  TIP3      H2            -16.7115449752        8.4562606768        7.2618528508  SOLV      4920            0.0000000000
     14881      4932  TIP3      OH2           -15.4400549752       11.1978006768        9.9031428508  SOLV      4921            0.0000000000
     14882      4932  TIP3      H1            -15.2267049752       10.4279606768       10.4304428508  SOLV      4921            0.0000000000
     14883      4932  TIP3      H2            -14.7022949752       11.2874706768        9.2999028508  SOLV      4921            0.0000000000
     14884      4933  TIP3      OH2            -5.2349549752       19.3546906768       10.7701128508  SOLV      4922            0.0000000000
     14885      4933  TIP3      H1             -4.6153149752       18.6781606768       10.4970328508  SOLV      4922            0.0000000000
     14886      4933  TIP3      H2             -5.4432149752       19.1367706768       11.6786028508  SOLV      4922            0.0000000000
     14887      4934  TIP3      OH2            -7.6630849752       13.7436206768       12.6626628508  SOLV      4923            0.0000000000
     14888      4934  TIP3      H1             -7.3592949752       13.0577606768       12.0680728508  SOLV      4923            0.0000000000
     14889      4934  TIP3      H2             -6.9416849752       13.8624906768       13.2804628508  SOLV      4923            0.0000000000
     14890      4935  TIP3      OH2             0.9998950248        5.3451506768       13.5232828508  SOLV      4924            0.0000000000
     14891      4935  TIP3      H1              1.0491150248        5.9552706768       14.2591928508  SOLV      4924            0.0000000000
     14892      4935  TIP3      H2              1.4254050248        5.8062406768       12.8003928508  SOLV      4924            0.0000000000
     14893      4936  TIP3      OH2            -4.5223849752        8.1378606768       12.9901428508  SOLV      4925            0.0000000000
     14894      4936  TIP3      H1             -4.3797949752        7.1915606768       13.0103028508  SOLV      4925            0.0000000000
     14895      4936  TIP3      H2             -4.6284849752        8.3448406768       12.0616328508  SOLV      4925            0.0000000000
     14896      4937  TIP3      OH2           -11.3675549752        6.2395006768       10.2626228508  SOLV      4926            0.0000000000
     14897      4937  TIP3      H1            -11.3244449752        7.0993506768        9.8442528508  SOLV      4926            0.0000000000
     14898      4937  TIP3      H2            -11.8251449752        5.6869706768        9.6289428508  SOLV      4926            0.0000000000
     14899      4938  TIP3      OH2            -3.6452849752        6.3700606768        8.6634528508  SOLV      4927            0.0000000000
     14900      4938  TIP3      H1             -2.9988549752        6.0413806768        9.2882128508  SOLV      4927            0.0000000000
     14901      4938  TIP3      H2             -3.1353449752        6.8879606768        8.0405928508  SOLV      4927            0.0000000000
     14902      4939  TIP3      OH2           -14.7474049752        8.6360806768       11.0247628508  SOLV      4928            0.0000000000
     14903      4939  TIP3      H1            -14.0937449752        8.0862506768       11.4567728508  SOLV      4928            0.0000000000
     14904      4939  TIP3      H2            -14.7234749752        8.3619806768       10.1079628508  SOLV      4928            0.0000000000
     14905      4940  TIP3      OH2            -9.5909549752       10.1862106768       10.2399128508  SOLV      4929            0.0000000000
     14906      4940  TIP3      H1             -8.9748549752        9.6597506768       10.7493128508  SOLV      4929            0.0000000000
     14907      4940  TIP3      H2            -10.1770749752        9.5460806768        9.8362728508  SOLV      4929            0.0000000000
     14908      4941  TIP3      OH2             1.3913550248        6.8230706768       15.7592628508  SOLV      4930            0.0000000000
     14909      4941  TIP3      H1              0.7028150248        7.4811406768       15.6639228508  SOLV      4930            0.0000000000
     14910      4941  TIP3      H2              1.4068150248        6.6258606768       16.6958028508  SOLV      4930            0.0000000000
     14911      4942  TIP3      OH2           -12.5573649752        5.1573406768       14.3367028508  SOLV      4931            0.0000000000
     14912      4942  TIP3      H1            -12.7761949752        5.6874006768       13.5703028508  SOLV      4931            0.0000000000
     14913      4942  TIP3      H2            -13.2252749752        5.3838906768       14.9838428508  SOLV      4931            0.0000000000
     14914      4943  TIP3      OH2            -5.1883849752       14.6574506768        7.8806128508  SOLV      4932            0.0000000000
     14915      4943  TIP3      H1             -5.4838749752       14.3346806768        7.0293028508  SOLV      4932            0.0000000000
     14916      4943  TIP3      H2             -5.5126049752       15.5571206768        7.9218728508  SOLV      4932            0.0000000000
     14917      4944  TIP3      OH2            -9.9882249752       12.8329106768       14.6240728508  SOLV      4933            0.0000000000
     14918      4944  TIP3      H1            -10.7283149752       13.4310606768       14.7275928508  SOLV      4933            0.0000000000
     14919      4944  TIP3      H2             -9.2742749752       13.3868706768       14.3084328508  SOLV      4933            0.0000000000
     14920      4945  TIP3      OH2            -1.8814449752        5.6609906768       10.6440428508  SOLV      4934            0.0000000000
     14921      4945  TIP3      H1             -2.0966449752        4.8953306768       11.1766428508  SOLV      4934            0.0000000000
     14922      4945  TIP3      H2             -1.2257049752        6.1334506768       11.1568928508  SOLV      4934            0.0000000000
     14923      4946  TIP3      OH2           -12.9636349752        7.0495206768       12.2889228508  SOLV      4935            0.0000000000
     14924      4946  TIP3      H1            -12.3500049752        7.6822806768       12.6621628508  SOLV      4935            0.0000000000
     14925      4946  TIP3      H2            -12.4515649752        6.5770206768       11.6326128508  SOLV      4935            0.0000000000
     14926      4947  TIP3      OH2           -11.5807949752       14.7972106768       15.4112228508  SOLV      4936            0.0000000000
     14927      4947  TIP3      H1            -11.5860349752       15.6765606768       15.0331528508  SOLV      4936            0.0000000000
     14928      4947  TIP3      H2            -12.4343849752       14.7136206768       15.8362128508  SOLV      4936            0.0000000000
     14929      4948  TIP3      OH2           -15.4597049752       14.4680006768        6.1931528508  SOLV      4937            0.0000000000
     14930      4948  TIP3      H1            -15.7316149752       14.6971006768        5.3044428508  SOLV      4937            0.0000000000
     14931      4948  TIP3      H2            -15.4141349752       15.3058806768        6.6536828508  SOLV      4937            0.0000000000
     14932      4949  TIP3      OH2            -1.8347349752       16.0895906768       12.9060028508  SOLV      4938            0.0000000000
     14933      4949  TIP3      H1             -2.7763649752       16.1479806768       13.0676928508  SOLV      4938            0.0000000000
     14934      4949  TIP3      H2             -1.5581249752       16.9956406768       12.7689728508  SOLV      4938            0.0000000000
     14935      4950  TIP3      OH2            -1.5340349752        4.3761206768       14.3233928508  SOLV      4939            0.0000000000
     14936      4950  TIP3      H1             -2.2701149752        4.9868306768       14.2855228508  SOLV      4939            0.0000000000
     14937      4950  TIP3      H2             -0.8506349752        4.7910206768       13.7970328508  SOLV      4939            0.0000000000
     14938      4951  TIP3      OH2            -8.5308949752        2.4628506768       11.7891928508  SOLV      4940            0.0000000000
     14939      4951  TIP3      H1             -8.6484749752        1.5144506768       11.7350228508  SOLV      4940            0.0000000000
     14940      4951  TIP3      H2             -9.3858849752        2.7954606768       12.0623028508  SOLV      4940            0.0000000000
     14941      4952  TIP3      OH2            -3.5826149752       17.8709406768        9.5311628508  SOLV      4941            0.0000000000
     14942      4952  TIP3      H1             -3.1573849752       17.1637306768        9.0461228508  SOLV      4941            0.0000000000
     14943      4952  TIP3      H2             -3.2656149752       18.6722106768        9.1143828508  SOLV      4941            0.0000000000
     14944      4953  TIP3      OH2            -2.4229649752       15.7717906768        8.0398228508  SOLV      4942            0.0000000000
     14945      4953  TIP3      H1             -2.6804849752       15.0818006768        7.4284128508  SOLV      4942            0.0000000000
     14946      4953  TIP3      H2             -2.3518849752       15.3289106768        8.8854128508  SOLV      4942            0.0000000000
     14947      4954  TIP3      OH2            -0.7369449752       14.3384606768       16.5171728508  SOLV      4943            0.0000000000
     14948      4954  TIP3      H1             -0.5973149752       13.7467106768       15.7778728508  SOLV      4943            0.0000000000
     14949      4954  TIP3      H2             -0.5696649752       15.2110506768       16.1610528508  SOLV      4943            0.0000000000
     14950      4955  TIP3      OH2            -6.2644049752       11.3004106768        6.2897728508  SOLV      4944            0.0000000000
     14951      4955  TIP3      H1             -6.9758549752       11.8353806768        5.9378228508  SOLV      4944            0.0000000000
     14952      4955  TIP3      H2             -5.5734449752       11.3556206768        5.6296628508  SOLV      4944            0.0000000000
     14953      4956  TIP3      OH2            -6.2104849752        9.7578406768        3.3282728508  SOLV      4945            0.0000000000
     14954      4956  TIP3      H1             -5.5094949752        9.7805306768        3.9796728508  SOLV      4945            0.0000000000
     14955      4956  TIP3      H2             -5.9081949752        9.1298106768        2.6722028508  SOLV      4945            0.0000000000
     14956      4957  TIP3      OH2             1.1049850248       10.6782606768       14.5832128508  SOLV      4946            0.0000000000
     14957      4957  TIP3      H1              0.4523950248       11.3728206768       14.6723028508  SOLV      4946            0.0000000000
     14958      4957  TIP3      H2              1.5700150248       10.8883506768       13.7733728508  SOLV      4946            0.0000000000
     14959      4958  TIP3      OH2            -2.8586349752       11.5097406768        7.2413628508  SOLV      4947            0.0000000000
     14960      4958  TIP3      H1             -3.5905349752       11.7381106768        7.8144228508  SOLV      4947            0.0000000000
     14961      4958  TIP3      H2             -2.4114149752       10.7960106768        7.6961128508  SOLV      4947            0.0000000000
     14962      4959  TIP3      OH2            -2.9612849752        9.6840006768       16.3090628508  SOLV      4948            0.0000000000
     14963      4959  TIP3      H1             -2.8813749752       10.4474406768       16.8809128508  SOLV      4948            0.0000000000
     14964      4959  TIP3      H2             -3.5625149752        9.9632406768       15.6185728508  SOLV      4948            0.0000000000
     14965      4960  TIP3      OH2           -11.2132649752       12.1403606768        9.1238628508  SOLV      4949            0.0000000000
     14966      4960  TIP3      H1            -11.5437449752       11.7697006768        8.3055628508  SOLV      4949            0.0000000000
     14967      4960  TIP3      H2            -10.6248549752       11.4697606768        9.4706928508  SOLV      4949            0.0000000000
     14968      4961  TIP3      OH2            -9.8465149752       15.5684206768       11.8050828508  SOLV      4950            0.0000000000
     14969      4961  TIP3      H1             -9.9413849752       14.9897306768       11.0485428508  SOLV      4950            0.0000000000
     14970      4961  TIP3      H2             -9.1171549752       15.1969906768       12.3013628508  SOLV      4950            0.0000000000
     14971      4962  TIP3      OH2           -10.8467149752       10.9089206768       12.7573628508  SOLV      4951            0.0000000000
     14972      4962  TIP3      H1            -10.2814649752       11.0303406768       11.9944828508  SOLV      4951            0.0000000000
     14973      4962  TIP3      H2            -10.5278249752       11.5464206768       13.3962128508  SOLV      4951            0.0000000000
     14974      4963  TIP3      OH2            -4.5374949752       16.4121106768       13.4914128508  SOLV      4952            0.0000000000
     14975      4963  TIP3      H1             -4.7778349752       17.0744206768       14.1393328508  SOLV      4952            0.0000000000
     14976      4963  TIP3      H2             -4.7356749752       15.5776306768       13.9163728508  SOLV      4952            0.0000000000
     14977      4964  TIP3      OH2            -9.9666449752       15.3081906768       17.4745528508  SOLV      4953            0.0000000000
     14978      4964  TIP3      H1            -10.2778949752       16.0905106768       17.9298728508  SOLV      4953            0.0000000000
     14979      4964  TIP3      H2            -10.6166249752       15.1551006768       16.7887528508  SOLV      4953            0.0000000000
     14980      4965  TIP3      OH2            -3.9876849752       10.6720306768        4.9264828508  SOLV      4954            0.0000000000
     14981      4965  TIP3      H1             -3.4081349752       10.8220606768        5.6733728508  SOLV      4954            0.0000000000
     14982      4965  TIP3      H2             -3.5736849752       11.1427706768        4.2031228508  SOLV      4954            0.0000000000
     14983      4966  TIP3      OH2           -13.0466549752       11.5063006768       16.7031228508  SOLV      4955            0.0000000000
     14984      4966  TIP3      H1            -12.9763349752       12.1569806768       17.4016228508  SOLV      4955            0.0000000000
     14985      4966  TIP3      H2            -13.9374349752       11.6090506768       16.3682128508  SOLV      4955            0.0000000000
     14986      4967  TIP3      OH2            -6.2611949752       17.4088806768        8.3617928508  SOLV      4956            0.0000000000
     14987      4967  TIP3      H1             -5.7874349752       17.7045106768        9.1392128508  SOLV      4956            0.0000000000
     14988      4967  TIP3      H2             -6.8242649752       18.1470406768        8.1287528508  SOLV      4956            0.0000000000
     14989      4968  TIP3      OH2           -11.7270549752       17.3796906768       18.2379328508  SOLV      4957            0.0000000000
     14990      4968  TIP3      H1            -11.7195249752       17.2436606768       17.2904828508  SOLV      4957            0.0000000000
     14991      4968  TIP3      H2            -12.6430149752       17.2625006768       18.4899328508  SOLV      4957            0.0000000000
     14992      4969  TIP3      OH2            -0.2888449752        2.4220706768        4.7394528508  SOLV      4958            0.0000000000
     14993      4969  TIP3      H1             -1.1887749752        2.5609706768        5.0345128508  SOLV      4958            0.0000000000
     14994      4969  TIP3      H2             -0.0370049752        3.2535306768        4.3376228508  SOLV      4958            0.0000000000
     14995      4970  TIP3      OH2           -12.2229949752       11.2097906768        6.7131428508  SOLV      4959            0.0000000000
     14996      4970  TIP3      H1            -12.5148649752       11.9779606768        6.2222728508  SOLV      4959            0.0000000000
     14997      4970  TIP3      H2            -12.8974749752       10.5504106768        6.5502828508  SOLV      4959            0.0000000000
     14998      4971  TIP3      OH2             0.9002950248       16.7883106768        3.1158428508  SOLV      4960            0.0000000000
     14999      4971  TIP3      H1              0.9736450248       17.7273306768        3.2863728508  SOLV      4960            0.0000000000
     15000      4971  TIP3      H2              1.8058050248       16.4831706768        3.0595728508  SOLV      4960            0.0000000000
     15001      4972  TIP3      OH2           -16.1299849752       13.5727106768       15.5281228508  SOLV      4961            0.0000000000
     15002      4972  TIP3      H1            -16.6311449752       13.5446506768       14.7130928508  SOLV      4961            0.0000000000
     15003      4972  TIP3      H2            -16.1246149752       12.6670306768       15.8378528508  SOLV      4961            0.0000000000
     15004      4973  TIP3      OH2           -16.3797149752       16.3530906768       12.4121428508  SOLV      4962            0.0000000000
     15005      4973  TIP3      H1            -15.4336549752       16.2087906768       12.3930928508  SOLV      4962            0.0000000000
     15006      4973  TIP3      H2            -16.4920849752       17.1373706768       12.9492628508  SOLV      4962            0.0000000000
     15007      4974  TIP3      OH2             1.8181350248       17.0190606768       18.0945128508  SOLV      4963            0.0000000000
     15008      4974  TIP3      H1              1.7688150248       16.0638706768       18.0572728508  SOLV      4963            0.0000000000
     15009      4974  TIP3      H2              0.9913650248       17.2865906768       18.4958928508  SOLV      4963            0.0000000000
     15010      4975  TIP3      OH2            -7.2034649752       16.5929806768       16.9706528508  SOLV      4964            0.0000000000
     15011      4975  TIP3      H1             -7.1160049752       17.4194406768       17.4455628508  SOLV      4964            0.0000000000
     15012      4975  TIP3      H2             -8.0669549752       16.2633606768       17.2195828508  SOLV      4964            0.0000000000
     15013      4976  TIP3      OH2            -6.7888849752       20.3653506768        6.7767128508  SOLV      4965            0.0000000000
     15014      4976  TIP3      H1             -6.8642849752       20.2440706768        5.8302328508  SOLV      4965            0.0000000000
     15015      4976  TIP3      H2             -6.7560149752       21.3146206768        6.8951728508  SOLV      4965            0.0000000000
     15016      4977  TIP3      OH2           -13.1355049752       19.1540506768        8.5576128508  SOLV      4966            0.0000000000
     15017      4977  TIP3      H1            -12.9834649752       18.8060906768        9.4362628508  SOLV      4966            0.0000000000
     15018      4977  TIP3      H2            -13.9864649752       18.7977806768        8.3023328508  SOLV      4966            0.0000000000
     15019      4978  TIP3      OH2            -3.6872849752       19.5193706768        3.7789528508  SOLV      4967            0.0000000000
     15020      4978  TIP3      H1             -3.3124449752       18.7749806768        3.3082128508  SOLV      4967            0.0000000000
     15021      4978  TIP3      H2             -3.6829149752       19.2494306768        4.6972828508  SOLV      4967            0.0000000000
     15022      4979  TIP3      OH2            -4.0184749752       19.4450806768        6.5281728508  SOLV      4968            0.0000000000
     15023      4979  TIP3      H1             -4.9534949752       19.5452706768        6.7068728508  SOLV      4968            0.0000000000
     15024      4979  TIP3      H2             -3.7382849752       18.7356806768        7.1064928508  SOLV      4968            0.0000000000
     15025      4980  TIP3      OH2            -1.0298849752        8.5123106768       18.5747328508  SOLV      4969            0.0000000000
     15026      4980  TIP3      H1             -1.4372049752        8.9928706768       17.8540628508  SOLV      4969            0.0000000000
     15027      4980  TIP3      H2             -0.9893149752        7.6069106768       18.2668128508  SOLV      4969            0.0000000000
     15028      4981  TIP3      OH2           -13.8809349752       14.8962506768       16.5714028508  SOLV      4970            0.0000000000
     15029      4981  TIP3      H1            -13.6648049752       14.5348106768       17.4309828508  SOLV      4970            0.0000000000
     15030      4981  TIP3      H2            -14.7364649752       14.5216306768       16.3617528508  SOLV      4970            0.0000000000
     15031      4982  TIP3      OH2           -11.2621349752        3.3663006768       12.5668228508  SOLV      4971            0.0000000000
     15032      4982  TIP3      H1            -12.1237649752        3.2791206768       12.1591128508  SOLV      4971            0.0000000000
     15033      4982  TIP3      H2            -11.2845649752        4.2223106768       12.9945828508  SOLV      4971            0.0000000000
     15034      4983  TIP3      OH2            -6.5993549752        3.0883406768       15.9415228508  SOLV      4972            0.0000000000
     15035      4983  TIP3      H1             -6.1790449752        2.6730506768       16.6945828508  SOLV      4972            0.0000000000
     15036      4983  TIP3      H2             -7.5323949752        2.9096706768       16.0587228508  SOLV      4972            0.0000000000
     15037      4984  TIP3      OH2            -3.2728649752        6.8438606768       16.7949728508  SOLV      4973            0.0000000000
     15038      4984  TIP3      H1             -3.7869149752        6.7180806768       17.5925728508  SOLV      4973            0.0000000000
     15039      4984  TIP3      H2             -3.4283949752        7.7561706768       16.5505928508  SOLV      4973            0.0000000000
     15040      4985  TIP3      OH2            -2.5103749752       11.7048606768        2.5562728508  SOLV      4974            0.0000000000
     15041      4985  TIP3      H1             -2.4682949752       11.4822506768        1.6262728508  SOLV      4974            0.0000000000
     15042      4985  TIP3      H2             -1.6611649752       12.1035706768        2.7462628508  SOLV      4974            0.0000000000
     15043      4986  TIP3      OH2            -6.9376249752        5.5806806768        3.2266028508  SOLV      4975            0.0000000000
     15044      4986  TIP3      H1             -7.1911449752        5.5998406768        4.1494128508  SOLV      4975            0.0000000000
     15045      4986  TIP3      H2             -7.1944149752        4.7092206768        2.9252228508  SOLV      4975            0.0000000000
     15046      4987  TIP3      OH2           -11.1711249752        8.3317506768       13.6618428508  SOLV      4976            0.0000000000
     15047      4987  TIP3      H1            -11.8129149752        8.2914806768       14.3708528508  SOLV      4976            0.0000000000
     15048      4987  TIP3      H2            -11.1339249752        9.2582206768       13.4241428508  SOLV      4976            0.0000000000
     15049      4988  TIP3      OH2           -11.1742149752        8.5527606768        8.5738428508  SOLV      4977            0.0000000000
     15050      4988  TIP3      H1            -12.0669249752        8.2123706768        8.5152228508  SOLV      4977            0.0000000000
     15051      4988  TIP3      H2            -10.7235549752        8.1758506768        7.8181628508  SOLV      4977            0.0000000000
     15052      4989  TIP3      OH2            -5.6386649752        8.9687906768        7.3909228508  SOLV      4978            0.0000000000
     15053      4989  TIP3      H1             -6.0476349752        9.7836506768        7.0994028508  SOLV      4978            0.0000000000
     15054      4989  TIP3      H2             -4.9180449752        8.8288006768        6.7766328508  SOLV      4978            0.0000000000
     15055      4990  TIP3      OH2            -6.5365049752        9.1444306768       18.8789928508  SOLV      4979            0.0000000000
     15056      4990  TIP3      H1             -7.0991249752        8.4395906768       19.1997728508  SOLV      4979            0.0000000000
     15057      4990  TIP3      H2             -5.7101649752        9.0236206768       19.3467528508  SOLV      4979            0.0000000000
     15058      4991  TIP3      OH2            -4.6338949752        8.4148306768       10.2048928508  SOLV      4980            0.0000000000
     15059      4991  TIP3      H1             -4.8294449752        9.0205106768        9.4899528508  SOLV      4980            0.0000000000
     15060      4991  TIP3      H2             -4.4526349752        7.5813506768        9.7705228508  SOLV      4980            0.0000000000
     15061      4992  TIP3      OH2           -13.4210749752        8.6521006768       15.5290428508  SOLV      4981            0.0000000000
     15062      4992  TIP3      H1            -13.4591349752        9.0522606768       16.3977528508  SOLV      4981            0.0000000000
     15063      4992  TIP3      H2            -13.9119649752        7.8353406768       15.6193328508  SOLV      4981            0.0000000000
     15064      4993  TIP3      OH2           -10.0553349752        6.0263306768        2.3276428508  SOLV      4982            0.0000000000
     15065      4993  TIP3      H1            -10.4862649752        5.5813406768        3.0573828508  SOLV      4982            0.0000000000
     15066      4993  TIP3      H2            -10.7734649752        6.3979606768        1.8153928508  SOLV      4982            0.0000000000
     15067      4994  TIP3      OH2           -16.8129949752        5.7682806768        9.3795128508  SOLV      4983            0.0000000000
     15068      4994  TIP3      H1            -16.1822249752        5.7394906768       10.0989028508  SOLV      4983            0.0000000000
     15069      4994  TIP3      H2            -16.3635649752        5.3431506768        8.6491028508  SOLV      4983            0.0000000000
     15070      4995  TIP3      OH2           -15.5387849752        6.5144806768        4.8035528508  SOLV      4984            0.0000000000
     15071      4995  TIP3      H1            -15.0646149752        7.1054706768        4.2186428508  SOLV      4984            0.0000000000
     15072      4995  TIP3      H2            -16.2561449752        7.0447706768        5.1505628508  SOLV      4984            0.0000000000
     15073      4996  TIP3      OH2            -5.3699749752       10.0529606768       14.8761328508  SOLV      4985            0.0000000000
     15074      4996  TIP3      H1             -5.0464949752        9.4219306768       14.2331828508  SOLV      4985            0.0000000000
     15075      4996  TIP3      H2             -5.8100449752        9.5181806768       15.5368728508  SOLV      4985            0.0000000000
     15076      4997  TIP3      OH2            -8.5926849752        5.9805106768        9.6602528508  SOLV      4986            0.0000000000
     15077      4997  TIP3      H1             -9.5035749752        6.0371906768        9.9488528508  SOLV      4986            0.0000000000
     15078      4997  TIP3      H2             -8.0873949752        5.9200606768       10.4709728508  SOLV      4986            0.0000000000
     15079      4998  TIP3      OH2           -13.7643449752        7.6091406768        8.4870128508  SOLV      4987            0.0000000000
     15080      4998  TIP3      H1            -14.6535449752        7.7086906768        8.1469728508  SOLV      4987            0.0000000000
     15081      4998  TIP3      H2            -13.4678549752        6.7674406768        8.1408028508  SOLV      4987            0.0000000000
     15082      4999  TIP3      OH2           -10.1111649752        7.6094006768        6.1434728508  SOLV      4988            0.0000000000
     15083      4999  TIP3      H1             -9.1796149752        7.7384006768        6.3217828508  SOLV      4988            0.0000000000
     15084      4999  TIP3      H2            -10.3261349752        8.2788306768        5.4939428508  SOLV      4988            0.0000000000
     15085      5000  TIP3      OH2            -4.1874949752        5.2151406768       12.9244328508  SOLV      4989            0.0000000000
     15086      5000  TIP3      H1             -4.8643349752        5.3464506768       13.5884028508  SOLV      4989            0.0000000000
     15087      5000  TIP3      H2             -4.6730049752        5.0600906768       12.1142028508  SOLV      4989            0.0000000000
     15088      5001  TIP3      OH2           -11.4371449752        8.8036206768        3.7100828508  SOLV      4990            0.0000000000
     15089      5001  TIP3      H1            -11.9796349752        8.4240006768        3.0188428508  SOLV      4990            0.0000000000
     15090      5001  TIP3      H2            -10.6036549752        8.9980906768        3.2814928508  SOLV      4990            0.0000000000
     15091      5002  TIP3      OH2            -0.8999849752       20.8866806768       19.2011928508  SOLV      4991            0.0000000000
     15092      5002  TIP3      H1             -0.7001149752       21.3108706768       18.3667228508  SOLV      4991            0.0000000000
     15093      5002  TIP3      H2             -0.2446149752       21.2305006768       19.8082328508  SOLV      4991            0.0000000000
     15094      5003  TIP3      OH2           -13.3020049752       13.3608106768       18.8092428508  SOLV      4992            0.0000000000
     15095      5003  TIP3      H1            -12.5697649752       13.6154006768       19.3706928508  SOLV      4992            0.0000000000
     15096      5003  TIP3      H2            -14.0821349752       13.5653506768       19.3247828508  SOLV      4992            0.0000000000
     15097      5004  TIP3      OH2            -7.2727149752        8.7678106768       11.5472128508  SOLV      4993            0.0000000000
     15098      5004  TIP3      H1             -6.7083749752        8.2214706768       11.0001728508  SOLV      4993            0.0000000000
     15099      5004  TIP3      H2             -7.4203749752        8.2460006768       12.3359728508  SOLV      4993            0.0000000000
     15100      5005  TIP3      OH2            -8.6461249752        7.1564206768       13.9612528508  SOLV      4994            0.0000000000
     15101      5005  TIP3      H1             -9.4815949752        7.6103706768       14.0714928508  SOLV      4994            0.0000000000
     15102      5005  TIP3      H2             -8.1220649752        7.4322706768       14.7132428508  SOLV      4994            0.0000000000
     15103      5006  TIP3      OH2            -8.1018649752       13.3691906768        5.6458928508  SOLV      4995            0.0000000000
     15104      5006  TIP3      H1             -8.8467649752       12.8617206768        5.3236828508  SOLV      4995            0.0000000000
     15105      5006  TIP3      H2             -8.2361449752       13.4179906768        6.5923728508  SOLV      4995            0.0000000000
     15106      5007  TIP3      OH2            -0.9519749752       12.5020106768       14.4326528508  SOLV      4996            0.0000000000
     15107      5007  TIP3      H1             -0.3100949752       12.9586406768       13.8888728508  SOLV      4996            0.0000000000
     15108      5007  TIP3      H2             -1.7822849752       12.6152506768       13.9700628508  SOLV      4996            0.0000000000
     15109      5008  TIP3      OH2            -4.2041849752        6.1831806768        3.8451528508  SOLV      4997            0.0000000000
     15110      5008  TIP3      H1             -5.1427649752        6.2947406768        3.6940328508  SOLV      4997            0.0000000000
     15111      5008  TIP3      H2             -3.9069749752        7.0398706768        4.1517228508  SOLV      4997            0.0000000000
     15112      5009  TIP3      OH2            -6.5826549752       13.5535206768       16.8828028508  SOLV      4998            0.0000000000
     15113      5009  TIP3      H1             -6.9280449752       13.1717606768       17.6897628508  SOLV      4998            0.0000000000
     15114      5009  TIP3      H2             -6.7826449752       14.4868806768       16.9540928508  SOLV      4998            0.0000000000
     15115      5010  TIP3      OH2            -3.4858349752        8.0504506768        5.5058928508  SOLV      4999            0.0000000000
     15116      5010  TIP3      H1             -2.5939349752        7.9129506768        5.8250128508  SOLV      4999            0.0000000000
     15117      5010  TIP3      H2             -3.4294749752        8.8410606768        4.9692428508  SOLV      4999            0.0000000000
     15118      5011  TIP3      OH2           -12.9770349752       12.6641906768       11.4156828508  SOLV      5000            0.0000000000
     15119      5011  TIP3      H1            -12.2323149752       12.6617606768       10.8143328508  SOLV      5000            0.0000000000
     15120      5011  TIP3      H2            -12.8993749752       11.8405706768       11.8971928508  SOLV      5000            0.0000000000
     15121      5012  TIP3      OH2            -5.9764549752       14.8276206768        4.6713528508  SOLV      5001            0.0000000000
     15122      5012  TIP3      H1             -6.2716149752       15.6544106768        5.0528328508  SOLV      5001            0.0000000000
     15123      5012  TIP3      H2             -6.6794549752       14.2083106768        4.8674928508  SOLV      5001            0.0000000000
     15124      5013  TIP3      OH2           -15.9690649752       11.1248806768       16.7305328508  SOLV      5002            0.0000000000
     15125      5013  TIP3      H1            -15.7462049752       10.7068406768       17.5622828508  SOLV      5002            0.0000000000
     15126      5013  TIP3      H2            -16.5710549752       10.5123806768       16.3078128508  SOLV      5002            0.0000000000
     15127      5014  TIP3      OH2            -4.3322949752       16.0150706768       16.8333028508  SOLV      5003            0.0000000000
     15128      5014  TIP3      H1             -5.2328649752       16.1983306768       16.5656928508  SOLV      5003            0.0000000000
     15129      5014  TIP3      H2             -4.2981849752       16.2740006768       17.7541828508  SOLV      5003            0.0000000000
     15130      5015  TIP3      OH2             1.3990350248        8.2598606768        5.2005628508  SOLV      5004            0.0000000000
     15131      5015  TIP3      H1              0.8446650248        7.8636606768        4.5283128508  SOLV      5004            0.0000000000
     15132      5015  TIP3      H2              1.4993950248        9.1703806768        4.9228928508  SOLV      5004            0.0000000000
     15133      5016  TIP3      OH2             1.3622350248       14.0600306768       18.0377128508  SOLV      5005            0.0000000000
     15134      5016  TIP3      H1              0.5110850248       14.2984106768       17.6703528508  SOLV      5005            0.0000000000
     15135      5016  TIP3      H2              1.9525750248       14.0433506768       17.2844228508  SOLV      5005            0.0000000000
     15136      5017  TIP3      OH2            -0.3057949752       17.0459006768        5.6657728508  SOLV      5006            0.0000000000
     15137      5017  TIP3      H1             -0.6786849752       16.2202806768        5.9748328508  SOLV      5006            0.0000000000
     15138      5017  TIP3      H2             -0.0284449752       16.8628406768        4.7681128508  SOLV      5006            0.0000000000
     15139      5018  TIP3      OH2            -3.1454049752       11.8538506768       12.6869628508  SOLV      5007            0.0000000000
     15140      5018  TIP3      H1             -4.0737149752       11.6220406768       12.6598928508  SOLV      5007            0.0000000000
     15141      5018  TIP3      H2             -2.6942949752       11.0768306768       12.3568428508  SOLV      5007            0.0000000000
     15142      5019  TIP3      OH2           -10.6020949752       16.1820106768        8.8198328508  SOLV      5008            0.0000000000
     15143      5019  TIP3      H1            -10.0748749752       16.9554506768        8.6197128508  SOLV      5008            0.0000000000
     15144      5019  TIP3      H2            -11.4822449752       16.4069306768        8.5182328508  SOLV      5008            0.0000000000
     15145      5020  TIP3      OH2           -14.8473249752       11.0444206768        3.4070728508  SOLV      5009            0.0000000000
     15146      5020  TIP3      H1            -14.2313349752       11.6711406768        3.7865528508  SOLV      5009            0.0000000000
     15147      5020  TIP3      H2            -15.7090649752       11.3604006768        3.6787228508  SOLV      5009            0.0000000000
     15148      5021  TIP3      OH2            -9.1748649752       13.8450006768        8.3962628508  SOLV      5010            0.0000000000
     15149      5021  TIP3      H1             -9.4158649752       14.7704406768        8.4377928508  SOLV      5010            0.0000000000
     15150      5021  TIP3      H2             -9.9155049752       13.3861306768        8.7926528508  SOLV      5010            0.0000000000
     15151      5022  TIP3      OH2            -8.6602049752       17.9943606768       14.7113728508  SOLV      5011            0.0000000000
     15152      5022  TIP3      H1             -8.2977349752       18.8489206768       14.4778128508  SOLV      5011            0.0000000000
     15153      5022  TIP3      H2             -8.1286849752       17.7025206768       15.4520028508  SOLV      5011            0.0000000000
     15154      5023  TIP3      OH2           -10.4917849752       18.8667606768        7.9414828508  SOLV      5012            0.0000000000
     15155      5023  TIP3      H1            -11.4417349752       18.9725006768        7.9928128508  SOLV      5012            0.0000000000
     15156      5023  TIP3      H2            -10.1399749752       19.6875006768        8.2862328508  SOLV      5012            0.0000000000
     15157      5024  TIP3      OH2            -5.1161249752       14.0934306768       14.4119328508  SOLV      5013            0.0000000000
     15158      5024  TIP3      H1             -5.5419949752       13.8656006768       15.2383328508  SOLV      5013            0.0000000000
     15159      5024  TIP3      H2             -4.5355449752       13.3546106768       14.2294628508  SOLV      5013            0.0000000000
     15160      5025  TIP3      OH2            -2.9132349752       15.0224806768        3.4858328508  SOLV      5014            0.0000000000
     15161      5025  TIP3      H1             -2.5599249752       14.6424606768        4.2901828508  SOLV      5014            0.0000000000
     15162      5025  TIP3      H2             -3.8618849752       14.9289606768        3.5727628508  SOLV      5014            0.0000000000
     15163      5026  TIP3      OH2            -2.4577049752       18.6453806768       16.8814128508  SOLV      5015            0.0000000000
     15164      5026  TIP3      H1             -3.0593849752       18.0896706768       16.3860428508  SOLV      5015            0.0000000000
     15165      5026  TIP3      H2             -2.1763349752       19.3123606768       16.2551528508  SOLV      5015            0.0000000000
     15166      5027  TIP3      OH2             1.5902050248       19.5017306768        3.6868528508  SOLV      5016            0.0000000000
     15167      5027  TIP3      H1              2.3339950248       20.0877806768        3.5470128508  SOLV      5016            0.0000000000
     15168      5027  TIP3      H2              0.8960150248       20.0703106768        4.0200928508  SOLV      5016            0.0000000000
     15169      5028  TIP3      OH2           -14.3351149752        5.8781506768       16.2886728508  SOLV      5017            0.0000000000
     15170      5028  TIP3      H1            -15.2278849752        6.2166906768       16.2210728508  SOLV      5017            0.0000000000
     15171      5028  TIP3      H2            -14.4338349752        5.0227606768       16.7067528508  SOLV      5017            0.0000000000
     15172      5029  TIP3      OH2            -2.0473049752       13.6946806768        5.7126228508  SOLV      5018            0.0000000000
     15173      5029  TIP3      H1             -2.3245449752       12.9666106768        6.2687328508  SOLV      5018            0.0000000000
     15174      5029  TIP3      H2             -1.1200049752       13.8138806768        5.9178828508  SOLV      5018            0.0000000000
     15175      5030  TIP3      OH2           -14.6839149752       17.6825906768       14.7236128508  SOLV      5019            0.0000000000
     15176      5030  TIP3      H1            -14.4668849752       16.7508306768       14.6925828508  SOLV      5019            0.0000000000
     15177      5030  TIP3      H2            -14.4375649752       17.9570906768       15.6068928508  SOLV      5019            0.0000000000
     15178      5031  TIP3      OH2            -8.8224549752       16.1340906768        1.9328328508  SOLV      5020            0.0000000000
     15179      5031  TIP3      H1             -8.5834749752       15.3859006768        1.3857228508  SOLV      5020            0.0000000000
     15180      5031  TIP3      H2             -9.0913249752       15.7462606768        2.7656128508  SOLV      5020            0.0000000000
     15181      5032  TIP3      OH2            -9.8853949752       15.7044706768        4.3890928508  SOLV      5021            0.0000000000
     15182      5032  TIP3      H1             -9.7385949752       15.1844506768        5.1791828508  SOLV      5021            0.0000000000
     15183      5032  TIP3      H2             -9.8882249752       16.6112306768        4.6956828508  SOLV      5021            0.0000000000
     15184      5033  TIP3      OH2           -13.4322849752       12.9568006768        4.8996328508  SOLV      5022            0.0000000000
     15185      5033  TIP3      H1            -14.1183549752       13.3090506768        5.4666028508  SOLV      5022            0.0000000000
     15186      5033  TIP3      H2            -12.9094949752       13.7197606768        4.6530628508  SOLV      5022            0.0000000000
     15187      5034  TIP3      OH2            -5.6007749752        5.6191806768       15.1785328508  SOLV      5023            0.0000000000
     15188      5034  TIP3      H1             -4.9019849752        5.6930506768       15.8285028508  SOLV      5023            0.0000000000
     15189      5034  TIP3      H2             -5.9816349752        4.7546806768       15.3328228508  SOLV      5023            0.0000000000
     15190      5035  TIP3      OH2            -4.8162849752        5.2713506768        6.2757628508  SOLV      5024            0.0000000000
     15191      5035  TIP3      H1             -4.5964549752        5.7428906768        5.4723028508  SOLV      5024            0.0000000000
     15192      5035  TIP3      H2             -4.2578849752        5.6656106768        6.9458228508  SOLV      5024            0.0000000000
     15193      5036  TIP3      OH2            -7.1476749752       17.4018306768        5.1385128508  SOLV      5025            0.0000000000
     15194      5036  TIP3      H1             -7.9640649752       17.8988006768        5.1909428508  SOLV      5025            0.0000000000
     15195      5036  TIP3      H2             -6.6180449752       17.8771806768        4.4983928508  SOLV      5025            0.0000000000
     15196      5037  TIP3      OH2            -7.6162949752        6.9992306768        7.1106028508  SOLV      5026            0.0000000000
     15197      5037  TIP3      H1             -6.8040349752        7.5035506768        7.1567728508  SOLV      5026            0.0000000000
     15198      5037  TIP3      H2             -7.8609949752        6.8542006768        8.0245628508  SOLV      5026            0.0000000000
     15199      5038  TIP3      OH2            -7.0806549752        7.9855006768       16.2952628508  SOLV      5027            0.0000000000
     15200      5038  TIP3      H1             -6.9616249752        8.5590406768       17.0523028508  SOLV      5027            0.0000000000
     15201      5038  TIP3      H2             -6.4251949752        7.2974406768       16.4100428508  SOLV      5027            0.0000000000
     15202      5039  TIP3      OH2            -6.7326249752        4.0805306768        8.0487128508  SOLV      5028            0.0000000000
     15203      5039  TIP3      H1             -7.0792749752        4.6975906768        8.6931428508  SOLV      5028            0.0000000000
     15204      5039  TIP3      H2             -6.0739349752        4.5811006768        7.5672628508  SOLV      5028            0.0000000000
     15205      5040  TIP3      OH2            -9.8093649752       18.4455506768        5.1202028508  SOLV      5029            0.0000000000
     15206      5040  TIP3      H1             -9.6484949752       19.2453006768        4.6194628508  SOLV      5029            0.0000000000
     15207      5040  TIP3      H2            -10.0065849752       18.7521506768        6.0052628508  SOLV      5029            0.0000000000
     15208      5041  TIP3      OH2           -11.0749249752        5.1434706768        4.7359628508  SOLV      5030            0.0000000000
     15209      5041  TIP3      H1            -11.1584449752        6.0317806768        5.0826028508  SOLV      5030            0.0000000000
     15210      5041  TIP3      H2            -10.1848949752        4.8781406768        4.9676428508  SOLV      5030            0.0000000000
     15211      5042  TIP3      OH2            -0.8760749752        5.8925306768       17.1302328508  SOLV      5031            0.0000000000
     15212      5042  TIP3      H1             -1.7924949752        6.1547006768       17.0426028508  SOLV      5031            0.0000000000
     15213      5042  TIP3      H2             -0.5405749752        5.8894306768       16.2337628508  SOLV      5031            0.0000000000
     15214      5043  TIP3      OH2            -2.2739749752        9.6426306768       11.2259628508  SOLV      5032            0.0000000000
     15215      5043  TIP3      H1             -3.0715349752        9.2276506768       10.8974628508  SOLV      5032            0.0000000000
     15216      5043  TIP3      H2             -1.8288649752        8.9520006768       11.7170128508  SOLV      5032            0.0000000000
     15217      5044  TIP3      OH2           -12.8163949752       15.5706906768        3.7964128508  SOLV      5033            0.0000000000
     15218      5044  TIP3      H1            -12.2242449752       16.2701706768        4.0726528508  SOLV      5033            0.0000000000
     15219      5044  TIP3      H2            -12.3570949752       15.1376406768        3.0768728508  SOLV      5033            0.0000000000
     15220      5045  TIP3      OH2           -14.5004749752        8.2349906768        2.9123528508  SOLV      5034            0.0000000000
     15221      5045  TIP3      H1            -14.5452149752        9.1743006768        3.0910528508  SOLV      5034            0.0000000000
     15222      5045  TIP3      H2            -15.3881549752        7.9994806768        2.6425628508  SOLV      5034            0.0000000000
     15223      5046  TIP3      OH2            -1.1875149752       18.8988806768       12.8483128508  SOLV      5035            0.0000000000
     15224      5046  TIP3      H1             -1.3430849752       19.5773206768       12.1912428508  SOLV      5035            0.0000000000
     15225      5046  TIP3      H2             -0.2548749752       18.9708106768       13.0513728508  SOLV      5035            0.0000000000
     15226      5047  TIP3      OH2           -14.7619449752       16.9573606768        7.7460328508  SOLV      5036            0.0000000000
     15227      5047  TIP3      H1            -15.5940849752       17.4296306768        7.7731728508  SOLV      5036            0.0000000000
     15228      5047  TIP3      H2            -14.2161149752       17.4671206768        7.1473428508  SOLV      5036            0.0000000000
     15229      5048  TIP3      OH2           -15.4735749752       19.5697306768       19.0758328508  SOLV      5037            0.0000000000
     15230      5048  TIP3      H1            -14.9333549752       19.3531306768       19.8357528508  SOLV      5037            0.0000000000
     15231      5048  TIP3      H2            -15.9547749752       18.7643306768       18.8860828508  SOLV      5037            0.0000000000
     15232      5049  TIP3      OH2           -10.8762349752       18.4891706768       20.6962528508  SOLV      5038            0.0000000000
     15233      5049  TIP3      H1            -10.1085149752       18.0302506768       21.0371728508  SOLV      5038            0.0000000000
     15234      5049  TIP3      H2            -10.8976149752       18.2631506768       19.7663728508  SOLV      5038            0.0000000000
     15235      5050  TIP3      OH2            -6.7842749752       17.9972306768        2.0714328508  SOLV      5039            0.0000000000
     15236      5050  TIP3      H1             -7.4281749752       17.3660906768        2.3928028508  SOLV      5039            0.0000000000
     15237      5050  TIP3      H2             -6.0224449752       17.4660306768        1.8397828508  SOLV      5039            0.0000000000
     15238      5051  TIP3      OH2            -4.2993649752       16.8692806768       19.4254028508  SOLV      5040            0.0000000000
     15239      5051  TIP3      H1             -4.6504149752       16.0125806768       19.6684428508  SOLV      5040            0.0000000000
     15240      5051  TIP3      H2             -3.5730449752       17.0119506768       20.0323028508  SOLV      5040            0.0000000000
     15241      5052  TIP3      OH2            -2.1799849752       17.8142206768        2.3052328508  SOLV      5041            0.0000000000
     15242      5052  TIP3      H1             -1.8969449752       17.0197406768        2.7579228508  SOLV      5041            0.0000000000
     15243      5052  TIP3      H2             -1.4401949752       18.0473206768        1.7443428508  SOLV      5041            0.0000000000
     15244      5053  TIP3      OH2           -15.5666249752       13.3801406768       20.0302628508  SOLV      5042            0.0000000000
     15245      5053  TIP3      H1            -15.4225749752       12.4782106768       19.7439328508  SOLV      5042            0.0000000000
     15246      5053  TIP3      H2            -16.3388849752       13.6663506768       19.5424928508  SOLV      5042            0.0000000000
     15247      5054  TIP3      OH2           -11.2252549752       13.7237106768        2.1627228508  SOLV      5043            0.0000000000
     15248      5054  TIP3      H1            -11.1608449752       12.9296706768        2.6933628508  SOLV      5043            0.0000000000
     15249      5054  TIP3      H2            -10.5723349752       13.6049906768        1.4729228508  SOLV      5043            0.0000000000
     15250      5055  TIP3      OH2            -5.8729149752       14.7708806768        1.8985228508  SOLV      5044            0.0000000000
     15251      5055  TIP3      H1             -6.1415049752       14.9510906768        2.7994128508  SOLV      5044            0.0000000000
     15252      5055  TIP3      H2             -6.0793549752       13.8455006768        1.7671028508  SOLV      5044            0.0000000000
     15253      5056  TIP3      OH2            -3.1764949752       13.2656806768       16.8461328508  SOLV      5045            0.0000000000
     15254      5056  TIP3      H1             -2.4310149752       13.8540506768       16.7265328508  SOLV      5045            0.0000000000
     15255      5056  TIP3      H2             -3.9338149752       13.8476506768       16.9094428508  SOLV      5045            0.0000000000
     15256      5057  TIP3      OH2           -14.7339749752       10.5804706768       19.4501928508  SOLV      5046            0.0000000000
     15257      5057  TIP3      H1            -14.3258549752        9.7231306768       19.3292528508  SOLV      5046            0.0000000000
     15258      5057  TIP3      H2            -14.9942149752       10.5946006768       20.3712228508  SOLV      5046            0.0000000000
     15259      5058  TIP3      OH2           -10.0758749752       11.6963306768        4.4685228508  SOLV      5047            0.0000000000
     15260      5058  TIP3      H1            -10.5356749752       11.2121606768        5.1543728508  SOLV      5047            0.0000000000
     15261      5058  TIP3      H2             -9.8210049752       11.0278706768        3.8325728508  SOLV      5047            0.0000000000
     15262      5059  TIP3      OH2           -10.7869449752        9.5890406768       16.8244828508  SOLV      5048            0.0000000000
     15263      5059  TIP3      H1            -11.4053349752       10.2637006768       17.1049528508  SOLV      5048            0.0000000000
     15264      5059  TIP3      H2            -10.4428249752        9.9104306768       15.9911028508  SOLV      5048            0.0000000000
     15265      5060  TIP3      OH2            -9.0048349752        9.9395106768        2.7308428508  SOLV      5049            0.0000000000
     15266      5060  TIP3      H1             -9.1853349752        9.7846306768        1.8036728508  SOLV      5049            0.0000000000
     15267      5060  TIP3      H2             -8.0547849752       10.0473806768        2.7756328508  SOLV      5049            0.0000000000
     15268      5061  TIP3      OH2            -5.7671249752       12.0605706768       20.1019628508  SOLV      5050            0.0000000000
     15269      5061  TIP3      H1             -4.8140049752       12.1444806768       20.0745628508  SOLV      5050            0.0000000000
     15270      5061  TIP3      H2             -5.9276649752       11.3487506768       20.7214528508  SOLV      5050            0.0000000000
     15271      5062  TIP3      OH2             0.3849950248       12.2939306768        2.1766528508  SOLV      5051            0.0000000000
     15272      5062  TIP3      H1              0.1114750248       11.8694806768        1.3634828508  SOLV      5051            0.0000000000
     15273      5062  TIP3      H2              0.4244050248       13.2253806768        1.9596928508  SOLV      5051            0.0000000000
     15274      5063  TIP3      OH2           -10.4475749752        6.9441206768       17.9067928508  SOLV      5052            0.0000000000
     15275      5063  TIP3      H1            -10.2974849752        6.2152506768       17.3047628508  SOLV      5052            0.0000000000
     15276      5063  TIP3      H2            -10.4453349752        7.7212906768       17.3480128508  SOLV      5052            0.0000000000
     15277      5064  TIP3      OH2           -10.0350049752        5.3137006768       15.3995328508  SOLV      5053            0.0000000000
     15278      5064  TIP3      H1             -9.4992549752        5.7653706768       14.7474628508  SOLV      5053            0.0000000000
     15279      5064  TIP3      H2            -10.8870449752        5.2056806768       14.9769428508  SOLV      5053            0.0000000000
     15280      5065  TIP3      OH2            -8.4531649752       10.7533206768       15.6390528508  SOLV      5054            0.0000000000
     15281      5065  TIP3      H1             -7.7026849752       10.5970706768       15.0658328508  SOLV      5054            0.0000000000
     15282      5065  TIP3      H2             -8.7923349752       11.6049806768       15.3636028508  SOLV      5054            0.0000000000
     15283      5066  TIP3      OH2            -4.0375449752        8.5685006768       20.6675828508  SOLV      5055            0.0000000000
     15284      5066  TIP3      H1             -3.8454149752        7.6374406768       20.5560328508  SOLV      5055            0.0000000000
     15285      5066  TIP3      H2             -3.1799149752        8.9934506768       20.6571228508  SOLV      5055            0.0000000000
     15286      5067  TIP3      OH2            -2.7208249752       11.3570206768       18.7448528508  SOLV      5056            0.0000000000
     15287      5067  TIP3      H1             -3.0023249752       12.0664806768       18.1672328508  SOLV      5056            0.0000000000
     15288      5067  TIP3      H2             -1.7783949752       11.2843206768       18.5939728508  SOLV      5056            0.0000000000
     15289      5068  TIP3      OH2           -11.9689449752        8.1424706768       19.8183528508  SOLV      5057            0.0000000000
     15290      5068  TIP3      H1            -12.7360449752        7.6099506768       19.6081128508  SOLV      5057            0.0000000000
     15291      5068  TIP3      H2            -11.2900449752        7.8325106768       19.2189828508  SOLV      5057            0.0000000000
     15292      5069  TIP3      OH2            -9.2294549752        2.7702706768       15.8308928508  SOLV      5058            0.0000000000
     15293      5069  TIP3      H1             -9.3274949752        3.7165906768       15.7255128508  SOLV      5058            0.0000000000
     15294      5069  TIP3      H2             -9.9718349752        2.3976506768       15.3552428508  SOLV      5058            0.0000000000
     15295      5070  TIP3      OH2            -7.9654049752        7.0918106768       19.3947328508  SOLV      5059            0.0000000000
     15296      5070  TIP3      H1             -8.2008649752        6.8724806768       20.2962228508  SOLV      5059            0.0000000000
     15297      5070  TIP3      H2             -8.7487149752        6.8849306768       18.8849828508  SOLV      5059            0.0000000000
     15298      5071  TIP3      OH2            -5.2497449752        6.2191606768       18.4700828508  SOLV      5060            0.0000000000
     15299      5071  TIP3      H1             -6.1972049752        6.2511306768       18.6024128508  SOLV      5060            0.0000000000
     15300      5071  TIP3      H2             -4.9370749752        5.5938706768       19.1239028508  SOLV      5060            0.0000000000
     15301      5072  TIP3      OH2            -3.6155949752        4.8532706768       20.4752728508  SOLV      5061            0.0000000000
     15302      5072  TIP3      H1             -3.7124149752        3.9010006768       20.4694628508  SOLV      5061            0.0000000000
     15303      5072  TIP3      H2             -3.9372849752        5.1219506768       21.3358228508  SOLV      5061            0.0000000000
     15304      5073  TIP3      OH2           -13.7886649752        6.0628506768       19.5228228508  SOLV      5062            0.0000000000
     15305      5073  TIP3      H1            -13.5769249752        5.3564606768       18.9125728508  SOLV      5062            0.0000000000
     15306      5073  TIP3      H2            -13.8999149752        5.6254506768       20.3669428508  SOLV      5062            0.0000000000
     15307      5074  TIP3      OH2            -9.0076449752        2.0640106768       18.5021728508  SOLV      5063            0.0000000000
     15308      5074  TIP3      H1             -8.2958049752        1.4242306768       18.4880828508  SOLV      5063            0.0000000000
     15309      5074  TIP3      H2             -9.1086049752        2.3308406768       17.5884828508  SOLV      5063            0.0000000000
     15310      5075  TIP3      OH2            -8.6538949752        3.7468506768       20.5558028508  SOLV      5064            0.0000000000
     15311      5075  TIP3      H1             -8.7856749752        3.2712306768       19.7356528508  SOLV      5064            0.0000000000
     15312      5075  TIP3      H2             -9.2531549752        4.4912106768       20.5005128508  SOLV      5064            0.0000000000
     15313      5076  TIP3      OH2            -9.1076649752       20.6298806768        3.7322028508  SOLV      5065            0.0000000000
     15314      5076  TIP3      H1             -8.1745949752       20.7877506768        3.8760428508  SOLV      5065            0.0000000000
     15315      5076  TIP3      H2             -9.3717849752       21.3051806768        3.1073528508  SOLV      5065            0.0000000000
     15316      5077  TIP3      OH2           -15.5391749752       15.2662606768        3.2150128508  SOLV      5066            0.0000000000
     15317      5077  TIP3      H1            -14.6252549752       15.3451506768        3.4884028508  SOLV      5066            0.0000000000
     15318      5077  TIP3      H2            -15.5318649752       14.5792206768        2.5485728508  SOLV      5066            0.0000000000
     15319      5078  TIP3      OH2           -16.8901149752       20.6591106768        8.2924028508  SOLV      5067            0.0000000000
     15320      5078  TIP3      H1            -17.5374049752       20.1972806768        7.7595228508  SOLV      5067            0.0000000000
     15321      5078  TIP3      H2            -16.5356549752       19.9874406768        8.8750228508  SOLV      5067            0.0000000000
     15322      5079  TIP3      OH2           -16.0201949752       18.7398106768       10.0970228508  SOLV      5068            0.0000000000
     15323      5079  TIP3      H1            -16.3545149752       17.8595406768       10.2690428508  SOLV      5068            0.0000000000
     15324      5079  TIP3      H2            -15.7979549752       19.0853106768       10.9615828508  SOLV      5068            0.0000000000
     15325      5080  TIP3      OH2             1.5282850248       19.5494506768       13.0775028508  SOLV      5069            0.0000000000
     15326      5080  TIP3      H1              1.5069550248       19.7342906768       14.0164428508  SOLV      5069            0.0000000000
     15327      5080  TIP3      H2              2.2189050248       20.1178506768       12.7366428508  SOLV      5069            0.0000000000
     15328      5081  TIP3      OH2             1.0915750248       19.1165606768       15.9994128508  SOLV      5070            0.0000000000
     15329      5081  TIP3      H1              0.6044450248       18.3809706768       15.6281528508  SOLV      5070            0.0000000000
     15330      5081  TIP3      H2              1.6408450248       18.7229506768       16.6773528508  SOLV      5070            0.0000000000
     15331      5082  TIP3      OH2            -0.4576949752       14.9063706768       20.6374428508  SOLV      5071            0.0000000000
     15332      5082  TIP3      H1             -1.3235849752       14.8013406768       21.0316728508  SOLV      5071            0.0000000000
     15333      5082  TIP3      H2             -0.0811049752       15.6647006768       21.0839128508  SOLV      5071            0.0000000000
     15334      5083  TIP3      OH2             0.8432750248       13.1627406768        6.1516928508  SOLV      5072            0.0000000000
     15335      5083  TIP3      H1              1.6934150248       13.5838306768        6.2788528508  SOLV      5072            0.0000000000
     15336      5083  TIP3      H2              0.8487850248       12.4227506768        6.7588328508  SOLV      5072            0.0000000000
     15337      5084  TIP3      OH2             1.2378350248       11.2164806768        7.9752628508  SOLV      5073            0.0000000000
     15338      5084  TIP3      H1              0.5112950248       10.7367406768        8.3730228508  SOLV      5073            0.0000000000
     15339      5084  TIP3      H2              1.8191650248       11.4219506768        8.7074228508  SOLV      5073            0.0000000000
     15340      5085  TIP3      OH2             0.9969550248       14.0012306768       12.9230228508  SOLV      5074            0.0000000000
     15341      5085  TIP3      H1              1.8303750248       13.6232306768       12.6423828508  SOLV      5074            0.0000000000
     15342      5085  TIP3      H2              1.1089850248       14.9443506768       12.8039328508  SOLV      5074            0.0000000000
     15343      5086  TIP3      OH2            -0.5168149752       16.8789806768       15.2298628508  SOLV      5075            0.0000000000
     15344      5086  TIP3      H1             -1.1642849752       17.2041306768       15.8553828508  SOLV      5075            0.0000000000
     15345      5086  TIP3      H2             -1.0344149752       16.4387506768       14.5556928508  SOLV      5075            0.0000000000
     15346      5087  TIP3      OH2             1.5061450248       11.1173306768        4.3663928508  SOLV      5076            0.0000000000
     15347      5087  TIP3      H1              0.9842550248       11.4737406768        3.6474828508  SOLV      5076            0.0000000000
     15348      5087  TIP3      H2              1.4730650248       11.7921106768        5.0444828508  SOLV      5076            0.0000000000
     15349      5088  TIP3      OH2            -0.1449549752        8.3568906768        2.9171028508  SOLV      5077            0.0000000000
     15350      5088  TIP3      H1             -0.0485149752        9.0235906768        2.2370728508  SOLV      5077            0.0000000000
     15351      5088  TIP3      H2             -0.2849949752        7.5415206768        2.4356528508  SOLV      5077            0.0000000000
     15352      5089  TIP3      OH2            -0.9754849752        9.7371306768        8.5381328508  SOLV      5078            0.0000000000
     15353      5089  TIP3      H1             -1.1256049752        8.7919906768        8.5179128508  SOLV      5078            0.0000000000
     15354      5089  TIP3      H2             -1.3290349752       10.0182706768        9.3820428508  SOLV      5078            0.0000000000
     15355      5090  TIP3      OH2           -15.9402449752       11.8153506768       12.5485128508  SOLV      5079            0.0000000000
     15356      5090  TIP3      H1            -15.7559549752       11.7335206768       11.6128028508  SOLV      5079            0.0000000000
     15357      5090  TIP3      H2            -15.0909549752       11.6910506768       12.9721528508  SOLV      5079            0.0000000000
     15358      5091  TIP3      OH2            -0.1191949752       11.7074606768       18.1769628508  SOLV      5080            0.0000000000
     15359      5091  TIP3      H1              0.4635350248       10.9726906768       18.3686828508  SOLV      5080            0.0000000000
     15360      5091  TIP3      H2              0.4447350248       12.4794906768       18.2235428508  SOLV      5080            0.0000000000
     15361      5092  TIP3      OH2             1.3775150248        9.6100406768       18.8615028508  SOLV      5081            0.0000000000
     15362      5092  TIP3      H1              0.5141850248        9.2312506768       18.6959728508  SOLV      5081            0.0000000000
     15363      5092  TIP3      H2              1.9818850248        8.8715206768       18.7870828508  SOLV      5081            0.0000000000
     15364      5093  TIP3      OH2            -0.8975749752        5.7648706768        2.0346528508  SOLV      5082            0.0000000000
     15365      5093  TIP3      H1             -0.2869949752        5.3935506768        2.6714728508  SOLV      5082            0.0000000000
     15366      5093  TIP3      H2             -1.7344249752        5.3435606768        2.2306528508  SOLV      5082            0.0000000000
     15367      5094  TIP3      OH2            -1.2650049752        7.3197106768        7.0006428508  SOLV      5083            0.0000000000
     15368      5094  TIP3      H1             -0.9852949752        6.4127506768        7.1248128508  SOLV      5083            0.0000000000
     15369      5094  TIP3      H2             -0.5058349752        7.7538606768        6.6115628508  SOLV      5083            0.0000000000
     15370      5095  TIP3      OH2            -0.6531749752        7.9014506768       12.4365328508  SOLV      5084            0.0000000000
     15371      5095  TIP3      H1              0.2796250248        8.1134406768       12.4021328508  SOLV      5084            0.0000000000
     15372      5095  TIP3      H2             -0.8884249752        8.0026606768       13.3588328508  SOLV      5084            0.0000000000
     15373      5096  TIP3      OH2            -0.6239849752        8.6379806768       15.2124728508  SOLV      5085            0.0000000000
     15374      5096  TIP3      H1             -1.4668549752        8.9060206768       15.5784528508  SOLV      5085            0.0000000000
     15375      5096  TIP3      H2             -0.1815549752        9.4601706768       15.0015828508  SOLV      5085            0.0000000000
     15376      5097  TIP3      OH2           -16.3427649752        7.0858506768       18.6893928508  SOLV      5086            0.0000000000
     15377      5097  TIP3      H1            -15.4232749752        6.9636806768       18.9257028508  SOLV      5086            0.0000000000
     15378      5097  TIP3      H2            -16.7923149752        6.3358206768       19.0787428508  SOLV      5086            0.0000000000
     15379      5098  TIP3      OH2             1.6591750248        2.6180006768       20.5659728508  SOLV      5087            0.0000000000
     15380      5098  TIP3      H1              2.0088750248        1.9643506768       19.9604428508  SOLV      5087            0.0000000000
     15381      5098  TIP3      H2              1.8061250248        3.4554106768       20.1262328508  SOLV      5087            0.0000000000
     15382      5099  TIP3      OH2            -0.6515249752        4.5826406768        7.0488428508  SOLV      5088            0.0000000000
     15383      5099  TIP3      H1             -0.4690249752        4.1337906768        7.8743428508  SOLV      5088            0.0000000000
     15384      5099  TIP3      H2             -1.2512349752        3.9980806768        6.5853028508  SOLV      5088            0.0000000000
     15385      5100  TIP3      OH2           -15.1215149752        5.3980106768       11.5806828508  SOLV      5089            0.0000000000
     15386      5100  TIP3      H1            -14.6763549752        4.6062606768       11.8826528508  SOLV      5089            0.0000000000
     15387      5100  TIP3      H2            -14.6552149752        6.1145306768       12.0112428508  SOLV      5089            0.0000000000
     15388      5101  TIP3      OH2           -16.8174849752        8.3973106768       12.6497028508  SOLV      5090            0.0000000000
     15389      5101  TIP3      H1            -16.3255049752        8.1763606768       11.8589028508  SOLV      5090            0.0000000000
     15390      5101  TIP3      H2            -16.4553949752        9.2376506768       12.9306528508  SOLV      5090            0.0000000000
     15391      5102  TIP3      OH2             1.1788950248        4.7274606768       18.9151028508  SOLV      5091            0.0000000000
     15392      5102  TIP3      H1              0.2614650248        4.9981706768       18.8794528508  SOLV      5091            0.0000000000
     15393      5102  TIP3      H2              1.3018350248        4.1923006768       18.1310728508  SOLV      5091            0.0000000000
     15394      5103  TIP3      OH2           -16.5038349752        4.6552206768        6.7039428508  SOLV      5092            0.0000000000
     15395      5103  TIP3      H1            -17.4289949752        4.8638806768        6.5744928508  SOLV      5092            0.0000000000
     15396      5103  TIP3      H2            -16.0498449752        5.1393006768        6.0141728508  SOLV      5092            0.0000000000
     15397      5104  TIP3      OH2            -1.7331149752       19.6393906768        8.6496828508  SOLV      5093            0.0000000000
     15398      5104  TIP3      H1             -1.0808249752       19.2916006768        8.0415928508  SOLV      5093            0.0000000000
     15399      5104  TIP3      H2             -1.2227349752       20.1277106768        9.2956528508  SOLV      5093            0.0000000000
     15400      5105  TIP3      OH2           -14.3483649752       16.5685306768       19.1927728508  SOLV      5094            0.0000000000
     15401      5105  TIP3      H1            -15.1691149752       16.7431806768       18.7322428508  SOLV      5094            0.0000000000
     15402      5105  TIP3      H2            -14.6005849752       16.4950006768       20.1132128508  SOLV      5094            0.0000000000
     15403      5106  TIP3      OH2           -11.3940749752       17.5426506768       15.4511728508  SOLV      5095            0.0000000000
     15404      5106  TIP3      H1            -11.8189649752       18.3525006768       15.1686328508  SOLV      5095            0.0000000000
     15405      5106  TIP3      H2            -10.4897949752       17.6280606768       15.1491528508  SOLV      5095            0.0000000000
     15406      5107  TIP3      OH2            -7.0829349752       18.9416506768       18.4105428508  SOLV      5096            0.0000000000
     15407      5107  TIP3      H1             -6.8981849752       18.6082606768       19.2885728508  SOLV      5096            0.0000000000
     15408      5107  TIP3      H2             -6.2364849752       19.2515106768       18.0884628508  SOLV      5096            0.0000000000
     15409      5108  TIP3      OH2            -4.7378949752       20.2275406768       17.6546828508  SOLV      5097            0.0000000000
     15410      5108  TIP3      H1             -4.0610049752       19.5947706768       17.4146028508  SOLV      5097            0.0000000000
     15411      5108  TIP3      H2             -4.4160149752       20.6285906768       18.4620128508  SOLV      5097            0.0000000000
     15412      5109  TIP3      OH2             0.1794850248        2.8170906768       16.7341828508  SOLV      5098            0.0000000000
     15413      5109  TIP3      H1             -0.6331649752        3.1421206768       16.3466528508  SOLV      5098            0.0000000000
     15414      5109  TIP3      H2              0.4123350248        2.0569406768       16.2010928508  SOLV      5098            0.0000000000
     15415      5110  TIP3      OH2           -13.9924049752       20.7990406768       15.4987028508  SOLV      5099            0.0000000000
     15416      5110  TIP3      H1            -14.7127649752       21.2391406768       15.0474728508  SOLV      5099            0.0000000000
     15417      5110  TIP3      H2            -14.3580049752       20.5485106768       16.3471028508  SOLV      5099            0.0000000000
     15418      5111  TIP3      OH2           -11.5251449752       20.3994306768       14.5284228508  SOLV      5100            0.0000000000
     15419      5111  TIP3      H1            -12.3899249752       20.4712806768       14.9324328508  SOLV      5100            0.0000000000
     15420      5111  TIP3      H2            -11.5802449752       20.9461606768       13.7446728508  SOLV      5100            0.0000000000
     15421      5112  TIP3      OH2            -6.8145849752       20.2873206768       13.7040228508  SOLV      5101            0.0000000000
     15422      5112  TIP3      H1             -7.2711849752       20.8162906768       13.0498628508  SOLV      5101            0.0000000000
     15423      5112  TIP3      H2             -6.6517849752       20.8904606768       14.4292528508  SOLV      5101            0.0000000000
     15424      5113  TIP3      OH2            -4.4869549752       19.1652806768       14.6490528508  SOLV      5102            0.0000000000
     15425      5113  TIP3      H1             -5.3915849752       19.3303006768       14.3832628508  SOLV      5102            0.0000000000
     15426      5113  TIP3      H2             -4.0580949752       20.0185006768       14.5833928508  SOLV      5102            0.0000000000
     15427      5114  TIP3      OH2            -1.8827649752       20.7351906768       14.9438328508  SOLV      5103            0.0000000000
     15428      5114  TIP3      H1             -2.0645649752       21.6510806768       14.7333228508  SOLV      5103            0.0000000000
     15429      5114  TIP3      H2             -1.7059849752       20.3249006768       14.0972928508  SOLV      5103            0.0000000000
     15430      5115  TIP3      OH2           -14.5775949752       19.4222906768       12.4088828508  SOLV      5104            0.0000000000
     15431      5115  TIP3      H1            -14.5959949752       18.9968006768       13.2661128508  SOLV      5104            0.0000000000
     15432      5115  TIP3      H2            -13.7728049752       19.1037906768       12.0001028508  SOLV      5104            0.0000000000
     15433      5116  TIP3      OH2           -12.4362849752       18.1321606768       11.0638728508  SOLV      5105            0.0000000000
     15434      5116  TIP3      H1            -12.6552149752       17.2159006768       11.2334728508  SOLV      5105            0.0000000000
     15435      5116  TIP3      H2            -11.6120649752       18.2722006768       11.5300128508  SOLV      5105            0.0000000000
     15436      5117  TIP3      OH2            -9.8990349752       18.6020906768       11.9126728508  SOLV      5106            0.0000000000
     15437      5117  TIP3      H1             -9.6864649752       17.7139906768       11.6257628508  SOLV      5106            0.0000000000
     15438      5117  TIP3      H2             -9.8345249752       18.5678606768       12.8670728508  SOLV      5106            0.0000000000
     15439      5118  TIP3      OH2            -6.3906649752        4.2661506768       11.0570028508  SOLV      5107            0.0000000000
     15440      5118  TIP3      H1             -7.0649849752        3.6367106768       11.3125828508  SOLV      5107            0.0000000000
     15441      5118  TIP3      H2             -5.8267449752        3.7820406768       10.4537928508  SOLV      5107            0.0000000000
     15442      5119  TIP3      OH2            -1.2479449752        2.3735506768       11.1697128508  SOLV      5108            0.0000000000
     15443      5119  TIP3      H1             -0.6441849752        2.9210906768       10.6678128508  SOLV      5108            0.0000000000
     15444      5119  TIP3      H2             -2.1177449752        2.6925906768       10.9291228508  SOLV      5108            0.0000000000
     15445      5120  TIP3      OH2             0.4790950248        3.5124206768        9.5028028508  SOLV      5109            0.0000000000
     15446      5120  TIP3      H1              1.0908450248        2.9979906768        8.9761628508  SOLV      5109            0.0000000000
     15447      5120  TIP3      H2              0.8614350248        4.3896306768        9.5262428508  SOLV      5109            0.0000000000
     15448      5121  TIP3      OH2           -15.2275749752        2.6979906768        4.6826028508  SOLV      5110            0.0000000000
     15449      5121  TIP3      H1            -14.7885049752        3.3090406768        4.0909528508  SOLV      5110            0.0000000000
     15450      5121  TIP3      H2            -15.8613349752        3.2364006768        5.1566028508  SOLV      5110            0.0000000000
     15451      5122  TIP3      OH2            -3.9278149752        2.8568706768       10.3414728508  SOLV      5111            0.0000000000
     15452      5122  TIP3      H1             -3.8516549752        2.9520306768        9.3920728508  SOLV      5111            0.0000000000
     15453      5122  TIP3      H2             -4.2028949752        1.9491606768       10.4703828508  SOLV      5111            0.0000000000
     15454      5123  TIP3      OH2            -2.5745549752        2.8826506768        6.0339728508  SOLV      5112            0.0000000000
     15455      5123  TIP3      H1             -3.2774449752        3.4975706768        5.8241128508  SOLV      5112            0.0000000000
     15456      5123  TIP3      H2             -3.0194149752        2.0453206768        6.1650628508  SOLV      5112            0.0000000000
     15457      5124  TIP3      OH2           -15.3266249752       18.6462106768        5.5801128508  SOLV      5113            0.0000000000
     15458      5124  TIP3      H1            -16.0116349752       18.6081006768        4.9126228508  SOLV      5113            0.0000000000
     15459      5124  TIP3      H2            -15.3229049752       19.5589706768        5.8683228508  SOLV      5113            0.0000000000
     15460      5125  TIP3      OH2           -13.3666649752        4.6141406768        3.1250128508  SOLV      5114            0.0000000000
     15461      5125  TIP3      H1            -12.8753249752        3.9843806768        2.5975628508  SOLV      5114            0.0000000000
     15462      5125  TIP3      H2            -12.7430349752        4.9100806768        3.7881328508  SOLV      5114            0.0000000000
     15463      5126  TIP3      OH2            -8.3406549752        4.9072906768        5.5820628508  SOLV      5115            0.0000000000
     15464      5126  TIP3      H1             -8.1625249752        4.2606106768        6.2649228508  SOLV      5115            0.0000000000
     15465      5126  TIP3      H2             -8.3940349752        5.7410606768        6.0491728508  SOLV      5115            0.0000000000
     15466      5127  TIP3      OH2            -6.4622749752       19.8557006768        3.9777328508  SOLV      5116            0.0000000000
     15467      5127  TIP3      H1             -5.5962549752       20.2224406768        3.7995528508  SOLV      5116            0.0000000000
     15468      5127  TIP3      H2             -6.7089949752       19.4165006768        3.1638128508  SOLV      5116            0.0000000000
     15469      5128  TIP3      OH2             0.2466850248       19.4187306768        6.6568428508  SOLV      5117            0.0000000000
     15470      5128  TIP3      H1              0.0523950248       18.6709406768        6.0918028508  SOLV      5117            0.0000000000
     15471      5128  TIP3      H2              0.2076950248       20.1767406768        6.0736328508  SOLV      5117            0.0000000000
     15472      5129  TIP3      OH2           -14.1061149752        3.4143706768       18.3966128508  SOLV      5118            0.0000000000
     15473      5129  TIP3      H1            -14.4722949752        2.6486306768       18.8390828508  SOLV      5118            0.0000000000
     15474      5129  TIP3      H2            -13.1932649752        3.4433906768       18.6831228508  SOLV      5118            0.0000000000
     15475      5130  TIP3      OH2           -12.1330349752        2.7648106768       19.9323228508  SOLV      5119            0.0000000000
     15476      5130  TIP3      H1            -11.2346749752        2.4908306768       19.7476628508  SOLV      5119            0.0000000000
     15477      5130  TIP3      H2            -12.5197249752        2.0224106768       20.3965828508  SOLV      5119            0.0000000000
     15478      5131  TIP3      OH2           -13.5085049752       19.5662906768        2.6053228508  SOLV      5120            0.0000000000
     15479      5131  TIP3      H1            -13.7760449752       19.8525806768        3.4786328508  SOLV      5120            0.0000000000
     15480      5131  TIP3      H2            -12.7372449752       19.0202106768        2.7575728508  SOLV      5120            0.0000000000
     15481      5132  TIP3      OH2            -3.7118049752        2.0973406768       20.1146028508  SOLV      5121            0.0000000000
     15482      5132  TIP3      H1             -3.6350849752        1.6714106768       20.9683728508  SOLV      5121            0.0000000000
     15483      5132  TIP3      H2             -2.8181449752        2.1108106768       19.7719528508  SOLV      5121            0.0000000000
     15484      5133  TIP3      OH2            -0.5356949752       18.1699706768       18.8070228508  SOLV      5122            0.0000000000
     15485      5133  TIP3      H1             -1.3175049752       17.9837706768       18.2870828508  SOLV      5122            0.0000000000
     15486      5133  TIP3      H2             -0.6077049752       19.0994006768       19.0242728508  SOLV      5122            0.0000000000
     15487      5134  TIP3      OH2            13.8703450248       12.0564106768        8.8377428508  SOLV      5123            0.0000000000
     15488      5134  TIP3      H1             13.9594550248       13.0002306768        8.7054528508  SOLV      5123            0.0000000000
     15489      5134  TIP3      H2             13.2321050248       11.7810506768        8.1796828508  SOLV      5123            0.0000000000
     15490      5135  TIP3      OH2            12.8034750248       11.3114806768       12.2565628508  SOLV      5124            0.0000000000
     15491      5135  TIP3      H1             12.7652250248       10.6651106768       12.9615228508  SOLV      5124            0.0000000000
     15492      5135  TIP3      H2             12.4811250248       10.8449206768       11.4854328508  SOLV      5124            0.0000000000
     15493      5136  TIP3      OH2             5.1719750248       10.9256906768       13.8495528508  SOLV      5125            0.0000000000
     15494      5136  TIP3      H1              5.2131850248       10.3000206768       14.5727928508  SOLV      5125            0.0000000000
     15495      5136  TIP3      H2              5.8747450248       11.5495506768       14.0315928508  SOLV      5125            0.0000000000
     15496      5137  TIP3      OH2            16.5094950248       14.2505206768       10.5580728508  SOLV      5126            0.0000000000
     15497      5137  TIP3      H1             16.0687650248       13.5301206768       11.0086328508  SOLV      5126            0.0000000000
     15498      5137  TIP3      H2             16.4964650248       14.9712406768       11.1878428508  SOLV      5126            0.0000000000
     15499      5138  TIP3      OH2             6.0952850248       15.3755806768       12.3844628508  SOLV      5127            0.0000000000
     15500      5138  TIP3      H1              5.7258050248       14.5736306768       12.0148928508  SOLV      5127            0.0000000000
     15501      5138  TIP3      H2              7.0363950248       15.2070706768       12.4308028508  SOLV      5127            0.0000000000
     15502      5139  TIP3      OH2             2.7053350248        9.0358406768        7.7773428508  SOLV      5128            0.0000000000
     15503      5139  TIP3      H1              2.2576750248        9.8817106768        7.7589928508  SOLV      5128            0.0000000000
     15504      5139  TIP3      H2              2.1444550248        8.4562606768        7.2618528508  SOLV      5128            0.0000000000
     15505      5140  TIP3      OH2             3.4159450248       11.1978006768        9.9031428508  SOLV      5129            0.0000000000
     15506      5140  TIP3      H1              3.6292950248       10.4279606768       10.4304428508  SOLV      5129            0.0000000000
     15507      5140  TIP3      H2              4.1537050248       11.2874706768        9.2999028508  SOLV      5129            0.0000000000
     15508      5141  TIP3      OH2            13.6210450248       19.3546906768       10.7701128508  SOLV      5130            0.0000000000
     15509      5141  TIP3      H1             14.2406850248       18.6781606768       10.4970328508  SOLV      5130            0.0000000000
     15510      5141  TIP3      H2             13.4127850248       19.1367706768       11.6786028508  SOLV      5130            0.0000000000
     15511      5142  TIP3      OH2            11.1929150248       13.7436206768       12.6626628508  SOLV      5131            0.0000000000
     15512      5142  TIP3      H1             11.4967050248       13.0577606768       12.0680728508  SOLV      5131            0.0000000000
     15513      5142  TIP3      H2             11.9143150248       13.8624906768       13.2804628508  SOLV      5131            0.0000000000
     15514      5143  TIP3      OH2            19.8558950248        5.3451506768       13.5232828508  SOLV      5132            0.0000000000
     15515      5143  TIP3      H1             19.9051150248        5.9552706768       14.2591928508  SOLV      5132            0.0000000000
     15516      5143  TIP3      H2             20.2814050248        5.8062406768       12.8003928508  SOLV      5132            0.0000000000
     15517      5144  TIP3      OH2            14.3336150248        8.1378606768       12.9901428508  SOLV      5133            0.0000000000
     15518      5144  TIP3      H1             14.4762050248        7.1915606768       13.0103028508  SOLV      5133            0.0000000000
     15519      5144  TIP3      H2             14.2275150248        8.3448406768       12.0616328508  SOLV      5133            0.0000000000
     15520      5145  TIP3      OH2             7.4884450248        6.2395006768       10.2626228508  SOLV      5134            0.0000000000
     15521      5145  TIP3      H1              7.5315550248        7.0993506768        9.8442528508  SOLV      5134            0.0000000000
     15522      5145  TIP3      H2              7.0308550248        5.6869706768        9.6289428508  SOLV      5134            0.0000000000
     15523      5146  TIP3      OH2            15.2107150248        6.3700606768        8.6634528508  SOLV      5135            0.0000000000
     15524      5146  TIP3      H1             15.8571450248        6.0413806768        9.2882128508  SOLV      5135            0.0000000000
     15525      5146  TIP3      H2             15.7206550248        6.8879606768        8.0405928508  SOLV      5135            0.0000000000
     15526      5147  TIP3      OH2             4.1085950248        8.6360806768       11.0247628508  SOLV      5136            0.0000000000
     15527      5147  TIP3      H1              4.7622550248        8.0862506768       11.4567728508  SOLV      5136            0.0000000000
     15528      5147  TIP3      H2              4.1325250248        8.3619806768       10.1079628508  SOLV      5136            0.0000000000
     15529      5148  TIP3      OH2             9.2650450248       10.1862106768       10.2399128508  SOLV      5137            0.0000000000
     15530      5148  TIP3      H1              9.8811450248        9.6597506768       10.7493128508  SOLV      5137            0.0000000000
     15531      5148  TIP3      H2              8.6789250248        9.5460806768        9.8362728508  SOLV      5137            0.0000000000
     15532      5149  TIP3      OH2            20.2473550248        6.8230706768       15.7592628508  SOLV      5138            0.0000000000
     15533      5149  TIP3      H1             19.5588150248        7.4811406768       15.6639228508  SOLV      5138            0.0000000000
     15534      5149  TIP3      H2             20.2628150248        6.6258606768       16.6958028508  SOLV      5138            0.0000000000
     15535      5150  TIP3      OH2             6.2986350248        5.1573406768       14.3367028508  SOLV      5139            0.0000000000
     15536      5150  TIP3      H1              6.0798050248        5.6874006768       13.5703028508  SOLV      5139            0.0000000000
     15537      5150  TIP3      H2              5.6307250248        5.3838906768       14.9838428508  SOLV      5139            0.0000000000
     15538      5151  TIP3      OH2            13.6676150248       14.6574506768        7.8806128508  SOLV      5140            0.0000000000
     15539      5151  TIP3      H1             13.3721250248       14.3346806768        7.0293028508  SOLV      5140            0.0000000000
     15540      5151  TIP3      H2             13.3433950248       15.5571206768        7.9218728508  SOLV      5140            0.0000000000
     15541      5152  TIP3      OH2             8.8677750248       12.8329106768       14.6240728508  SOLV      5141            0.0000000000
     15542      5152  TIP3      H1              8.1276850248       13.4310606768       14.7275928508  SOLV      5141            0.0000000000
     15543      5152  TIP3      H2              9.5817250248       13.3868706768       14.3084328508  SOLV      5141            0.0000000000
     15544      5153  TIP3      OH2             5.8923650248        7.0495206768       12.2889228508  SOLV      5142            0.0000000000
     15545      5153  TIP3      H1              6.5059950248        7.6822806768       12.6621628508  SOLV      5142            0.0000000000
     15546      5153  TIP3      H2              6.4044350248        6.5770206768       11.6326128508  SOLV      5142            0.0000000000
     15547      5154  TIP3      OH2             7.2752050248       14.7972106768       15.4112228508  SOLV      5143            0.0000000000
     15548      5154  TIP3      H1              7.2699650248       15.6765606768       15.0331528508  SOLV      5143            0.0000000000
     15549      5154  TIP3      H2              6.4216150248       14.7136206768       15.8362128508  SOLV      5143            0.0000000000
     15550      5155  TIP3      OH2             3.3962950248       14.4680006768        6.1931528508  SOLV      5144            0.0000000000
     15551      5155  TIP3      H1              3.1243850248       14.6971006768        5.3044428508  SOLV      5144            0.0000000000
     15552      5155  TIP3      H2              3.4418650248       15.3058806768        6.6536828508  SOLV      5144            0.0000000000
     15553      5156  TIP3      OH2            17.0212650248       16.0895906768       12.9060028508  SOLV      5145            0.0000000000
     15554      5156  TIP3      H1             16.0796350248       16.1479806768       13.0676928508  SOLV      5145            0.0000000000
     15555      5156  TIP3      H2             17.2978750248       16.9956406768       12.7689728508  SOLV      5145            0.0000000000
     15556      5157  TIP3      OH2            17.3219650248        4.3761206768       14.3233928508  SOLV      5146            0.0000000000
     15557      5157  TIP3      H1             16.5858850248        4.9868306768       14.2855228508  SOLV      5146            0.0000000000
     15558      5157  TIP3      H2             18.0053650248        4.7910206768       13.7970328508  SOLV      5146            0.0000000000
     15559      5158  TIP3      OH2            10.3251050248        2.4628506768       11.7891928508  SOLV      5147            0.0000000000
     15560      5158  TIP3      H1             10.2075250248        1.5144506768       11.7350228508  SOLV      5147            0.0000000000
     15561      5158  TIP3      H2              9.4701150248        2.7954606768       12.0623028508  SOLV      5147            0.0000000000
     15562      5159  TIP3      OH2            15.2733850248       17.8709406768        9.5311628508  SOLV      5148            0.0000000000
     15563      5159  TIP3      H1             15.6986150248       17.1637306768        9.0461228508  SOLV      5148            0.0000000000
     15564      5159  TIP3      H2             15.5903850248       18.6722106768        9.1143828508  SOLV      5148            0.0000000000
     15565      5160  TIP3      OH2            16.4330350248       15.7717906768        8.0398228508  SOLV      5149            0.0000000000
     15566      5160  TIP3      H1             16.1755150248       15.0818006768        7.4284128508  SOLV      5149            0.0000000000
     15567      5160  TIP3      H2             16.5041150248       15.3289106768        8.8854128508  SOLV      5149            0.0000000000
     15568      5161  TIP3      OH2            18.1190550248       14.3384606768       16.5171728508  SOLV      5150            0.0000000000
     15569      5161  TIP3      H1             18.2586850248       13.7467106768       15.7778728508  SOLV      5150            0.0000000000
     15570      5161  TIP3      H2             18.2863350248       15.2110506768       16.1610528508  SOLV      5150            0.0000000000
     15571      5162  TIP3      OH2            12.5915950248       11.3004106768        6.2897728508  SOLV      5151            0.0000000000
     15572      5162  TIP3      H1             11.8801450248       11.8353806768        5.9378228508  SOLV      5151            0.0000000000
     15573      5162  TIP3      H2             13.2825550248       11.3556206768        5.6296628508  SOLV      5151            0.0000000000
     15574      5163  TIP3      OH2            12.6455150248        9.7578406768        3.3282728508  SOLV      5152            0.0000000000
     15575      5163  TIP3      H1             13.3465050248        9.7805306768        3.9796728508  SOLV      5152            0.0000000000
     15576      5163  TIP3      H2             12.9478050248        9.1298106768        2.6722028508  SOLV      5152            0.0000000000
     15577      5164  TIP3      OH2            15.9973650248       11.5097406768        7.2413628508  SOLV      5153            0.0000000000
     15578      5164  TIP3      H1             15.2654650248       11.7381106768        7.8144228508  SOLV      5153            0.0000000000
     15579      5164  TIP3      H2             16.4445850248       10.7960106768        7.6961128508  SOLV      5153            0.0000000000
     15580      5165  TIP3      OH2            15.8947150248        9.6840006768       16.3090628508  SOLV      5154            0.0000000000
     15581      5165  TIP3      H1             15.9746250248       10.4474406768       16.8809128508  SOLV      5154            0.0000000000
     15582      5165  TIP3      H2             15.2934850248        9.9632406768       15.6185728508  SOLV      5154            0.0000000000
     15583      5166  TIP3      OH2             7.6427350248       12.1403606768        9.1238628508  SOLV      5155            0.0000000000
     15584      5166  TIP3      H1              7.3122550248       11.7697006768        8.3055628508  SOLV      5155            0.0000000000
     15585      5166  TIP3      H2              8.2311450248       11.4697606768        9.4706928508  SOLV      5155            0.0000000000
     15586      5167  TIP3      OH2             9.0094850248       15.5684206768       11.8050828508  SOLV      5156            0.0000000000
     15587      5167  TIP3      H1              8.9146150248       14.9897306768       11.0485428508  SOLV      5156            0.0000000000
     15588      5167  TIP3      H2              9.7388450248       15.1969906768       12.3013628508  SOLV      5156            0.0000000000
     15589      5168  TIP3      OH2             8.0092850248       10.9089206768       12.7573628508  SOLV      5157            0.0000000000
     15590      5168  TIP3      H1              8.5745350248       11.0303406768       11.9944828508  SOLV      5157            0.0000000000
     15591      5168  TIP3      H2              8.3281750248       11.5464206768       13.3962128508  SOLV      5157            0.0000000000
     15592      5169  TIP3      OH2            14.3185050248       16.4121106768       13.4914128508  SOLV      5158            0.0000000000
     15593      5169  TIP3      H1             14.0781650248       17.0744206768       14.1393328508  SOLV      5158            0.0000000000
     15594      5169  TIP3      H2             14.1203250248       15.5776306768       13.9163728508  SOLV      5158            0.0000000000
     15595      5170  TIP3      OH2             8.8893550248       15.3081906768       17.4745528508  SOLV      5159            0.0000000000
     15596      5170  TIP3      H1              8.5781050248       16.0905106768       17.9298728508  SOLV      5159            0.0000000000
     15597      5170  TIP3      H2              8.2393750248       15.1551006768       16.7887528508  SOLV      5159            0.0000000000
     15598      5171  TIP3      OH2            14.8683150248       10.6720306768        4.9264828508  SOLV      5160            0.0000000000
     15599      5171  TIP3      H1             15.4478650248       10.8220606768        5.6733728508  SOLV      5160            0.0000000000
     15600      5171  TIP3      H2             15.2823150248       11.1427706768        4.2031228508  SOLV      5160            0.0000000000
     15601      5172  TIP3      OH2             5.8093450248       11.5063006768       16.7031228508  SOLV      5161            0.0000000000
     15602      5172  TIP3      H1              5.8796650248       12.1569806768       17.4016228508  SOLV      5161            0.0000000000
     15603      5172  TIP3      H2              4.9185650248       11.6090506768       16.3682128508  SOLV      5161            0.0000000000
     15604      5173  TIP3      OH2            12.5948050248       17.4088806768        8.3617928508  SOLV      5162            0.0000000000
     15605      5173  TIP3      H1             13.0685650248       17.7045106768        9.1392128508  SOLV      5162            0.0000000000
     15606      5173  TIP3      H2             12.0317350248       18.1470406768        8.1287528508  SOLV      5162            0.0000000000
     15607      5174  TIP3      OH2             7.1289450248       17.3796906768       18.2379328508  SOLV      5163            0.0000000000
     15608      5174  TIP3      H1              7.1364750248       17.2436606768       17.2904828508  SOLV      5163            0.0000000000
     15609      5174  TIP3      H2              6.2129850248       17.2625006768       18.4899328508  SOLV      5163            0.0000000000
     15610      5175  TIP3      OH2            18.5671550248        2.4220706768        4.7394528508  SOLV      5164            0.0000000000
     15611      5175  TIP3      H1             17.6672250248        2.5609706768        5.0345128508  SOLV      5164            0.0000000000
     15612      5175  TIP3      H2             18.8189950248        3.2535306768        4.3376228508  SOLV      5164            0.0000000000
     15613      5176  TIP3      OH2             6.6330050248       11.2097906768        6.7131428508  SOLV      5165            0.0000000000
     15614      5176  TIP3      H1              6.3411350248       11.9779606768        6.2222728508  SOLV      5165            0.0000000000
     15615      5176  TIP3      H2              5.9585250248       10.5504106768        6.5502828508  SOLV      5165            0.0000000000
     15616      5177  TIP3      OH2            19.7562950248       16.7883106768        3.1158428508  SOLV      5166            0.0000000000
     15617      5177  TIP3      H1             19.8296450248       17.7273306768        3.2863728508  SOLV      5166            0.0000000000
     15618      5177  TIP3      H2             20.6618050248       16.4831706768        3.0595728508  SOLV      5166            0.0000000000
     15619      5178  TIP3      OH2             2.7260150248       13.5727106768       15.5281228508  SOLV      5167            0.0000000000
     15620      5178  TIP3      H1              2.2248550248       13.5446506768       14.7130928508  SOLV      5167            0.0000000000
     15621      5178  TIP3      H2              2.7313850248       12.6670306768       15.8378528508  SOLV      5167            0.0000000000
     15622      5179  TIP3      OH2             2.4762850248       16.3530906768       12.4121428508  SOLV      5168            0.0000000000
     15623      5179  TIP3      H1              3.4223450248       16.2087906768       12.3930928508  SOLV      5168            0.0000000000
     15624      5179  TIP3      H2              2.3639150248       17.1373706768       12.9492628508  SOLV      5168            0.0000000000
     15625      5180  TIP3      OH2            20.6741350248       17.0190606768       18.0945128508  SOLV      5169            0.0000000000
     15626      5180  TIP3      H1             20.6248150248       16.0638706768       18.0572728508  SOLV      5169            0.0000000000
     15627      5180  TIP3      H2             19.8473650248       17.2865906768       18.4958928508  SOLV      5169            0.0000000000
     15628      5181  TIP3      OH2            11.6525350248       16.5929806768       16.9706528508  SOLV      5170            0.0000000000
     15629      5181  TIP3      H1             11.7399950248       17.4194406768       17.4455628508  SOLV      5170            0.0000000000
     15630      5181  TIP3      H2             10.7890450248       16.2633606768       17.2195828508  SOLV      5170            0.0000000000
     15631      5182  TIP3      OH2            12.0671150248       20.3653506768        6.7767128508  SOLV      5171            0.0000000000
     15632      5182  TIP3      H1             11.9917150248       20.2440706768        5.8302328508  SOLV      5171            0.0000000000
     15633      5182  TIP3      H2             12.0999850248       21.3146206768        6.8951728508  SOLV      5171            0.0000000000
     15634      5183  TIP3      OH2             5.7204950248       19.1540506768        8.5576128508  SOLV      5172            0.0000000000
     15635      5183  TIP3      H1              5.8725350248       18.8060906768        9.4362628508  SOLV      5172            0.0000000000
     15636      5183  TIP3      H2              4.8695350248       18.7977806768        8.3023328508  SOLV      5172            0.0000000000
     15637      5184  TIP3      OH2            15.1687150248       19.5193706768        3.7789528508  SOLV      5173            0.0000000000
     15638      5184  TIP3      H1             15.5435550248       18.7749806768        3.3082128508  SOLV      5173            0.0000000000
     15639      5184  TIP3      H2             15.1730850248       19.2494306768        4.6972828508  SOLV      5173            0.0000000000
     15640      5185  TIP3      OH2            14.8375250248       19.4450806768        6.5281728508  SOLV      5174            0.0000000000
     15641      5185  TIP3      H1             13.9025050248       19.5452706768        6.7068728508  SOLV      5174            0.0000000000
     15642      5185  TIP3      H2             15.1177150248       18.7356806768        7.1064928508  SOLV      5174            0.0000000000
     15643      5186  TIP3      OH2            17.8261150248        8.5123106768       18.5747328508  SOLV      5175            0.0000000000
     15644      5186  TIP3      H1             17.4187950248        8.9928706768       17.8540628508  SOLV      5175            0.0000000000
     15645      5186  TIP3      H2             17.8666850248        7.6069106768       18.2668128508  SOLV      5175            0.0000000000
     15646      5187  TIP3      OH2             4.9750650248       14.8962506768       16.5714028508  SOLV      5176            0.0000000000
     15647      5187  TIP3      H1              5.1911950248       14.5348106768       17.4309828508  SOLV      5176            0.0000000000
     15648      5187  TIP3      H2              4.1195350248       14.5216306768       16.3617528508  SOLV      5176            0.0000000000
     15649      5188  TIP3      OH2             7.5938650248        3.3663006768       12.5668228508  SOLV      5177            0.0000000000
     15650      5188  TIP3      H1              6.7322350248        3.2791206768       12.1591128508  SOLV      5177            0.0000000000
     15651      5188  TIP3      H2              7.5714350248        4.2223106768       12.9945828508  SOLV      5177            0.0000000000
     15652      5189  TIP3      OH2            12.2566450248        3.0883406768       15.9415228508  SOLV      5178            0.0000000000
     15653      5189  TIP3      H1             12.6769550248        2.6730506768       16.6945828508  SOLV      5178            0.0000000000
     15654      5189  TIP3      H2             11.3236050248        2.9096706768       16.0587228508  SOLV      5178            0.0000000000
     15655      5190  TIP3      OH2            15.5831350248        6.8438606768       16.7949728508  SOLV      5179            0.0000000000
     15656      5190  TIP3      H1             15.0690850248        6.7180806768       17.5925728508  SOLV      5179            0.0000000000
     15657      5190  TIP3      H2             15.4276050248        7.7561706768       16.5505928508  SOLV      5179            0.0000000000
     15658      5191  TIP3      OH2            16.3456250248       11.7048606768        2.5562728508  SOLV      5180            0.0000000000
     15659      5191  TIP3      H1             16.3877050248       11.4822506768        1.6262728508  SOLV      5180            0.0000000000
     15660      5191  TIP3      H2             17.1948350248       12.1035706768        2.7462628508  SOLV      5180            0.0000000000
     15661      5192  TIP3      OH2            11.9183750248        5.5806806768        3.2266028508  SOLV      5181            0.0000000000
     15662      5192  TIP3      H1             11.6648550248        5.5998406768        4.1494128508  SOLV      5181            0.0000000000
     15663      5192  TIP3      H2             11.6615850248        4.7092206768        2.9252228508  SOLV      5181            0.0000000000
     15664      5193  TIP3      OH2             7.6848750248        8.3317506768       13.6618428508  SOLV      5182            0.0000000000
     15665      5193  TIP3      H1              7.0430850248        8.2914806768       14.3708528508  SOLV      5182            0.0000000000
     15666      5193  TIP3      H2              7.7220750248        9.2582206768       13.4241428508  SOLV      5182            0.0000000000
     15667      5194  TIP3      OH2             7.6817850248        8.5527606768        8.5738428508  SOLV      5183            0.0000000000
     15668      5194  TIP3      H1              6.7890750248        8.2123706768        8.5152228508  SOLV      5183            0.0000000000
     15669      5194  TIP3      H2              8.1324450248        8.1758506768        7.8181628508  SOLV      5183            0.0000000000
     15670      5195  TIP3      OH2            13.2173350248        8.9687906768        7.3909228508  SOLV      5184            0.0000000000
     15671      5195  TIP3      H1             12.8083650248        9.7836506768        7.0994028508  SOLV      5184            0.0000000000
     15672      5195  TIP3      H2             13.9379550248        8.8288006768        6.7766328508  SOLV      5184            0.0000000000
     15673      5196  TIP3      OH2            12.3194950248        9.1444306768       18.8789928508  SOLV      5185            0.0000000000
     15674      5196  TIP3      H1             11.7568750248        8.4395906768       19.1997728508  SOLV      5185            0.0000000000
     15675      5196  TIP3      H2             13.1458350248        9.0236206768       19.3467528508  SOLV      5185            0.0000000000
     15676      5197  TIP3      OH2            14.2221050248        8.4148306768       10.2048928508  SOLV      5186            0.0000000000
     15677      5197  TIP3      H1             14.0265550248        9.0205106768        9.4899528508  SOLV      5186            0.0000000000
     15678      5197  TIP3      H2             14.4033650248        7.5813506768        9.7705228508  SOLV      5186            0.0000000000
     15679      5198  TIP3      OH2             5.4349250248        8.6521006768       15.5290428508  SOLV      5187            0.0000000000
     15680      5198  TIP3      H1              5.3968650248        9.0522606768       16.3977528508  SOLV      5187            0.0000000000
     15681      5198  TIP3      H2              4.9440350248        7.8353406768       15.6193328508  SOLV      5187            0.0000000000
     15682      5199  TIP3      OH2             8.8006650248        6.0263306768        2.3276428508  SOLV      5188            0.0000000000
     15683      5199  TIP3      H1              8.3697350248        5.5813406768        3.0573828508  SOLV      5188            0.0000000000
     15684      5199  TIP3      H2              8.0825350248        6.3979606768        1.8153928508  SOLV      5188            0.0000000000
     15685      5200  TIP3      OH2             2.0430050248        5.7682806768        9.3795128508  SOLV      5189            0.0000000000
     15686      5200  TIP3      H1              2.6737750248        5.7394906768       10.0989028508  SOLV      5189            0.0000000000
     15687      5200  TIP3      H2              2.4924350248        5.3431506768        8.6491028508  SOLV      5189            0.0000000000
     15688      5201  TIP3      OH2             3.3172150248        6.5144806768        4.8035528508  SOLV      5190            0.0000000000
     15689      5201  TIP3      H1              3.7913850248        7.1054706768        4.2186428508  SOLV      5190            0.0000000000
     15690      5201  TIP3      H2              2.5998550248        7.0447706768        5.1505628508  SOLV      5190            0.0000000000
     15691      5202  TIP3      OH2            13.4860250248       10.0529606768       14.8761328508  SOLV      5191            0.0000000000
     15692      5202  TIP3      H1             13.8095050248        9.4219306768       14.2331828508  SOLV      5191            0.0000000000
     15693      5202  TIP3      H2             13.0459550248        9.5181806768       15.5368728508  SOLV      5191            0.0000000000
     15694      5203  TIP3      OH2            10.2633150248        5.9805106768        9.6602528508  SOLV      5192            0.0000000000
     15695      5203  TIP3      H1              9.3524250248        6.0371906768        9.9488528508  SOLV      5192            0.0000000000
     15696      5203  TIP3      H2             10.7686050248        5.9200606768       10.4709728508  SOLV      5192            0.0000000000
     15697      5204  TIP3      OH2             5.0916550248        7.6091406768        8.4870128508  SOLV      5193            0.0000000000
     15698      5204  TIP3      H1              4.2024550248        7.7086906768        8.1469728508  SOLV      5193            0.0000000000
     15699      5204  TIP3      H2              5.3881450248        6.7674406768        8.1408028508  SOLV      5193            0.0000000000
     15700      5205  TIP3      OH2             8.7448350248        7.6094006768        6.1434728508  SOLV      5194            0.0000000000
     15701      5205  TIP3      H1              9.6763850248        7.7384006768        6.3217828508  SOLV      5194            0.0000000000
     15702      5205  TIP3      H2              8.5298650248        8.2788306768        5.4939428508  SOLV      5194            0.0000000000
     15703      5206  TIP3      OH2            14.6685050248        5.2151406768       12.9244328508  SOLV      5195            0.0000000000
     15704      5206  TIP3      H1             13.9916650248        5.3464506768       13.5884028508  SOLV      5195            0.0000000000
     15705      5206  TIP3      H2             14.1829950248        5.0600906768       12.1142028508  SOLV      5195            0.0000000000
     15706      5207  TIP3      OH2             7.4188550248        8.8036206768        3.7100828508  SOLV      5196            0.0000000000
     15707      5207  TIP3      H1              6.8763650248        8.4240006768        3.0188428508  SOLV      5196            0.0000000000
     15708      5207  TIP3      H2              8.2523450248        8.9980906768        3.2814928508  SOLV      5196            0.0000000000
     15709      5208  TIP3      OH2            17.9560150248       20.8866806768       19.2011928508  SOLV      5197            0.0000000000
     15710      5208  TIP3      H1             18.1558850248       21.3108706768       18.3667228508  SOLV      5197            0.0000000000
     15711      5208  TIP3      H2             18.6113850248       21.2305006768       19.8082328508  SOLV      5197            0.0000000000
     15712      5209  TIP3      OH2             5.5539950248       13.3608106768       18.8092428508  SOLV      5198            0.0000000000
     15713      5209  TIP3      H1              6.2862350248       13.6154006768       19.3706928508  SOLV      5198            0.0000000000
     15714      5209  TIP3      H2              4.7738650248       13.5653506768       19.3247828508  SOLV      5198            0.0000000000
     15715      5210  TIP3      OH2            11.5832850248        8.7678106768       11.5472128508  SOLV      5199            0.0000000000
     15716      5210  TIP3      H1             12.1476250248        8.2214706768       11.0001728508  SOLV      5199            0.0000000000
     15717      5210  TIP3      H2             11.4356250248        8.2460006768       12.3359728508  SOLV      5199            0.0000000000
     15718      5211  TIP3      OH2             6.5852550248        4.9044206768        7.9656928508  SOLV      5200            0.0000000000
     15719      5211  TIP3      H1              6.2682050248        4.0019506768        7.9302328508  SOLV      5200            0.0000000000
     15720      5211  TIP3      H2              7.3666650248        4.9061606768        7.4128528508  SOLV      5200            0.0000000000
     15721      5212  TIP3      OH2            10.2098750248        7.1564206768       13.9612528508  SOLV      5201            0.0000000000
     15722      5212  TIP3      H1              9.3744050248        7.6103706768       14.0714928508  SOLV      5201            0.0000000000
     15723      5212  TIP3      H2             10.7339350248        7.4322706768       14.7132428508  SOLV      5201            0.0000000000
     15724      5213  TIP3      OH2            10.7541350248       13.3691906768        5.6458928508  SOLV      5202            0.0000000000
     15725      5213  TIP3      H1             10.0092350248       12.8617206768        5.3236828508  SOLV      5202            0.0000000000
     15726      5213  TIP3      H2             10.6198550248       13.4179906768        6.5923728508  SOLV      5202            0.0000000000
     15727      5214  TIP3      OH2            12.2733450248       13.5535206768       16.8828028508  SOLV      5203            0.0000000000
     15728      5214  TIP3      H1             11.9279550248       13.1717606768       17.6897628508  SOLV      5203            0.0000000000
     15729      5214  TIP3      H2             12.0733550248       14.4868806768       16.9540928508  SOLV      5203            0.0000000000
     15730      5215  TIP3      OH2            15.3701650248        8.0504506768        5.5058928508  SOLV      5204            0.0000000000
     15731      5215  TIP3      H1             16.2620650248        7.9129506768        5.8250128508  SOLV      5204            0.0000000000
     15732      5215  TIP3      H2             15.4265250248        8.8410606768        4.9692428508  SOLV      5204            0.0000000000
     15733      5216  TIP3      OH2             5.8789650248       12.6641906768       11.4156828508  SOLV      5205            0.0000000000
     15734      5216  TIP3      H1              6.6236850248       12.6617606768       10.8143328508  SOLV      5205            0.0000000000
     15735      5216  TIP3      H2              5.9566250248       11.8405706768       11.8971928508  SOLV      5205            0.0000000000
     15736      5217  TIP3      OH2            12.8795450248       14.8276206768        4.6713528508  SOLV      5206            0.0000000000
     15737      5217  TIP3      H1             12.5843850248       15.6544106768        5.0528328508  SOLV      5206            0.0000000000
     15738      5217  TIP3      H2             12.1765450248       14.2083106768        4.8674928508  SOLV      5206            0.0000000000
     15739      5218  TIP3      OH2             2.8869350248       11.1248806768       16.7305328508  SOLV      5207            0.0000000000
     15740      5218  TIP3      H1              3.1097950248       10.7068406768       17.5622828508  SOLV      5207            0.0000000000
     15741      5218  TIP3      H2              2.2849450248       10.5123806768       16.3078128508  SOLV      5207            0.0000000000
     15742      5219  TIP3      OH2             9.9034250248       10.6418706768       18.9435028508  SOLV      5208            0.0000000000
     15743      5219  TIP3      H1              9.6075050248       10.4761706768       18.0484128508  SOLV      5208            0.0000000000
     15744      5219  TIP3      H2             10.8349450248       10.4219006768       18.9328928508  SOLV      5208            0.0000000000
     15745      5220  TIP3      OH2            14.5237050248       16.0150706768       16.8333028508  SOLV      5209            0.0000000000
     15746      5220  TIP3      H1             13.6231350248       16.1983306768       16.5656928508  SOLV      5209            0.0000000000
     15747      5220  TIP3      H2             14.5578150248       16.2740006768       17.7541828508  SOLV      5209            0.0000000000
     15748      5221  TIP3      OH2            20.2550350248        8.2598606768        5.2005628508  SOLV      5210            0.0000000000
     15749      5221  TIP3      H1             19.7006650248        7.8636606768        4.5283128508  SOLV      5210            0.0000000000
     15750      5221  TIP3      H2             20.3553950248        9.1703806768        4.9228928508  SOLV      5210            0.0000000000
     15751      5222  TIP3      OH2            20.2182350248       14.0600306768       18.0377128508  SOLV      5211            0.0000000000
     15752      5222  TIP3      H1             19.3670850248       14.2984106768       17.6703528508  SOLV      5211            0.0000000000
     15753      5222  TIP3      H2             20.8085750248       14.0433506768       17.2844228508  SOLV      5211            0.0000000000
     15754      5223  TIP3      OH2            18.5502050248       17.0459006768        5.6657728508  SOLV      5212            0.0000000000
     15755      5223  TIP3      H1             18.1773150248       16.2202806768        5.9748328508  SOLV      5212            0.0000000000
     15756      5223  TIP3      H2             18.8275550248       16.8628406768        4.7681128508  SOLV      5212            0.0000000000
     15757      5224  TIP3      OH2            15.7105950248       11.8538506768       12.6869628508  SOLV      5213            0.0000000000
     15758      5224  TIP3      H1             14.7822850248       11.6220406768       12.6598928508  SOLV      5213            0.0000000000
     15759      5224  TIP3      H2             16.1617050248       11.0768306768       12.3568428508  SOLV      5213            0.0000000000
     15760      5225  TIP3      OH2             8.2539050248       16.1820106768        8.8198328508  SOLV      5214            0.0000000000
     15761      5225  TIP3      H1              8.7811250248       16.9554506768        8.6197128508  SOLV      5214            0.0000000000
     15762      5225  TIP3      H2              7.3737550248       16.4069306768        8.5182328508  SOLV      5214            0.0000000000
     15763      5226  TIP3      OH2             4.0086750248       11.0444206768        3.4070728508  SOLV      5215            0.0000000000
     15764      5226  TIP3      H1              4.6246650248       11.6711406768        3.7865528508  SOLV      5215            0.0000000000
     15765      5226  TIP3      H2              3.1469350248       11.3604006768        3.6787228508  SOLV      5215            0.0000000000
     15766      5227  TIP3      OH2             9.6811350248       13.8450006768        8.3962628508  SOLV      5216            0.0000000000
     15767      5227  TIP3      H1              9.4401350248       14.7704406768        8.4377928508  SOLV      5216            0.0000000000
     15768      5227  TIP3      H2              8.9404950248       13.3861306768        8.7926528508  SOLV      5216            0.0000000000
     15769      5228  TIP3      OH2            10.1957950248       17.9943606768       14.7113728508  SOLV      5217            0.0000000000
     15770      5228  TIP3      H1             10.5582650248       18.8489206768       14.4778128508  SOLV      5217            0.0000000000
     15771      5228  TIP3      H2             10.7273150248       17.7025206768       15.4520028508  SOLV      5217            0.0000000000
     15772      5229  TIP3      OH2             8.3642150248       18.8667606768        7.9414828508  SOLV      5218            0.0000000000
     15773      5229  TIP3      H1              7.4142650248       18.9725006768        7.9928128508  SOLV      5218            0.0000000000
     15774      5229  TIP3      H2              8.7160250248       19.6875006768        8.2862328508  SOLV      5218            0.0000000000
     15775      5230  TIP3      OH2            13.7398750248       14.0934306768       14.4119328508  SOLV      5219            0.0000000000
     15776      5230  TIP3      H1             13.3140050248       13.8656006768       15.2383328508  SOLV      5219            0.0000000000
     15777      5230  TIP3      H2             14.3204550248       13.3546106768       14.2294628508  SOLV      5219            0.0000000000
     15778      5231  TIP3      OH2            15.9427650248       15.0224806768        3.4858328508  SOLV      5220            0.0000000000
     15779      5231  TIP3      H1             16.2960750248       14.6424606768        4.2901828508  SOLV      5220            0.0000000000
     15780      5231  TIP3      H2             14.9941150248       14.9289606768        3.5727628508  SOLV      5220            0.0000000000
     15781      5232  TIP3      OH2            16.3982950248       18.6453806768       16.8814128508  SOLV      5221            0.0000000000
     15782      5232  TIP3      H1             15.7966150248       18.0896706768       16.3860428508  SOLV      5221            0.0000000000
     15783      5232  TIP3      H2             16.6796650248       19.3123606768       16.2551528508  SOLV      5221            0.0000000000
     15784      5233  TIP3      OH2            20.4462050248       19.5017306768        3.6868528508  SOLV      5222            0.0000000000
     15785      5233  TIP3      H1             21.1899950248       20.0877806768        3.5470128508  SOLV      5222            0.0000000000
     15786      5233  TIP3      H2             19.7520150248       20.0703106768        4.0200928508  SOLV      5222            0.0000000000
     15787      5234  TIP3      OH2             4.5208850248        5.8781506768       16.2886728508  SOLV      5223            0.0000000000
     15788      5234  TIP3      H1              3.6281150248        6.2166906768       16.2210728508  SOLV      5223            0.0000000000
     15789      5234  TIP3      H2              4.4221650248        5.0227606768       16.7067528508  SOLV      5223            0.0000000000
     15790      5235  TIP3      OH2            16.8086950248       13.6946806768        5.7126228508  SOLV      5224            0.0000000000
     15791      5235  TIP3      H1             16.5314550248       12.9666106768        6.2687328508  SOLV      5224            0.0000000000
     15792      5235  TIP3      H2             17.7359950248       13.8138806768        5.9178828508  SOLV      5224            0.0000000000
     15793      5236  TIP3      OH2             4.1720850248       17.6825906768       14.7236128508  SOLV      5225            0.0000000000
     15794      5236  TIP3      H1              4.3891150248       16.7508306768       14.6925828508  SOLV      5225            0.0000000000
     15795      5236  TIP3      H2              4.4184350248       17.9570906768       15.6068928508  SOLV      5225            0.0000000000
     15796      5237  TIP3      OH2            10.0335450248       16.1340906768        1.9328328508  SOLV      5226            0.0000000000
     15797      5237  TIP3      H1             10.2725250248       15.3859006768        1.3857228508  SOLV      5226            0.0000000000
     15798      5237  TIP3      H2              9.7646750248       15.7462606768        2.7656128508  SOLV      5226            0.0000000000
     15799      5238  TIP3      OH2             8.9706050248       15.7044706768        4.3890928508  SOLV      5227            0.0000000000
     15800      5238  TIP3      H1              9.1174050248       15.1844506768        5.1791828508  SOLV      5227            0.0000000000
     15801      5238  TIP3      H2              8.9677750248       16.6112306768        4.6956828508  SOLV      5227            0.0000000000
     15802      5239  TIP3      OH2             5.4237150248       12.9568006768        4.8996328508  SOLV      5228            0.0000000000
     15803      5239  TIP3      H1              4.7376450248       13.3090506768        5.4666028508  SOLV      5228            0.0000000000
     15804      5239  TIP3      H2              5.9465050248       13.7197606768        4.6530628508  SOLV      5228            0.0000000000
     15805      5240  TIP3      OH2            13.2552250248        5.6191806768       15.1785328508  SOLV      5229            0.0000000000
     15806      5240  TIP3      H1             13.9540150248        5.6930506768       15.8285028508  SOLV      5229            0.0000000000
     15807      5240  TIP3      H2             12.8743650248        4.7546806768       15.3328228508  SOLV      5229            0.0000000000
     15808      5241  TIP3      OH2            14.0397150248        5.2713506768        6.2757628508  SOLV      5230            0.0000000000
     15809      5241  TIP3      H1             14.2595450248        5.7428906768        5.4723028508  SOLV      5230            0.0000000000
     15810      5241  TIP3      H2             14.5981150248        5.6656106768        6.9458228508  SOLV      5230            0.0000000000
     15811      5242  TIP3      OH2            11.7083250248       17.4018306768        5.1385128508  SOLV      5231            0.0000000000
     15812      5242  TIP3      H1             10.8919350248       17.8988006768        5.1909428508  SOLV      5231            0.0000000000
     15813      5242  TIP3      H2             12.2379550248       17.8771806768        4.4983928508  SOLV      5231            0.0000000000
     15814      5243  TIP3      OH2            11.2397050248        6.9992306768        7.1106028508  SOLV      5232            0.0000000000
     15815      5243  TIP3      H1             12.0519650248        7.5035506768        7.1567728508  SOLV      5232            0.0000000000
     15816      5243  TIP3      H2             10.9950050248        6.8542006768        8.0245628508  SOLV      5232            0.0000000000
     15817      5244  TIP3      OH2            11.7753450248        7.9855006768       16.2952628508  SOLV      5233            0.0000000000
     15818      5244  TIP3      H1             11.8943750248        8.5590406768       17.0523028508  SOLV      5233            0.0000000000
     15819      5244  TIP3      H2             12.4308050248        7.2974406768       16.4100428508  SOLV      5233            0.0000000000
     15820      5245  TIP3      OH2            12.1233750248        4.0805306768        8.0487128508  SOLV      5234            0.0000000000
     15821      5245  TIP3      H1             11.7767250248        4.6975906768        8.6931428508  SOLV      5234            0.0000000000
     15822      5245  TIP3      H2             12.7820650248        4.5811006768        7.5672628508  SOLV      5234            0.0000000000
     15823      5246  TIP3      OH2             9.0466350248       18.4455506768        5.1202028508  SOLV      5235            0.0000000000
     15824      5246  TIP3      H1              9.2075050248       19.2453006768        4.6194628508  SOLV      5235            0.0000000000
     15825      5246  TIP3      H2              8.8494150248       18.7521506768        6.0052628508  SOLV      5235            0.0000000000
     15826      5247  TIP3      OH2             7.7810750248        5.1434706768        4.7359628508  SOLV      5236            0.0000000000
     15827      5247  TIP3      H1              7.6975550248        6.0317806768        5.0826028508  SOLV      5236            0.0000000000
     15828      5247  TIP3      H2              8.6711050248        4.8781406768        4.9676428508  SOLV      5236            0.0000000000
     15829      5248  TIP3      OH2            17.9799250248        5.8925306768       17.1302328508  SOLV      5237            0.0000000000
     15830      5248  TIP3      H1             17.0635050248        6.1547006768       17.0426028508  SOLV      5237            0.0000000000
     15831      5248  TIP3      H2             18.3154250248        5.8894306768       16.2337628508  SOLV      5237            0.0000000000
     15832      5249  TIP3      OH2            16.5820250248        9.6426306768       11.2259628508  SOLV      5238            0.0000000000
     15833      5249  TIP3      H1             15.7844650248        9.2276506768       10.8974628508  SOLV      5238            0.0000000000
     15834      5249  TIP3      H2             17.0271350248        8.9520006768       11.7170128508  SOLV      5238            0.0000000000
     15835      5250  TIP3      OH2             6.0396050248       15.5706906768        3.7964128508  SOLV      5239            0.0000000000
     15836      5250  TIP3      H1              6.6317550248       16.2701706768        4.0726528508  SOLV      5239            0.0000000000
     15837      5250  TIP3      H2              6.4989050248       15.1376406768        3.0768728508  SOLV      5239            0.0000000000
     15838      5251  TIP3      OH2             4.3555250248        8.2349906768        2.9123528508  SOLV      5240            0.0000000000
     15839      5251  TIP3      H1              4.3107850248        9.1743006768        3.0910528508  SOLV      5240            0.0000000000
     15840      5251  TIP3      H2              3.4678450248        7.9994806768        2.6425628508  SOLV      5240            0.0000000000
     15841      5252  TIP3      OH2            17.6684850248       18.8988806768       12.8483128508  SOLV      5241            0.0000000000
     15842      5252  TIP3      H1             17.5129150248       19.5773206768       12.1912428508  SOLV      5241            0.0000000000
     15843      5252  TIP3      H2             18.6011250248       18.9708106768       13.0513728508  SOLV      5241            0.0000000000
     15844      5253  TIP3      OH2             5.1637250248        3.0166506768       11.5854528508  SOLV      5242            0.0000000000
     15845      5253  TIP3      H1              4.9347050248        3.0759006768       10.6579528508  SOLV      5242            0.0000000000
     15846      5253  TIP3      H2              4.7210650248        2.2252006768       11.8918628508  SOLV      5242            0.0000000000
     15847      5254  TIP3      OH2             4.0940550248       16.9573606768        7.7460328508  SOLV      5243            0.0000000000
     15848      5254  TIP3      H1              3.2619150248       17.4296306768        7.7731728508  SOLV      5243            0.0000000000
     15849      5254  TIP3      H2              4.6398850248       17.4671206768        7.1473428508  SOLV      5243            0.0000000000
     15850      5255  TIP3      OH2             3.3824250248       19.5697306768       19.0758328508  SOLV      5244            0.0000000000
     15851      5255  TIP3      H1              3.9226450248       19.3531306768       19.8357528508  SOLV      5244            0.0000000000
     15852      5255  TIP3      H2              2.9012250248       18.7643306768       18.8860828508  SOLV      5244            0.0000000000
     15853      5256  TIP3      OH2             7.9797650248       18.4891706768       20.6962528508  SOLV      5245            0.0000000000
     15854      5256  TIP3      H1              8.7474850248       18.0302506768       21.0371728508  SOLV      5245            0.0000000000
     15855      5256  TIP3      H2              7.9583850248       18.2631506768       19.7663728508  SOLV      5245            0.0000000000
     15856      5257  TIP3      OH2            12.0717250248       17.9972306768        2.0714328508  SOLV      5246            0.0000000000
     15857      5257  TIP3      H1             11.4278250248       17.3660906768        2.3928028508  SOLV      5246            0.0000000000
     15858      5257  TIP3      H2             12.8335550248       17.4660306768        1.8397828508  SOLV      5246            0.0000000000
     15859      5258  TIP3      OH2            14.5566350248       16.8692806768       19.4254028508  SOLV      5247            0.0000000000
     15860      5258  TIP3      H1             14.2055850248       16.0125806768       19.6684428508  SOLV      5247            0.0000000000
     15861      5258  TIP3      H2             15.2829550248       17.0119506768       20.0323028508  SOLV      5247            0.0000000000
     15862      5259  TIP3      OH2            16.6760150248       17.8142206768        2.3052328508  SOLV      5248            0.0000000000
     15863      5259  TIP3      H1             16.9590550248       17.0197406768        2.7579228508  SOLV      5248            0.0000000000
     15864      5259  TIP3      H2             17.4158050248       18.0473206768        1.7443428508  SOLV      5248            0.0000000000
     15865      5260  TIP3      OH2             3.2893750248       13.3801406768       20.0302628508  SOLV      5249            0.0000000000
     15866      5260  TIP3      H1              3.4334250248       12.4782106768       19.7439328508  SOLV      5249            0.0000000000
     15867      5260  TIP3      H2              2.5171150248       13.6663506768       19.5424928508  SOLV      5249            0.0000000000
     15868      5261  TIP3      OH2             7.6307450248       13.7237106768        2.1627228508  SOLV      5250            0.0000000000
     15869      5261  TIP3      H1              7.6951550248       12.9296706768        2.6933628508  SOLV      5250            0.0000000000
     15870      5261  TIP3      H2              8.2836650248       13.6049906768        1.4729228508  SOLV      5250            0.0000000000
     15871      5262  TIP3      OH2             9.9449850248       13.3499506768       19.4629028508  SOLV      5251            0.0000000000
     15872      5262  TIP3      H1              9.6163650248       13.6207606768       18.6056428508  SOLV      5251            0.0000000000
     15873      5262  TIP3      H2             10.0968050248       12.4089306768       19.3754028508  SOLV      5251            0.0000000000
     15874      5263  TIP3      OH2            12.9830850248       14.7708806768        1.8985228508  SOLV      5252            0.0000000000
     15875      5263  TIP3      H1             12.7144950248       14.9510906768        2.7994128508  SOLV      5252            0.0000000000
     15876      5263  TIP3      H2             12.7766450248       13.8455006768        1.7671028508  SOLV      5252            0.0000000000
     15877      5264  TIP3      OH2            15.6795050248       13.2656806768       16.8461328508  SOLV      5253            0.0000000000
     15878      5264  TIP3      H1             16.4249850248       13.8540506768       16.7265328508  SOLV      5253            0.0000000000
     15879      5264  TIP3      H2             14.9221850248       13.8476506768       16.9094428508  SOLV      5253            0.0000000000
     15880      5265  TIP3      OH2             4.1220250248       10.5804706768       19.4501928508  SOLV      5254            0.0000000000
     15881      5265  TIP3      H1              4.5301450248        9.7231306768       19.3292528508  SOLV      5254            0.0000000000
     15882      5265  TIP3      H2              3.8617850248       10.5946006768       20.3712228508  SOLV      5254            0.0000000000
     15883      5266  TIP3      OH2             8.7801250248       11.6963306768        4.4685228508  SOLV      5255            0.0000000000
     15884      5266  TIP3      H1              8.3203250248       11.2121606768        5.1543728508  SOLV      5255            0.0000000000
     15885      5266  TIP3      H2              9.0349950248       11.0278706768        3.8325728508  SOLV      5255            0.0000000000
     15886      5267  TIP3      OH2             8.0690550248        9.5890406768       16.8244828508  SOLV      5256            0.0000000000
     15887      5267  TIP3      H1              7.4506650248       10.2637006768       17.1049528508  SOLV      5256            0.0000000000
     15888      5267  TIP3      H2              8.4131750248        9.9104306768       15.9911028508  SOLV      5256            0.0000000000
     15889      5268  TIP3      OH2             9.8511650248        9.9395106768        2.7308428508  SOLV      5257            0.0000000000
     15890      5268  TIP3      H1              9.6706650248        9.7846306768        1.8036728508  SOLV      5257            0.0000000000
     15891      5268  TIP3      H2             10.8012150248       10.0473806768        2.7756328508  SOLV      5257            0.0000000000
     15892      5269  TIP3      OH2            13.0888750248       12.0605706768       20.1019628508  SOLV      5258            0.0000000000
     15893      5269  TIP3      H1             14.0419950248       12.1444806768       20.0745628508  SOLV      5258            0.0000000000
     15894      5269  TIP3      H2             12.9283350248       11.3487506768       20.7214528508  SOLV      5258            0.0000000000
     15895      5270  TIP3      OH2            19.2409950248       12.2939306768        2.1766528508  SOLV      5259            0.0000000000
     15896      5270  TIP3      H1             18.9674750248       11.8694806768        1.3634828508  SOLV      5259            0.0000000000
     15897      5270  TIP3      H2             19.2804050248       13.2253806768        1.9596928508  SOLV      5259            0.0000000000
     15898      5271  TIP3      OH2             8.4084250248        6.9441206768       17.9067928508  SOLV      5260            0.0000000000
     15899      5271  TIP3      H1              8.5585150248        6.2152506768       17.3047628508  SOLV      5260            0.0000000000
     15900      5271  TIP3      H2              8.4106650248        7.7212906768       17.3480128508  SOLV      5260            0.0000000000
     15901      5272  TIP3      OH2             8.8209950248        5.3137006768       15.3995328508  SOLV      5261            0.0000000000
     15902      5272  TIP3      H1              9.3567450248        5.7653706768       14.7474628508  SOLV      5261            0.0000000000
     15903      5272  TIP3      H2              7.9689550248        5.2056806768       14.9769428508  SOLV      5261            0.0000000000
     15904      5273  TIP3      OH2            10.4028350248       10.7533206768       15.6390528508  SOLV      5262            0.0000000000
     15905      5273  TIP3      H1             11.1533150248       10.5970706768       15.0658328508  SOLV      5262            0.0000000000
     15906      5273  TIP3      H2             10.0636650248       11.6049806768       15.3636028508  SOLV      5262            0.0000000000
     15907      5274  TIP3      OH2            14.8184550248        8.5685006768       20.6675828508  SOLV      5263            0.0000000000
     15908      5274  TIP3      H1             15.0105850248        7.6374406768       20.5560328508  SOLV      5263            0.0000000000
     15909      5274  TIP3      H2             15.6760850248        8.9934506768       20.6571228508  SOLV      5263            0.0000000000
     15910      5275  TIP3      OH2            16.1351750248       11.3570206768       18.7448528508  SOLV      5264            0.0000000000
     15911      5275  TIP3      H1             15.8536750248       12.0664806768       18.1672328508  SOLV      5264            0.0000000000
     15912      5275  TIP3      H2             17.0776050248       11.2843206768       18.5939728508  SOLV      5264            0.0000000000
     15913      5276  TIP3      OH2             6.8870550248        8.1424706768       19.8183528508  SOLV      5265            0.0000000000
     15914      5276  TIP3      H1              6.1199550248        7.6099506768       19.6081128508  SOLV      5265            0.0000000000
     15915      5276  TIP3      H2              7.5659550248        7.8325106768       19.2189828508  SOLV      5265            0.0000000000
     15916      5277  TIP3      OH2             9.6265450248        2.7702706768       15.8308928508  SOLV      5266            0.0000000000
     15917      5277  TIP3      H1              9.5285050248        3.7165906768       15.7255128508  SOLV      5266            0.0000000000
     15918      5277  TIP3      H2              8.8841650248        2.3976506768       15.3552428508  SOLV      5266            0.0000000000
     15919      5278  TIP3      OH2            10.8905950248        7.0918106768       19.3947328508  SOLV      5267            0.0000000000
     15920      5278  TIP3      H1             10.6551350248        6.8724806768       20.2962228508  SOLV      5267            0.0000000000
     15921      5278  TIP3      H2             10.1072850248        6.8849306768       18.8849828508  SOLV      5267            0.0000000000
     15922      5279  TIP3      OH2            13.6062550248        6.2191606768       18.4700828508  SOLV      5268            0.0000000000
     15923      5279  TIP3      H1             12.6587950248        6.2511306768       18.6024128508  SOLV      5268            0.0000000000
     15924      5279  TIP3      H2             13.9189250248        5.5938706768       19.1239028508  SOLV      5268            0.0000000000
     15925      5280  TIP3      OH2            15.2404050248        4.8532706768       20.4752728508  SOLV      5269            0.0000000000
     15926      5280  TIP3      H1             15.1435850248        3.9010006768       20.4694628508  SOLV      5269            0.0000000000
     15927      5280  TIP3      H2             14.9187150248        5.1219506768       21.3358228508  SOLV      5269            0.0000000000
     15928      5281  TIP3      OH2             5.0673350248        6.0628506768       19.5228228508  SOLV      5270            0.0000000000
     15929      5281  TIP3      H1              5.2790750248        5.3564606768       18.9125728508  SOLV      5270            0.0000000000
     15930      5281  TIP3      H2              4.9560850248        5.6254506768       20.3669428508  SOLV      5270            0.0000000000
     15931      5282  TIP3      OH2             9.8483550248        2.0640106768       18.5021728508  SOLV      5271            0.0000000000
     15932      5282  TIP3      H1             10.5601950248        1.4242306768       18.4880828508  SOLV      5271            0.0000000000
     15933      5282  TIP3      H2              9.7473950248        2.3308406768       17.5884828508  SOLV      5271            0.0000000000
     15934      5283  TIP3      OH2            10.2021050248        3.7468506768       20.5558028508  SOLV      5272            0.0000000000
     15935      5283  TIP3      H1             10.0703250248        3.2712306768       19.7356528508  SOLV      5272            0.0000000000
     15936      5283  TIP3      H2              9.6028450248        4.4912106768       20.5005128508  SOLV      5272            0.0000000000
     15937      5284  TIP3      OH2             9.7483350248       20.6298806768        3.7322028508  SOLV      5273            0.0000000000
     15938      5284  TIP3      H1             10.6814050248       20.7877506768        3.8760428508  SOLV      5273            0.0000000000
     15939      5284  TIP3      H2              9.4842150248       21.3051806768        3.1073528508  SOLV      5273            0.0000000000
     15940      5285  TIP3      OH2             3.3168250248       15.2662606768        3.2150128508  SOLV      5274            0.0000000000
     15941      5285  TIP3      H1              4.2307450248       15.3451506768        3.4884028508  SOLV      5274            0.0000000000
     15942      5285  TIP3      H2              3.3241350248       14.5792206768        2.5485728508  SOLV      5274            0.0000000000
     15943      5286  TIP3      OH2             1.9658850248       20.6591106768        8.2924028508  SOLV      5275            0.0000000000
     15944      5286  TIP3      H1              1.3185950248       20.1972806768        7.7595228508  SOLV      5275            0.0000000000
     15945      5286  TIP3      H2              2.3203450248       19.9874406768        8.8750228508  SOLV      5275            0.0000000000
     15946      5287  TIP3      OH2             2.8358050248       18.7398106768       10.0970228508  SOLV      5276            0.0000000000
     15947      5287  TIP3      H1              2.5014850248       17.8595406768       10.2690428508  SOLV      5276            0.0000000000
     15948      5287  TIP3      H2              3.0580450248       19.0853106768       10.9615828508  SOLV      5276            0.0000000000
     15949      5288  TIP3      OH2            20.3842850248       19.5494506768       13.0775028508  SOLV      5277            0.0000000000
     15950      5288  TIP3      H1             20.3629550248       19.7342906768       14.0164428508  SOLV      5277            0.0000000000
     15951      5288  TIP3      H2             21.0749050248       20.1178506768       12.7366428508  SOLV      5277            0.0000000000
     15952      5289  TIP3      OH2            19.9475750248       19.1165606768       15.9994128508  SOLV      5278            0.0000000000
     15953      5289  TIP3      H1             19.4604450248       18.3809706768       15.6281528508  SOLV      5278            0.0000000000
     15954      5289  TIP3      H2             20.4968450248       18.7229506768       16.6773528508  SOLV      5278            0.0000000000
     15955      5290  TIP3      OH2            18.3983050248       14.9063706768       20.6374428508  SOLV      5279            0.0000000000
     15956      5290  TIP3      H1             17.5324150248       14.8013406768       21.0316728508  SOLV      5279            0.0000000000
     15957      5290  TIP3      H2             18.7748950248       15.6647006768       21.0839128508  SOLV      5279            0.0000000000
     15958      5291  TIP3      OH2            19.6992750248       13.1627406768        6.1516928508  SOLV      5280            0.0000000000
     15959      5291  TIP3      H1             20.5494150248       13.5838306768        6.2788528508  SOLV      5280            0.0000000000
     15960      5291  TIP3      H2             19.7047850248       12.4227506768        6.7588328508  SOLV      5280            0.0000000000
     15961      5292  TIP3      OH2            20.0938350248       11.2164806768        7.9752628508  SOLV      5281            0.0000000000
     15962      5292  TIP3      H1             19.3672950248       10.7367406768        8.3730228508  SOLV      5281            0.0000000000
     15963      5292  TIP3      H2             20.6751650248       11.4219506768        8.7074228508  SOLV      5281            0.0000000000
     15964      5293  TIP3      OH2            18.3391850248       16.8789806768       15.2298628508  SOLV      5282            0.0000000000
     15965      5293  TIP3      H1             17.6917150248       17.2041306768       15.8553828508  SOLV      5282            0.0000000000
     15966      5293  TIP3      H2             17.8215850248       16.4387506768       14.5556928508  SOLV      5282            0.0000000000
     15967      5294  TIP3      OH2            20.3621450248       11.1173306768        4.3663928508  SOLV      5283            0.0000000000
     15968      5294  TIP3      H1             19.8402550248       11.4737406768        3.6474828508  SOLV      5283            0.0000000000
     15969      5294  TIP3      H2             20.3290650248       11.7921106768        5.0444828508  SOLV      5283            0.0000000000
     15970      5295  TIP3      OH2            18.7110450248        8.3568906768        2.9171028508  SOLV      5284            0.0000000000
     15971      5295  TIP3      H1             18.8074850248        9.0235906768        2.2370728508  SOLV      5284            0.0000000000
     15972      5295  TIP3      H2             18.5710050248        7.5415206768        2.4356528508  SOLV      5284            0.0000000000
     15973      5296  TIP3      OH2            17.8805150248        9.7371306768        8.5381328508  SOLV      5285            0.0000000000
     15974      5296  TIP3      H1             17.7303950248        8.7919906768        8.5179128508  SOLV      5285            0.0000000000
     15975      5296  TIP3      H2             17.5269650248       10.0182706768        9.3820428508  SOLV      5285            0.0000000000
     15976      5297  TIP3      OH2             2.9157550248       11.8153506768       12.5485128508  SOLV      5286            0.0000000000
     15977      5297  TIP3      H1              3.1000450248       11.7335206768       11.6128028508  SOLV      5286            0.0000000000
     15978      5297  TIP3      H2              3.7650450248       11.6910506768       12.9721528508  SOLV      5286            0.0000000000
     15979      5298  TIP3      OH2            18.7368050248       11.7074606768       18.1769628508  SOLV      5287            0.0000000000
     15980      5298  TIP3      H1             19.3195350248       10.9726906768       18.3686828508  SOLV      5287            0.0000000000
     15981      5298  TIP3      H2             19.3007350248       12.4794906768       18.2235428508  SOLV      5287            0.0000000000
     15982      5299  TIP3      OH2            20.2335150248        9.6100406768       18.8615028508  SOLV      5288            0.0000000000
     15983      5299  TIP3      H1             19.3701850248        9.2312506768       18.6959728508  SOLV      5288            0.0000000000
     15984      5299  TIP3      H2             20.8378850248        8.8715206768       18.7870828508  SOLV      5288            0.0000000000
     15985      5300  TIP3      OH2            17.5909950248        7.3197106768        7.0006428508  SOLV      5289            0.0000000000
     15986      5300  TIP3      H1             17.8707050248        6.4127506768        7.1248128508  SOLV      5289            0.0000000000
     15987      5300  TIP3      H2             18.3501650248        7.7538606768        6.6115628508  SOLV      5289            0.0000000000
     15988      5301  TIP3      OH2            18.2028250248        7.9014506768       12.4365328508  SOLV      5290            0.0000000000
     15989      5301  TIP3      H1             19.1356250248        8.1134406768       12.4021328508  SOLV      5290            0.0000000000
     15990      5301  TIP3      H2             17.9675750248        8.0026606768       13.3588328508  SOLV      5290            0.0000000000
     15991      5302  TIP3      OH2            18.2320150248        8.6379806768       15.2124728508  SOLV      5291            0.0000000000
     15992      5302  TIP3      H1             17.3891450248        8.9060206768       15.5784528508  SOLV      5291            0.0000000000
     15993      5302  TIP3      H2             18.6744450248        9.4601706768       15.0015828508  SOLV      5291            0.0000000000
     15994      5303  TIP3      OH2             2.5132350248        7.0858506768       18.6893928508  SOLV      5292            0.0000000000
     15995      5303  TIP3      H1              3.4327250248        6.9636806768       18.9257028508  SOLV      5292            0.0000000000
     15996      5303  TIP3      H2              2.0636850248        6.3358206768       19.0787428508  SOLV      5292            0.0000000000
     15997      5304  TIP3      OH2            20.5151750248        2.6180006768       20.5659728508  SOLV      5293            0.0000000000
     15998      5304  TIP3      H1             20.8648750248        1.9643506768       19.9604428508  SOLV      5293            0.0000000000
     15999      5304  TIP3      H2             20.6621250248        3.4554106768       20.1262328508  SOLV      5293            0.0000000000
     16000      5305  TIP3      OH2            18.2044750248        4.5826406768        7.0488428508  SOLV      5294            0.0000000000
     16001      5305  TIP3      H1             18.3869750248        4.1337906768        7.8743428508  SOLV      5294            0.0000000000
     16002      5305  TIP3      H2             17.6047650248        3.9980806768        6.5853028508  SOLV      5294            0.0000000000
     16003      5306  TIP3      OH2             3.7344850248        5.3980106768       11.5806828508  SOLV      5295            0.0000000000
     16004      5306  TIP3      H1              4.1796450248        4.6062606768       11.8826528508  SOLV      5295            0.0000000000
     16005      5306  TIP3      H2              4.2007850248        6.1145306768       12.0112428508  SOLV      5295            0.0000000000
     16006      5307  TIP3      OH2             2.0385150248        8.3973106768       12.6497028508  SOLV      5296            0.0000000000
     16007      5307  TIP3      H1              2.5304950248        8.1763606768       11.8589028508  SOLV      5296            0.0000000000
     16008      5307  TIP3      H2              2.4006050248        9.2376506768       12.9306528508  SOLV      5296            0.0000000000
     16009      5308  TIP3      OH2            20.0348950248        4.7274606768       18.9151028508  SOLV      5297            0.0000000000
     16010      5308  TIP3      H1             19.1174650248        4.9981706768       18.8794528508  SOLV      5297            0.0000000000
     16011      5308  TIP3      H2             20.1578350248        4.1923006768       18.1310728508  SOLV      5297            0.0000000000
     16012      5309  TIP3      OH2            20.0710950248        4.6504506768        3.5768728508  SOLV      5298            0.0000000000
     16013      5309  TIP3      H1             20.4833550248        3.9290206768        3.1016728508  SOLV      5298            0.0000000000
     16014      5309  TIP3      H2             20.7527450248        5.3199106768        3.6353028508  SOLV      5298            0.0000000000
     16015      5310  TIP3      OH2             2.3521650248        4.6552206768        6.7039428508  SOLV      5299            0.0000000000
     16016      5310  TIP3      H1              1.4270050248        4.8638806768        6.5744928508  SOLV      5299            0.0000000000
     16017      5310  TIP3      H2              2.8061550248        5.1393006768        6.0141728508  SOLV      5299            0.0000000000
     16018      5311  TIP3      OH2            17.1228850248       19.6393906768        8.6496828508  SOLV      5300            0.0000000000
     16019      5311  TIP3      H1             17.7751750248       19.2916006768        8.0415928508  SOLV      5300            0.0000000000
     16020      5311  TIP3      H2             17.6332650248       20.1277106768        9.2956528508  SOLV      5300            0.0000000000
     16021      5312  TIP3      OH2             2.3157050248        3.3931206768       15.0481928508  SOLV      5301            0.0000000000
     16022      5312  TIP3      H1              1.6507550248        3.1471506768       15.6912828508  SOLV      5301            0.0000000000
     16023      5312  TIP3      H2              1.8728350248        4.0151606768       14.4709928508  SOLV      5301            0.0000000000
     16024      5313  TIP3      OH2             4.5076350248       16.5685306768       19.1927728508  SOLV      5302            0.0000000000
     16025      5313  TIP3      H1              3.6868850248       16.7431806768       18.7322428508  SOLV      5302            0.0000000000
     16026      5313  TIP3      H2              4.2554150248       16.4950006768       20.1132128508  SOLV      5302            0.0000000000
     16027      5314  TIP3      OH2             7.4619250248       17.5426506768       15.4511728508  SOLV      5303            0.0000000000
     16028      5314  TIP3      H1              7.0370350248       18.3525006768       15.1686328508  SOLV      5303            0.0000000000
     16029      5314  TIP3      H2              8.3662050248       17.6280606768       15.1491528508  SOLV      5303            0.0000000000
     16030      5315  TIP3      OH2            11.7730650248       18.9416506768       18.4105428508  SOLV      5304            0.0000000000
     16031      5315  TIP3      H1             11.9578150248       18.6082606768       19.2885728508  SOLV      5304            0.0000000000
     16032      5315  TIP3      H2             12.6195150248       19.2515106768       18.0884628508  SOLV      5304            0.0000000000
     16033      5316  TIP3      OH2            14.1181050248       20.2275406768       17.6546828508  SOLV      5305            0.0000000000
     16034      5316  TIP3      H1             14.7949950248       19.5947706768       17.4146028508  SOLV      5305            0.0000000000
     16035      5316  TIP3      H2             14.4399850248       20.6285906768       18.4620128508  SOLV      5305            0.0000000000
     16036      5317  TIP3      OH2            19.0354850248        2.8170906768       16.7341828508  SOLV      5306            0.0000000000
     16037      5317  TIP3      H1             18.2228350248        3.1421206768       16.3466528508  SOLV      5306            0.0000000000
     16038      5317  TIP3      H2             19.2683350248        2.0569406768       16.2010928508  SOLV      5306            0.0000000000
     16039      5318  TIP3      OH2             4.8635950248       20.7990406768       15.4987028508  SOLV      5307            0.0000000000
     16040      5318  TIP3      H1              4.1432350248       21.2391406768       15.0474728508  SOLV      5307            0.0000000000
     16041      5318  TIP3      H2              4.4979950248       20.5485106768       16.3471028508  SOLV      5307            0.0000000000
     16042      5319  TIP3      OH2             7.3308550248       20.3994306768       14.5284228508  SOLV      5308            0.0000000000
     16043      5319  TIP3      H1              6.4660750248       20.4712806768       14.9324328508  SOLV      5308            0.0000000000
     16044      5319  TIP3      H2              7.2757550248       20.9461606768       13.7446728508  SOLV      5308            0.0000000000
     16045      5320  TIP3      OH2            12.0414150248       20.2873206768       13.7040228508  SOLV      5309            0.0000000000
     16046      5320  TIP3      H1             11.5848150248       20.8162906768       13.0498628508  SOLV      5309            0.0000000000
     16047      5320  TIP3      H2             12.2042150248       20.8904606768       14.4292528508  SOLV      5309            0.0000000000
     16048      5321  TIP3      OH2            14.3690450248       19.1652806768       14.6490528508  SOLV      5310            0.0000000000
     16049      5321  TIP3      H1             13.4644150248       19.3303006768       14.3832628508  SOLV      5310            0.0000000000
     16050      5321  TIP3      H2             14.7979050248       20.0185006768       14.5833928508  SOLV      5310            0.0000000000
     16051      5322  TIP3      OH2            16.9732350248       20.7351906768       14.9438328508  SOLV      5311            0.0000000000
     16052      5322  TIP3      H1             16.7914350248       21.6510806768       14.7333228508  SOLV      5311            0.0000000000
     16053      5322  TIP3      H2             17.1500150248       20.3249006768       14.0972928508  SOLV      5311            0.0000000000
     16054      5323  TIP3      OH2             4.2784050248       19.4222906768       12.4088828508  SOLV      5312            0.0000000000
     16055      5323  TIP3      H1              4.2600050248       18.9968006768       13.2661128508  SOLV      5312            0.0000000000
     16056      5323  TIP3      H2              5.0831950248       19.1037906768       12.0001028508  SOLV      5312            0.0000000000
     16057      5324  TIP3      OH2             6.4197150248       18.1321606768       11.0638728508  SOLV      5313            0.0000000000
     16058      5324  TIP3      H1              6.2007850248       17.2159006768       11.2334728508  SOLV      5313            0.0000000000
     16059      5324  TIP3      H2              7.2439350248       18.2722006768       11.5300128508  SOLV      5313            0.0000000000
     16060      5325  TIP3      OH2             8.9569650248       18.6020906768       11.9126728508  SOLV      5314            0.0000000000
     16061      5325  TIP3      H1              9.1695350248       17.7139906768       11.6257628508  SOLV      5314            0.0000000000
     16062      5325  TIP3      H2              9.0214750248       18.5678606768       12.8670728508  SOLV      5314            0.0000000000
     16063      5326  TIP3      OH2            12.4653350248        4.2661506768       11.0570028508  SOLV      5315            0.0000000000
     16064      5326  TIP3      H1             11.7910150248        3.6367106768       11.3125828508  SOLV      5315            0.0000000000
     16065      5326  TIP3      H2             13.0292550248        3.7820406768       10.4537928508  SOLV      5315            0.0000000000
     16066      5327  TIP3      OH2            19.3350950248        3.5124206768        9.5028028508  SOLV      5316            0.0000000000
     16067      5327  TIP3      H1             19.9468450248        2.9979906768        8.9761628508  SOLV      5316            0.0000000000
     16068      5327  TIP3      H2             19.7174350248        4.3896306768        9.5262428508  SOLV      5316            0.0000000000
     16069      5328  TIP3      OH2             4.7920850248        2.9001806768        8.8789928508  SOLV      5317            0.0000000000
     16070      5328  TIP3      H1              4.0150650248        2.6656706768        8.3715828508  SOLV      5317            0.0000000000
     16071      5328  TIP3      H2              5.3224450248        2.1033906768        8.8877928508  SOLV      5317            0.0000000000
     16072      5329  TIP3      OH2             3.6284250248        2.6979906768        4.6826028508  SOLV      5318            0.0000000000
     16073      5329  TIP3      H1              4.0674950248        3.3090406768        4.0909528508  SOLV      5318            0.0000000000
     16074      5329  TIP3      H2              2.9946650248        3.2364006768        5.1566028508  SOLV      5318            0.0000000000
     16075      5330  TIP3      OH2             9.3713450248        2.8268906768        8.6923028508  SOLV      5319            0.0000000000
     16076      5330  TIP3      H1             10.2456850248        3.2153206768        8.6627328508  SOLV      5319            0.0000000000
     16077      5330  TIP3      H2              9.2354250248        2.6116706768        9.6150228508  SOLV      5319            0.0000000000
     16078      5331  TIP3      OH2            16.2814450248        2.8826506768        6.0339728508  SOLV      5320            0.0000000000
     16079      5331  TIP3      H1             15.5785550248        3.4975706768        5.8241128508  SOLV      5320            0.0000000000
     16080      5331  TIP3      H2             15.8365850248        2.0453206768        6.1650628508  SOLV      5320            0.0000000000
     16081      5332  TIP3      OH2             3.5293750248       18.6462106768        5.5801128508  SOLV      5321            0.0000000000
     16082      5332  TIP3      H1              2.8443650248       18.6081006768        4.9126228508  SOLV      5321            0.0000000000
     16083      5332  TIP3      H2              3.5330950248       19.5589706768        5.8683228508  SOLV      5321            0.0000000000
     16084      5333  TIP3      OH2             5.4893350248        4.6141406768        3.1250128508  SOLV      5322            0.0000000000
     16085      5333  TIP3      H1              5.9806750248        3.9843806768        2.5975628508  SOLV      5322            0.0000000000
     16086      5333  TIP3      H2              6.1129650248        4.9100806768        3.7881328508  SOLV      5322            0.0000000000
     16087      5334  TIP3      OH2            10.5153450248        4.9072906768        5.5820628508  SOLV      5323            0.0000000000
     16088      5334  TIP3      H1             10.6934750248        4.2606106768        6.2649228508  SOLV      5323            0.0000000000
     16089      5334  TIP3      H2             10.4619650248        5.7410606768        6.0491728508  SOLV      5323            0.0000000000
     16090      5335  TIP3      OH2            12.3937250248       19.8557006768        3.9777328508  SOLV      5324            0.0000000000
     16091      5335  TIP3      H1             13.2597450248       20.2224406768        3.7995528508  SOLV      5324            0.0000000000
     16092      5335  TIP3      H2             12.1470050248       19.4165006768        3.1638128508  SOLV      5324            0.0000000000
     16093      5336  TIP3      OH2            19.1026850248       19.4187306768        6.6568428508  SOLV      5325            0.0000000000
     16094      5336  TIP3      H1             18.9083950248       18.6709406768        6.0918028508  SOLV      5325            0.0000000000
     16095      5336  TIP3      H2             19.0636950248       20.1767406768        6.0736328508  SOLV      5325            0.0000000000
     16096      5337  TIP3      OH2             4.7498850248        3.4143706768       18.3966128508  SOLV      5326            0.0000000000
     16097      5337  TIP3      H1              4.3837050248        2.6486306768       18.8390828508  SOLV      5326            0.0000000000
     16098      5337  TIP3      H2              5.6627350248        3.4433906768       18.6831228508  SOLV      5326            0.0000000000
     16099      5338  TIP3      OH2             6.7229650248        2.7648106768       19.9323228508  SOLV      5327            0.0000000000
     16100      5338  TIP3      H1              7.6213250248        2.4908306768       19.7476628508  SOLV      5327            0.0000000000
     16101      5338  TIP3      H2              6.3362750248        2.0224106768       20.3965828508  SOLV      5327            0.0000000000
     16102      5339  TIP3      OH2             5.3474950248       19.5662906768        2.6053228508  SOLV      5328            0.0000000000
     16103      5339  TIP3      H1              5.0799550248       19.8525806768        3.4786328508  SOLV      5328            0.0000000000
     16104      5339  TIP3      H2              6.1187550248       19.0202106768        2.7575728508  SOLV      5328            0.0000000000
     16105      5340  TIP3      OH2            15.1441950248        2.0973406768       20.1146028508  SOLV      5329            0.0000000000
     16106      5340  TIP3      H1             15.2209150248        1.6714106768       20.9683728508  SOLV      5329            0.0000000000
     16107      5340  TIP3      H2             16.0378550248        2.1108106768       19.7719528508  SOLV      5329            0.0000000000
     16108      5341  TIP3      OH2            18.3203050248       18.1699706768       18.8070228508  SOLV      5330            0.0000000000
     16109      5341  TIP3      H1             17.5384950248       17.9837706768       18.2870828508  SOLV      5330            0.0000000000
     16110      5341  TIP3      H2             18.2482950248       19.0994006768       19.0242728508  SOLV      5330            0.0000000000
     16111      5342  TIP3      OH2            32.7263450248       12.0564106768        8.8377428508  SOLV      5331            0.0000000000
     16112      5342  TIP3      H1             32.8154550248       13.0002306768        8.7054528508  SOLV      5331            0.0000000000
     16113      5342  TIP3      H2             32.0881050248       11.7810506768        8.1796828508  SOLV      5331            0.0000000000
     16114      5343  TIP3      OH2            31.6594750248       11.3114806768       12.2565628508  SOLV      5332            0.0000000000
     16115      5343  TIP3      H1             31.6212250248       10.6651106768       12.9615228508  SOLV      5332            0.0000000000
     16116      5343  TIP3      H2             31.3371250248       10.8449206768       11.4854328508  SOLV      5332            0.0000000000
     16117      5344  TIP3      OH2            24.0279750248       10.9256906768       13.8495528508  SOLV      5333            0.0000000000
     16118      5344  TIP3      H1             24.0691850248       10.3000206768       14.5727928508  SOLV      5333            0.0000000000
     16119      5344  TIP3      H2             24.7307450248       11.5495506768       14.0315928508  SOLV      5333            0.0000000000
     16120      5345  TIP3      OH2            35.3654950248       14.2505206768       10.5580728508  SOLV      5334            0.0000000000
     16121      5345  TIP3      H1             34.9247650248       13.5301206768       11.0086328508  SOLV      5334            0.0000000000
     16122      5345  TIP3      H2             35.3524650248       14.9712406768       11.1878428508  SOLV      5334            0.0000000000
     16123      5346  TIP3      OH2            24.9512850248       15.3755806768       12.3844628508  SOLV      5335            0.0000000000
     16124      5346  TIP3      H1             24.5818050248       14.5736306768       12.0148928508  SOLV      5335            0.0000000000
     16125      5346  TIP3      H2             25.8923950248       15.2070706768       12.4308028508  SOLV      5335            0.0000000000
     16126      5347  TIP3      OH2            21.5613350248        9.0358406768        7.7773428508  SOLV      5336            0.0000000000
     16127      5347  TIP3      H1             21.1136750248        9.8817106768        7.7589928508  SOLV      5336            0.0000000000
     16128      5347  TIP3      H2             21.0004550248        8.4562606768        7.2618528508  SOLV      5336            0.0000000000
     16129      5348  TIP3      OH2            22.2719450248       11.1978006768        9.9031428508  SOLV      5337            0.0000000000
     16130      5348  TIP3      H1             22.4852950248       10.4279606768       10.4304428508  SOLV      5337            0.0000000000
     16131      5348  TIP3      H2             23.0097050248       11.2874706768        9.2999028508  SOLV      5337            0.0000000000
     16132      5349  TIP3      OH2            30.0489150248       13.7436206768       12.6626628508  SOLV      5338            0.0000000000
     16133      5349  TIP3      H1             30.3527050248       13.0577606768       12.0680728508  SOLV      5338            0.0000000000
     16134      5349  TIP3      H2             30.7703150248       13.8624906768       13.2804628508  SOLV      5338            0.0000000000
     16135      5350  TIP3      OH2            33.1896150248        8.1378606768       12.9901428508  SOLV      5339            0.0000000000
     16136      5350  TIP3      H1             33.3322050248        7.1915606768       13.0103028508  SOLV      5339            0.0000000000
     16137      5350  TIP3      H2             33.0835150248        8.3448406768       12.0616328508  SOLV      5339            0.0000000000
     16138      5351  TIP3      OH2            26.3444450248        6.2395006768       10.2626228508  SOLV      5340            0.0000000000
     16139      5351  TIP3      H1             26.3875550248        7.0993506768        9.8442528508  SOLV      5340            0.0000000000
     16140      5351  TIP3      H2             25.8868550248        5.6869706768        9.6289428508  SOLV      5340            0.0000000000
     16141      5352  TIP3      OH2            34.0667150248        6.3700606768        8.6634528508  SOLV      5341            0.0000000000
     16142      5352  TIP3      H1             34.7131450248        6.0413806768        9.2882128508  SOLV      5341            0.0000000000
     16143      5352  TIP3      H2             34.5766550248        6.8879606768        8.0405928508  SOLV      5341            0.0000000000
     16144      5353  TIP3      OH2            22.9645950248        8.6360806768       11.0247628508  SOLV      5342            0.0000000000
     16145      5353  TIP3      H1             23.6182550248        8.0862506768       11.4567728508  SOLV      5342            0.0000000000
     16146      5353  TIP3      H2             22.9885250248        8.3619806768       10.1079628508  SOLV      5342            0.0000000000
     16147      5354  TIP3      OH2            28.1210450248       10.1862106768       10.2399128508  SOLV      5343            0.0000000000
     16148      5354  TIP3      H1             28.7371450248        9.6597506768       10.7493128508  SOLV      5343            0.0000000000
     16149      5354  TIP3      H2             27.5349250248        9.5460806768        9.8362728508  SOLV      5343            0.0000000000
     16150      5355  TIP3      OH2            25.1546350248        5.1573406768       14.3367028508  SOLV      5344            0.0000000000
     16151      5355  TIP3      H1             24.9358050248        5.6874006768       13.5703028508  SOLV      5344            0.0000000000
     16152      5355  TIP3      H2             24.4867250248        5.3838906768       14.9838428508  SOLV      5344            0.0000000000
     16153      5356  TIP3      OH2            32.5236150248       14.6574506768        7.8806128508  SOLV      5345            0.0000000000
     16154      5356  TIP3      H1             32.2281250248       14.3346806768        7.0293028508  SOLV      5345            0.0000000000
     16155      5356  TIP3      H2             32.1993950248       15.5571206768        7.9218728508  SOLV      5345            0.0000000000
     16156      5357  TIP3      OH2            27.7237750248       12.8329106768       14.6240728508  SOLV      5346            0.0000000000
     16157      5357  TIP3      H1             26.9836850248       13.4310606768       14.7275928508  SOLV      5346            0.0000000000
     16158      5357  TIP3      H2             28.4377250248       13.3868706768       14.3084328508  SOLV      5346            0.0000000000
     16159      5358  TIP3      OH2            24.7483650248        7.0495206768       12.2889228508  SOLV      5347            0.0000000000
     16160      5358  TIP3      H1             25.3619950248        7.6822806768       12.6621628508  SOLV      5347            0.0000000000
     16161      5358  TIP3      H2             25.2604350248        6.5770206768       11.6326128508  SOLV      5347            0.0000000000
     16162      5359  TIP3      OH2            26.1312050248       14.7972106768       15.4112228508  SOLV      5348            0.0000000000
     16163      5359  TIP3      H1             26.1259650248       15.6765606768       15.0331528508  SOLV      5348            0.0000000000
     16164      5359  TIP3      H2             25.2776150248       14.7136206768       15.8362128508  SOLV      5348            0.0000000000
     16165      5360  TIP3      OH2            22.2522950248       14.4680006768        6.1931528508  SOLV      5349            0.0000000000
     16166      5360  TIP3      H1             21.9803850248       14.6971006768        5.3044428508  SOLV      5349            0.0000000000
     16167      5360  TIP3      H2             22.2978650248       15.3058806768        6.6536828508  SOLV      5349            0.0000000000
     16168      5361  TIP3      OH2            29.1811050248        2.4628506768       11.7891928508  SOLV      5350            0.0000000000
     16169      5361  TIP3      H1             29.0635250248        1.5144506768       11.7350228508  SOLV      5350            0.0000000000
     16170      5361  TIP3      H2             28.3261150248        2.7954606768       12.0623028508  SOLV      5350            0.0000000000
     16171      5362  TIP3      OH2            31.4475950248       11.3004106768        6.2897728508  SOLV      5351            0.0000000000
     16172      5362  TIP3      H1             30.7361450248       11.8353806768        5.9378228508  SOLV      5351            0.0000000000
     16173      5362  TIP3      H2             32.1385550248       11.3556206768        5.6296628508  SOLV      5351            0.0000000000
     16174      5363  TIP3      OH2            31.5015150248        9.7578406768        3.3282728508  SOLV      5352            0.0000000000
     16175      5363  TIP3      H1             32.2025050248        9.7805306768        3.9796728508  SOLV      5352            0.0000000000
     16176      5363  TIP3      H2             31.8038050248        9.1298106768        2.6722028508  SOLV      5352            0.0000000000
     16177      5364  TIP3      OH2            34.8533650248       11.5097406768        7.2413628508  SOLV      5353            0.0000000000
     16178      5364  TIP3      H1             34.1214650248       11.7381106768        7.8144228508  SOLV      5353            0.0000000000
     16179      5364  TIP3      H2             35.3005850248       10.7960106768        7.6961128508  SOLV      5353            0.0000000000
     16180      5365  TIP3      OH2            26.4987350248       12.1403606768        9.1238628508  SOLV      5354            0.0000000000
     16181      5365  TIP3      H1             26.1682550248       11.7697006768        8.3055628508  SOLV      5354            0.0000000000
     16182      5365  TIP3      H2             27.0871450248       11.4697606768        9.4706928508  SOLV      5354            0.0000000000
     16183      5366  TIP3      OH2            27.8654850248       15.5684206768       11.8050828508  SOLV      5355            0.0000000000
     16184      5366  TIP3      H1             27.7706150248       14.9897306768       11.0485428508  SOLV      5355            0.0000000000
     16185      5366  TIP3      H2             28.5948450248       15.1969906768       12.3013628508  SOLV      5355            0.0000000000
     16186      5367  TIP3      OH2            26.8652850248       10.9089206768       12.7573628508  SOLV      5356            0.0000000000
     16187      5367  TIP3      H1             27.4305350248       11.0303406768       11.9944828508  SOLV      5356            0.0000000000
     16188      5367  TIP3      H2             27.1841750248       11.5464206768       13.3962128508  SOLV      5356            0.0000000000
     16189      5368  TIP3      OH2            33.1745050248       16.4121106768       13.4914128508  SOLV      5357            0.0000000000
     16190      5368  TIP3      H1             32.9341650248       17.0744206768       14.1393328508  SOLV      5357            0.0000000000
     16191      5368  TIP3      H2             32.9763250248       15.5776306768       13.9163728508  SOLV      5357            0.0000000000
     16192      5369  TIP3      OH2            27.7453550248       15.3081906768       17.4745528508  SOLV      5358            0.0000000000
     16193      5369  TIP3      H1             27.4341050248       16.0905106768       17.9298728508  SOLV      5358            0.0000000000
     16194      5369  TIP3      H2             27.0953750248       15.1551006768       16.7887528508  SOLV      5358            0.0000000000
     16195      5370  TIP3      OH2            33.7243150248       10.6720306768        4.9264828508  SOLV      5359            0.0000000000
     16196      5370  TIP3      H1             34.3038650248       10.8220606768        5.6733728508  SOLV      5359            0.0000000000
     16197      5370  TIP3      H2             34.1383150248       11.1427706768        4.2031228508  SOLV      5359            0.0000000000
     16198      5371  TIP3      OH2            24.6653450248       11.5063006768       16.7031228508  SOLV      5360            0.0000000000
     16199      5371  TIP3      H1             24.7356650248       12.1569806768       17.4016228508  SOLV      5360            0.0000000000
     16200      5371  TIP3      H2             23.7745650248       11.6090506768       16.3682128508  SOLV      5360            0.0000000000
     16201      5372  TIP3      OH2            31.4508050248       17.4088806768        8.3617928508  SOLV      5361            0.0000000000
     16202      5372  TIP3      H1             31.9245650248       17.7045106768        9.1392128508  SOLV      5361            0.0000000000
     16203      5372  TIP3      H2             30.8877350248       18.1470406768        8.1287528508  SOLV      5361            0.0000000000
     16204      5373  TIP3      OH2            25.9849450248       17.3796906768       18.2379328508  SOLV      5362            0.0000000000
     16205      5373  TIP3      H1             25.9924750248       17.2436606768       17.2904828508  SOLV      5362            0.0000000000
     16206      5373  TIP3      H2             25.0689850248       17.2625006768       18.4899328508  SOLV      5362            0.0000000000
     16207      5374  TIP3      OH2            25.4890050248       11.2097906768        6.7131428508  SOLV      5363            0.0000000000
     16208      5374  TIP3      H1             25.1971350248       11.9779606768        6.2222728508  SOLV      5363            0.0000000000
     16209      5374  TIP3      H2             24.8145250248       10.5504106768        6.5502828508  SOLV      5363            0.0000000000
     16210      5375  TIP3      OH2            21.5820150248       13.5727106768       15.5281228508  SOLV      5364            0.0000000000
     16211      5375  TIP3      H1             21.0808550248       13.5446506768       14.7130928508  SOLV      5364            0.0000000000
     16212      5375  TIP3      H2             21.5873850248       12.6670306768       15.8378528508  SOLV      5364            0.0000000000
     16213      5376  TIP3      OH2            21.3322850248       16.3530906768       12.4121428508  SOLV      5365            0.0000000000
     16214      5376  TIP3      H1             22.2783450248       16.2087906768       12.3930928508  SOLV      5365            0.0000000000
     16215      5376  TIP3      H2             21.2199150248       17.1373706768       12.9492628508  SOLV      5365            0.0000000000
     16216      5377  TIP3      OH2            30.9231150248       20.3653506768        6.7767128508  SOLV      5366            0.0000000000
     16217      5377  TIP3      H1             30.8477150248       20.2440706768        5.8302328508  SOLV      5366            0.0000000000
     16218      5377  TIP3      H2             30.9559850248       21.3146206768        6.8951728508  SOLV      5366            0.0000000000
     16219      5378  TIP3      OH2            23.8310650248       14.8962506768       16.5714028508  SOLV      5367            0.0000000000
     16220      5378  TIP3      H1             24.0471950248       14.5348106768       17.4309828508  SOLV      5367            0.0000000000
     16221      5378  TIP3      H2             22.9755350248       14.5216306768       16.3617528508  SOLV      5367            0.0000000000
     16222      5379  TIP3      OH2            26.4498650248        3.3663006768       12.5668228508  SOLV      5368            0.0000000000
     16223      5379  TIP3      H1             25.5882350248        3.2791206768       12.1591128508  SOLV      5368            0.0000000000
     16224      5379  TIP3      H2             26.4274350248        4.2223106768       12.9945828508  SOLV      5368            0.0000000000
     16225      5380  TIP3      OH2            31.1126450248        3.0883406768       15.9415228508  SOLV      5369            0.0000000000
     16226      5380  TIP3      H1             31.5329550248        2.6730506768       16.6945828508  SOLV      5369            0.0000000000
     16227      5380  TIP3      H2             30.1796050248        2.9096706768       16.0587228508  SOLV      5369            0.0000000000
     16228      5381  TIP3      OH2            35.2016250248       11.7048606768        2.5562728508  SOLV      5370            0.0000000000
     16229      5381  TIP3      H1             35.2437050248       11.4822506768        1.6262728508  SOLV      5370            0.0000000000
     16230      5381  TIP3      H2             36.0508350248       12.1035706768        2.7462628508  SOLV      5370            0.0000000000
     16231      5382  TIP3      OH2            30.7743750248        5.5806806768        3.2266028508  SOLV      5371            0.0000000000
     16232      5382  TIP3      H1             30.5208550248        5.5998406768        4.1494128508  SOLV      5371            0.0000000000
     16233      5382  TIP3      H2             30.5175850248        4.7092206768        2.9252228508  SOLV      5371            0.0000000000
     16234      5383  TIP3      OH2            26.5408750248        8.3317506768       13.6618428508  SOLV      5372            0.0000000000
     16235      5383  TIP3      H1             25.8990850248        8.2914806768       14.3708528508  SOLV      5372            0.0000000000
     16236      5383  TIP3      H2             26.5780750248        9.2582206768       13.4241428508  SOLV      5372            0.0000000000
     16237      5384  TIP3      OH2            26.5377850248        8.5527606768        8.5738428508  SOLV      5373            0.0000000000
     16238      5384  TIP3      H1             25.6450750248        8.2123706768        8.5152228508  SOLV      5373            0.0000000000
     16239      5384  TIP3      H2             26.9884450248        8.1758506768        7.8181628508  SOLV      5373            0.0000000000
     16240      5385  TIP3      OH2            32.0733350248        8.9687906768        7.3909228508  SOLV      5374            0.0000000000
     16241      5385  TIP3      H1             31.6643650248        9.7836506768        7.0994028508  SOLV      5374            0.0000000000
     16242      5385  TIP3      H2             32.7939550248        8.8288006768        6.7766328508  SOLV      5374            0.0000000000
     16243      5386  TIP3      OH2            33.0781050248        8.4148306768       10.2048928508  SOLV      5375            0.0000000000
     16244      5386  TIP3      H1             32.8825550248        9.0205106768        9.4899528508  SOLV      5375            0.0000000000
     16245      5386  TIP3      H2             33.2593650248        7.5813506768        9.7705228508  SOLV      5375            0.0000000000
     16246      5387  TIP3      OH2            24.2909250248        8.6521006768       15.5290428508  SOLV      5376            0.0000000000
     16247      5387  TIP3      H1             24.2528650248        9.0522606768       16.3977528508  SOLV      5376            0.0000000000
     16248      5387  TIP3      H2             23.8000350248        7.8353406768       15.6193328508  SOLV      5376            0.0000000000
     16249      5388  TIP3      OH2            27.6566650248        6.0263306768        2.3276428508  SOLV      5377            0.0000000000
     16250      5388  TIP3      H1             27.2257350248        5.5813406768        3.0573828508  SOLV      5377            0.0000000000
     16251      5388  TIP3      H2             26.9385350248        6.3979606768        1.8153928508  SOLV      5377            0.0000000000
     16252      5389  TIP3      OH2            20.8990050248        5.7682806768        9.3795128508  SOLV      5378            0.0000000000
     16253      5389  TIP3      H1             21.5297750248        5.7394906768       10.0989028508  SOLV      5378            0.0000000000
     16254      5389  TIP3      H2             21.3484350248        5.3431506768        8.6491028508  SOLV      5378            0.0000000000
     16255      5390  TIP3      OH2            22.1732150248        6.5144806768        4.8035528508  SOLV      5379            0.0000000000
     16256      5390  TIP3      H1             22.6473850248        7.1054706768        4.2186428508  SOLV      5379            0.0000000000
     16257      5390  TIP3      H2             21.4558550248        7.0447706768        5.1505628508  SOLV      5379            0.0000000000
     16258      5391  TIP3      OH2            32.3420250248       10.0529606768       14.8761328508  SOLV      5380            0.0000000000
     16259      5391  TIP3      H1             32.6655050248        9.4219306768       14.2331828508  SOLV      5380            0.0000000000
     16260      5391  TIP3      H2             31.9019550248        9.5181806768       15.5368728508  SOLV      5380            0.0000000000
     16261      5392  TIP3      OH2            29.1193150248        5.9805106768        9.6602528508  SOLV      5381            0.0000000000
     16262      5392  TIP3      H1             28.2084250248        6.0371906768        9.9488528508  SOLV      5381            0.0000000000
     16263      5392  TIP3      H2             29.6246050248        5.9200606768       10.4709728508  SOLV      5381            0.0000000000
     16264      5393  TIP3      OH2            23.9476550248        7.6091406768        8.4870128508  SOLV      5382            0.0000000000
     16265      5393  TIP3      H1             23.0584550248        7.7086906768        8.1469728508  SOLV      5382            0.0000000000
     16266      5393  TIP3      H2             24.2441450248        6.7674406768        8.1408028508  SOLV      5382            0.0000000000
     16267      5394  TIP3      OH2            27.6008350248        7.6094006768        6.1434728508  SOLV      5383            0.0000000000
     16268      5394  TIP3      H1             28.5323850248        7.7384006768        6.3217828508  SOLV      5383            0.0000000000
     16269      5394  TIP3      H2             27.3858650248        8.2788306768        5.4939428508  SOLV      5383            0.0000000000
     16270      5395  TIP3      OH2            33.5245050248        5.2151406768       12.9244328508  SOLV      5384            0.0000000000
     16271      5395  TIP3      H1             32.8476650248        5.3464506768       13.5884028508  SOLV      5384            0.0000000000
     16272      5395  TIP3      H2             33.0389950248        5.0600906768       12.1142028508  SOLV      5384            0.0000000000
     16273      5396  TIP3      OH2            26.2748550248        8.8036206768        3.7100828508  SOLV      5385            0.0000000000
     16274      5396  TIP3      H1             25.7323650248        8.4240006768        3.0188428508  SOLV      5385            0.0000000000
     16275      5396  TIP3      H2             27.1083450248        8.9980906768        3.2814928508  SOLV      5385            0.0000000000
     16276      5397  TIP3      OH2            24.4099950248       13.3608106768       18.8092428508  SOLV      5386            0.0000000000
     16277      5397  TIP3      H1             25.1422350248       13.6154006768       19.3706928508  SOLV      5386            0.0000000000
     16278      5397  TIP3      H2             23.6298650248       13.5653506768       19.3247828508  SOLV      5386            0.0000000000
     16279      5398  TIP3      OH2            30.4392850248        8.7678106768       11.5472128508  SOLV      5387            0.0000000000
     16280      5398  TIP3      H1             31.0036250248        8.2214706768       11.0001728508  SOLV      5387            0.0000000000
     16281      5398  TIP3      H2             30.2916250248        8.2460006768       12.3359728508  SOLV      5387            0.0000000000
     16282      5399  TIP3      OH2            25.4412550248        4.9044206768        7.9656928508  SOLV      5388            0.0000000000
     16283      5399  TIP3      H1             25.1242050248        4.0019506768        7.9302328508  SOLV      5388            0.0000000000
     16284      5399  TIP3      H2             26.2226650248        4.9061606768        7.4128528508  SOLV      5388            0.0000000000
     16285      5400  TIP3      OH2            29.0658750248        7.1564206768       13.9612528508  SOLV      5389            0.0000000000
     16286      5400  TIP3      H1             28.2304050248        7.6103706768       14.0714928508  SOLV      5389            0.0000000000
     16287      5400  TIP3      H2             29.5899350248        7.4322706768       14.7132428508  SOLV      5389            0.0000000000
     16288      5401  TIP3      OH2            29.6101350248       13.3691906768        5.6458928508  SOLV      5390            0.0000000000
     16289      5401  TIP3      H1             28.8652350248       12.8617206768        5.3236828508  SOLV      5390            0.0000000000
     16290      5401  TIP3      H2             29.4758550248       13.4179906768        6.5923728508  SOLV      5390            0.0000000000
     16291      5402  TIP3      OH2            33.5078150248        6.1831806768        3.8451528508  SOLV      5391            0.0000000000
     16292      5402  TIP3      H1             32.5692350248        6.2947406768        3.6940328508  SOLV      5391            0.0000000000
     16293      5402  TIP3      H2             33.8050250248        7.0398706768        4.1517228508  SOLV      5391            0.0000000000
     16294      5403  TIP3      OH2            34.2261650248        8.0504506768        5.5058928508  SOLV      5392            0.0000000000
     16295      5403  TIP3      H1             35.1180650248        7.9129506768        5.8250128508  SOLV      5392            0.0000000000
     16296      5403  TIP3      H2             34.2825250248        8.8410606768        4.9692428508  SOLV      5392            0.0000000000
     16297      5404  TIP3      OH2            24.7349650248       12.6641906768       11.4156828508  SOLV      5393            0.0000000000
     16298      5404  TIP3      H1             25.4796850248       12.6617606768       10.8143328508  SOLV      5393            0.0000000000
     16299      5404  TIP3      H2             24.8126250248       11.8405706768       11.8971928508  SOLV      5393            0.0000000000
     16300      5405  TIP3      OH2            31.7355450248       14.8276206768        4.6713528508  SOLV      5394            0.0000000000
     16301      5405  TIP3      H1             31.4403850248       15.6544106768        5.0528328508  SOLV      5394            0.0000000000
     16302      5405  TIP3      H2             31.0325450248       14.2083106768        4.8674928508  SOLV      5394            0.0000000000
     16303      5406  TIP3      OH2            21.7429350248       11.1248806768       16.7305328508  SOLV      5395            0.0000000000
     16304      5406  TIP3      H1             21.9657950248       10.7068406768       17.5622828508  SOLV      5395            0.0000000000
     16305      5406  TIP3      H2             21.1409450248       10.5123806768       16.3078128508  SOLV      5395            0.0000000000
     16306      5407  TIP3      OH2            28.7594250248       10.6418706768       18.9435028508  SOLV      5396            0.0000000000
     16307      5407  TIP3      H1             28.4635050248       10.4761706768       18.0484128508  SOLV      5396            0.0000000000
     16308      5407  TIP3      H2             29.6909450248       10.4219006768       18.9328928508  SOLV      5396            0.0000000000
     16309      5408  TIP3      OH2            34.5665950248       11.8538506768       12.6869628508  SOLV      5397            0.0000000000
     16310      5408  TIP3      H1             33.6382850248       11.6220406768       12.6598928508  SOLV      5397            0.0000000000
     16311      5408  TIP3      H2             35.0177050248       11.0768306768       12.3568428508  SOLV      5397            0.0000000000
     16312      5409  TIP3      OH2            22.8646750248       11.0444206768        3.4070728508  SOLV      5398            0.0000000000
     16313      5409  TIP3      H1             23.4806650248       11.6711406768        3.7865528508  SOLV      5398            0.0000000000
     16314      5409  TIP3      H2             22.0029350248       11.3604006768        3.6787228508  SOLV      5398            0.0000000000
     16315      5410  TIP3      OH2            28.5371350248       13.8450006768        8.3962628508  SOLV      5399            0.0000000000
     16316      5410  TIP3      H1             28.2961350248       14.7704406768        8.4377928508  SOLV      5399            0.0000000000
     16317      5410  TIP3      H2             27.7964950248       13.3861306768        8.7926528508  SOLV      5399            0.0000000000
     16318      5411  TIP3      OH2            29.0517950248       17.9943606768       14.7113728508  SOLV      5400            0.0000000000
     16319      5411  TIP3      H1             29.4142650248       18.8489206768       14.4778128508  SOLV      5400            0.0000000000
     16320      5411  TIP3      H2             29.5833150248       17.7025206768       15.4520028508  SOLV      5400            0.0000000000
     16321      5412  TIP3      OH2            27.2202150248       18.8667606768        7.9414828508  SOLV      5401            0.0000000000
     16322      5412  TIP3      H1             26.2702650248       18.9725006768        7.9928128508  SOLV      5401            0.0000000000
     16323      5412  TIP3      H2             27.5720250248       19.6875006768        8.2862328508  SOLV      5401            0.0000000000
     16324      5413  TIP3      OH2            32.5958750248       14.0934306768       14.4119328508  SOLV      5402            0.0000000000
     16325      5413  TIP3      H1             32.1700050248       13.8656006768       15.2383328508  SOLV      5402            0.0000000000
     16326      5413  TIP3      H2             33.1764550248       13.3546106768       14.2294628508  SOLV      5402            0.0000000000
     16327      5414  TIP3      OH2            34.7987650248       15.0224806768        3.4858328508  SOLV      5403            0.0000000000
     16328      5414  TIP3      H1             35.1520750248       14.6424606768        4.2901828508  SOLV      5403            0.0000000000
     16329      5414  TIP3      H2             33.8501150248       14.9289606768        3.5727628508  SOLV      5403            0.0000000000
     16330      5415  TIP3      OH2            23.3768850248        5.8781506768       16.2886728508  SOLV      5404            0.0000000000
     16331      5415  TIP3      H1             22.4841150248        6.2166906768       16.2210728508  SOLV      5404            0.0000000000
     16332      5415  TIP3      H2             23.2781650248        5.0227606768       16.7067528508  SOLV      5404            0.0000000000
     16333      5416  TIP3      OH2            35.6646950248       13.6946806768        5.7126228508  SOLV      5405            0.0000000000
     16334      5416  TIP3      H1             35.3874550248       12.9666106768        6.2687328508  SOLV      5405            0.0000000000
     16335      5416  TIP3      H2             36.5919950248       13.8138806768        5.9178828508  SOLV      5405            0.0000000000
     16336      5417  TIP3      OH2            23.0280850248       17.6825906768       14.7236128508  SOLV      5406            0.0000000000
     16337      5417  TIP3      H1             23.2451150248       16.7508306768       14.6925828508  SOLV      5406            0.0000000000
     16338      5417  TIP3      H2             23.2744350248       17.9570906768       15.6068928508  SOLV      5406            0.0000000000
     16339      5418  TIP3      OH2            28.8895450248       16.1340906768        1.9328328508  SOLV      5407            0.0000000000
     16340      5418  TIP3      H1             29.1285250248       15.3859006768        1.3857228508  SOLV      5407            0.0000000000
     16341      5418  TIP3      H2             28.6206750248       15.7462606768        2.7656128508  SOLV      5407            0.0000000000
     16342      5419  TIP3      OH2            27.8266050248       15.7044706768        4.3890928508  SOLV      5408            0.0000000000
     16343      5419  TIP3      H1             27.9734050248       15.1844506768        5.1791828508  SOLV      5408            0.0000000000
     16344      5419  TIP3      H2             27.8237750248       16.6112306768        4.6956828508  SOLV      5408            0.0000000000
     16345      5420  TIP3      OH2            32.1112250248        5.6191806768       15.1785328508  SOLV      5409            0.0000000000
     16346      5420  TIP3      H1             32.8100150248        5.6930506768       15.8285028508  SOLV      5409            0.0000000000
     16347      5420  TIP3      H2             31.7303650248        4.7546806768       15.3328228508  SOLV      5409            0.0000000000
     16348      5421  TIP3      OH2            32.8957150248        5.2713506768        6.2757628508  SOLV      5410            0.0000000000
     16349      5421  TIP3      H1             33.1155450248        5.7428906768        5.4723028508  SOLV      5410            0.0000000000
     16350      5421  TIP3      H2             33.4541150248        5.6656106768        6.9458228508  SOLV      5410            0.0000000000
     16351      5422  TIP3      OH2            30.5643250248       17.4018306768        5.1385128508  SOLV      5411            0.0000000000
     16352      5422  TIP3      H1             29.7479350248       17.8988006768        5.1909428508  SOLV      5411            0.0000000000
     16353      5422  TIP3      H2             31.0939550248       17.8771806768        4.4983928508  SOLV      5411            0.0000000000
     16354      5423  TIP3      OH2            30.0957050248        6.9992306768        7.1106028508  SOLV      5412            0.0000000000
     16355      5423  TIP3      H1             30.9079650248        7.5035506768        7.1567728508  SOLV      5412            0.0000000000
     16356      5423  TIP3      H2             29.8510050248        6.8542006768        8.0245628508  SOLV      5412            0.0000000000
     16357      5424  TIP3      OH2            30.6313450248        7.9855006768       16.2952628508  SOLV      5413            0.0000000000
     16358      5424  TIP3      H1             30.7503750248        8.5590406768       17.0523028508  SOLV      5413            0.0000000000
     16359      5424  TIP3      H2             31.2868050248        7.2974406768       16.4100428508  SOLV      5413            0.0000000000
     16360      5425  TIP3      OH2            30.9793750248        4.0805306768        8.0487128508  SOLV      5414            0.0000000000
     16361      5425  TIP3      H1             30.6327250248        4.6975906768        8.6931428508  SOLV      5414            0.0000000000
     16362      5425  TIP3      H2             31.6380650248        4.5811006768        7.5672628508  SOLV      5414            0.0000000000
     16363      5426  TIP3      OH2            27.9026350248       18.4455506768        5.1202028508  SOLV      5415            0.0000000000
     16364      5426  TIP3      H1             28.0635050248       19.2453006768        4.6194628508  SOLV      5415            0.0000000000
     16365      5426  TIP3      H2             27.7054150248       18.7521506768        6.0052628508  SOLV      5415            0.0000000000
     16366      5427  TIP3      OH2            26.6370750248        5.1434706768        4.7359628508  SOLV      5416            0.0000000000
     16367      5427  TIP3      H1             26.5535550248        6.0317806768        5.0826028508  SOLV      5416            0.0000000000
     16368      5427  TIP3      H2             27.5271050248        4.8781406768        4.9676428508  SOLV      5416            0.0000000000
     16369      5428  TIP3      OH2            35.4380250248        9.6426306768       11.2259628508  SOLV      5417            0.0000000000
     16370      5428  TIP3      H1             34.6404650248        9.2276506768       10.8974628508  SOLV      5417            0.0000000000
     16371      5428  TIP3      H2             35.8831350248        8.9520006768       11.7170128508  SOLV      5417            0.0000000000
     16372      5429  TIP3      OH2            24.8956050248       15.5706906768        3.7964128508  SOLV      5418            0.0000000000
     16373      5429  TIP3      H1             25.4877550248       16.2701706768        4.0726528508  SOLV      5418            0.0000000000
     16374      5429  TIP3      H2             25.3549050248       15.1376406768        3.0768728508  SOLV      5418            0.0000000000
     16375      5430  TIP3      OH2            23.2115250248        8.2349906768        2.9123528508  SOLV      5419            0.0000000000
     16376      5430  TIP3      H1             23.1667850248        9.1743006768        3.0910528508  SOLV      5419            0.0000000000
     16377      5430  TIP3      H2             22.3238450248        7.9994806768        2.6425628508  SOLV      5419            0.0000000000
     16378      5431  TIP3      OH2            24.0197250248        3.0166506768       11.5854528508  SOLV      5420            0.0000000000
     16379      5431  TIP3      H1             23.7907050248        3.0759006768       10.6579528508  SOLV      5420            0.0000000000
     16380      5431  TIP3      H2             23.5770650248        2.2252006768       11.8918628508  SOLV      5420            0.0000000000
     16381      5432  TIP3      OH2            22.9500550248       16.9573606768        7.7460328508  SOLV      5421            0.0000000000
     16382      5432  TIP3      H1             22.1179150248       17.4296306768        7.7731728508  SOLV      5421            0.0000000000
     16383      5432  TIP3      H2             23.4958850248       17.4671206768        7.1473428508  SOLV      5421            0.0000000000
     16384      5433  TIP3      OH2            30.9277250248       17.9972306768        2.0714328508  SOLV      5422            0.0000000000
     16385      5433  TIP3      H1             30.2838250248       17.3660906768        2.3928028508  SOLV      5422            0.0000000000
     16386      5433  TIP3      H2             31.6895550248       17.4660306768        1.8397828508  SOLV      5422            0.0000000000
     16387      5434  TIP3      OH2            22.1453750248       13.3801406768       20.0302628508  SOLV      5423            0.0000000000
     16388      5434  TIP3      H1             22.2894250248       12.4782106768       19.7439328508  SOLV      5423            0.0000000000
     16389      5434  TIP3      H2             21.3731150248       13.6663506768       19.5424928508  SOLV      5423            0.0000000000
     16390      5435  TIP3      OH2            31.8390850248       14.7708806768        1.8985228508  SOLV      5424            0.0000000000
     16391      5435  TIP3      H1             31.5704950248       14.9510906768        2.7994128508  SOLV      5424            0.0000000000
     16392      5435  TIP3      H2             31.6326450248       13.8455006768        1.7671028508  SOLV      5424            0.0000000000
     16393      5436  TIP3      OH2            22.9780250248       10.5804706768       19.4501928508  SOLV      5425            0.0000000000
     16394      5436  TIP3      H1             23.3861450248        9.7231306768       19.3292528508  SOLV      5425            0.0000000000
     16395      5436  TIP3      H2             22.7177850248       10.5946006768       20.3712228508  SOLV      5425            0.0000000000
     16396      5437  TIP3      OH2            26.9250550248        9.5890406768       16.8244828508  SOLV      5426            0.0000000000
     16397      5437  TIP3      H1             26.3066650248       10.2637006768       17.1049528508  SOLV      5426            0.0000000000
     16398      5437  TIP3      H2             27.2691750248        9.9104306768       15.9911028508  SOLV      5426            0.0000000000
     16399      5438  TIP3      OH2            28.7071650248        9.9395106768        2.7308428508  SOLV      5427            0.0000000000
     16400      5438  TIP3      H1             28.5266650248        9.7846306768        1.8036728508  SOLV      5427            0.0000000000
     16401      5438  TIP3      H2             29.6572150248       10.0473806768        2.7756328508  SOLV      5427            0.0000000000
     16402      5439  TIP3      OH2            27.2644250248        6.9441206768       17.9067928508  SOLV      5428            0.0000000000
     16403      5439  TIP3      H1             27.4145150248        6.2152506768       17.3047628508  SOLV      5428            0.0000000000
     16404      5439  TIP3      H2             27.2666650248        7.7212906768       17.3480128508  SOLV      5428            0.0000000000
     16405      5440  TIP3      OH2            27.6769950248        5.3137006768       15.3995328508  SOLV      5429            0.0000000000
     16406      5440  TIP3      H1             28.2127450248        5.7653706768       14.7474628508  SOLV      5429            0.0000000000
     16407      5440  TIP3      H2             26.8249550248        5.2056806768       14.9769428508  SOLV      5429            0.0000000000
     16408      5441  TIP3      OH2            29.2588350248       10.7533206768       15.6390528508  SOLV      5430            0.0000000000
     16409      5441  TIP3      H1             30.0093150248       10.5970706768       15.0658328508  SOLV      5430            0.0000000000
     16410      5441  TIP3      H2             28.9196650248       11.6049806768       15.3636028508  SOLV      5430            0.0000000000
     16411      5442  TIP3      OH2            25.7430550248        8.1424706768       19.8183528508  SOLV      5431            0.0000000000
     16412      5442  TIP3      H1             24.9759550248        7.6099506768       19.6081128508  SOLV      5431            0.0000000000
     16413      5442  TIP3      H2             26.4219550248        7.8325106768       19.2189828508  SOLV      5431            0.0000000000
     16414      5443  TIP3      OH2            28.4825450248        2.7702706768       15.8308928508  SOLV      5432            0.0000000000
     16415      5443  TIP3      H1             28.3845050248        3.7165906768       15.7255128508  SOLV      5432            0.0000000000
     16416      5443  TIP3      H2             27.7401650248        2.3976506768       15.3552428508  SOLV      5432            0.0000000000
     16417      5444  TIP3      OH2            29.7465950248        7.0918106768       19.3947328508  SOLV      5433            0.0000000000
     16418      5444  TIP3      H1             29.5111350248        6.8724806768       20.2962228508  SOLV      5433            0.0000000000
     16419      5444  TIP3      H2             28.9632850248        6.8849306768       18.8849828508  SOLV      5433            0.0000000000
     16420      5445  TIP3      OH2            32.4622550248        6.2191606768       18.4700828508  SOLV      5434            0.0000000000
     16421      5445  TIP3      H1             31.5147950248        6.2511306768       18.6024128508  SOLV      5434            0.0000000000
     16422      5445  TIP3      H2             32.7749250248        5.5938706768       19.1239028508  SOLV      5434            0.0000000000
     16423      5446  TIP3      OH2            23.9233350248        6.0628506768       19.5228228508  SOLV      5435            0.0000000000
     16424      5446  TIP3      H1             24.1350750248        5.3564606768       18.9125728508  SOLV      5435            0.0000000000
     16425      5446  TIP3      H2             23.8120850248        5.6254506768       20.3669428508  SOLV      5435            0.0000000000
     16426      5447  TIP3      OH2            28.7043550248        2.0640106768       18.5021728508  SOLV      5436            0.0000000000
     16427      5447  TIP3      H1             29.4161950248        1.4242306768       18.4880828508  SOLV      5436            0.0000000000
     16428      5447  TIP3      H2             28.6033950248        2.3308406768       17.5884828508  SOLV      5436            0.0000000000
     16429      5448  TIP3      OH2            29.0581050248        3.7468506768       20.5558028508  SOLV      5437            0.0000000000
     16430      5448  TIP3      H1             28.9263250248        3.2712306768       19.7356528508  SOLV      5437            0.0000000000
     16431      5448  TIP3      H2             28.4588450248        4.4912106768       20.5005128508  SOLV      5437            0.0000000000
     16432      5449  TIP3      OH2            28.6043350248       20.6298806768        3.7322028508  SOLV      5438            0.0000000000
     16433      5449  TIP3      H1             29.5374050248       20.7877506768        3.8760428508  SOLV      5438            0.0000000000
     16434      5449  TIP3      H2             28.3402150248       21.3051806768        3.1073528508  SOLV      5438            0.0000000000
     16435      5450  TIP3      OH2            22.1728250248       15.2662606768        3.2150128508  SOLV      5439            0.0000000000
     16436      5450  TIP3      H1             23.0867450248       15.3451506768        3.4884028508  SOLV      5439            0.0000000000
     16437      5450  TIP3      H2             22.1801350248       14.5792206768        2.5485728508  SOLV      5439            0.0000000000
     16438      5451  TIP3      OH2            20.8218850248       20.6591106768        8.2924028508  SOLV      5440            0.0000000000
     16439      5451  TIP3      H1             20.1745950248       20.1972806768        7.7595228508  SOLV      5440            0.0000000000
     16440      5451  TIP3      H2             21.1763450248       19.9874406768        8.8750228508  SOLV      5440            0.0000000000
     16441      5452  TIP3      OH2            21.6918050248       18.7398106768       10.0970228508  SOLV      5441            0.0000000000
     16442      5452  TIP3      H1             21.3574850248       17.8595406768       10.2690428508  SOLV      5441            0.0000000000
     16443      5452  TIP3      H2             21.9140450248       19.0853106768       10.9615828508  SOLV      5441            0.0000000000
     16444      5453  TIP3      OH2            21.3692350248        7.0858506768       18.6893928508  SOLV      5442            0.0000000000
     16445      5453  TIP3      H1             22.2887250248        6.9636806768       18.9257028508  SOLV      5442            0.0000000000
     16446      5453  TIP3      H2             20.9196850248        6.3358206768       19.0787428508  SOLV      5442            0.0000000000
     16447      5454  TIP3      OH2            22.5904850248        5.3980106768       11.5806828508  SOLV      5443            0.0000000000
     16448      5454  TIP3      H1             23.0356450248        4.6062606768       11.8826528508  SOLV      5443            0.0000000000
     16449      5454  TIP3      H2             23.0567850248        6.1145306768       12.0112428508  SOLV      5443            0.0000000000
     16450      5455  TIP3      OH2            20.8945150248        8.3973106768       12.6497028508  SOLV      5444            0.0000000000
     16451      5455  TIP3      H1             21.3864950248        8.1763606768       11.8589028508  SOLV      5444            0.0000000000
     16452      5455  TIP3      H2             21.2566050248        9.2376506768       12.9306528508  SOLV      5444            0.0000000000
     16453      5456  TIP3      OH2            21.2081650248        4.6552206768        6.7039428508  SOLV      5445            0.0000000000
     16454      5456  TIP3      H1             20.2830050248        4.8638806768        6.5744928508  SOLV      5445            0.0000000000
     16455      5456  TIP3      H2             21.6621550248        5.1393006768        6.0141728508  SOLV      5445            0.0000000000
     16456      5457  TIP3      OH2            21.1717050248        3.3931206768       15.0481928508  SOLV      5446            0.0000000000
     16457      5457  TIP3      H1             20.5067550248        3.1471506768       15.6912828508  SOLV      5446            0.0000000000
     16458      5457  TIP3      H2             20.7288350248        4.0151606768       14.4709928508  SOLV      5446            0.0000000000
     16459      5458  TIP3      OH2            23.3636350248       16.5685306768       19.1927728508  SOLV      5447            0.0000000000
     16460      5458  TIP3      H1             22.5428850248       16.7431806768       18.7322428508  SOLV      5447            0.0000000000
     16461      5458  TIP3      H2             23.1114150248       16.4950006768       20.1132128508  SOLV      5447            0.0000000000
     16462      5459  TIP3      OH2            26.3179250248       17.5426506768       15.4511728508  SOLV      5448            0.0000000000
     16463      5459  TIP3      H1             25.8930350248       18.3525006768       15.1686328508  SOLV      5448            0.0000000000
     16464      5459  TIP3      H2             27.2222050248       17.6280606768       15.1491528508  SOLV      5448            0.0000000000
     16465      5460  TIP3      OH2            23.7195950248       20.7990406768       15.4987028508  SOLV      5449            0.0000000000
     16466      5460  TIP3      H1             22.9992350248       21.2391406768       15.0474728508  SOLV      5449            0.0000000000
     16467      5460  TIP3      H2             23.3539950248       20.5485106768       16.3471028508  SOLV      5449            0.0000000000
     16468      5461  TIP3      OH2            26.1868550248       20.3994306768       14.5284228508  SOLV      5450            0.0000000000
     16469      5461  TIP3      H1             25.3220750248       20.4712806768       14.9324328508  SOLV      5450            0.0000000000
     16470      5461  TIP3      H2             26.1317550248       20.9461606768       13.7446728508  SOLV      5450            0.0000000000
     16471      5462  TIP3      OH2            23.1344050248       19.4222906768       12.4088828508  SOLV      5451            0.0000000000
     16472      5462  TIP3      H1             23.1160050248       18.9968006768       13.2661128508  SOLV      5451            0.0000000000
     16473      5462  TIP3      H2             23.9391950248       19.1037906768       12.0001028508  SOLV      5451            0.0000000000
     16474      5463  TIP3      OH2            27.8129650248       18.6020906768       11.9126728508  SOLV      5452            0.0000000000
     16475      5463  TIP3      H1             28.0255350248       17.7139906768       11.6257628508  SOLV      5452            0.0000000000
     16476      5463  TIP3      H2             27.8774750248       18.5678606768       12.8670728508  SOLV      5452            0.0000000000
     16477      5464  TIP3      OH2            31.3213350248        4.2661506768       11.0570028508  SOLV      5453            0.0000000000
     16478      5464  TIP3      H1             30.6470150248        3.6367106768       11.3125828508  SOLV      5453            0.0000000000
     16479      5464  TIP3      H2             31.8852550248        3.7820406768       10.4537928508  SOLV      5453            0.0000000000
     16480      5465  TIP3      OH2            23.6480850248        2.9001806768        8.8789928508  SOLV      5454            0.0000000000
     16481      5465  TIP3      H1             22.8710650248        2.6656706768        8.3715828508  SOLV      5454            0.0000000000
     16482      5465  TIP3      H2             24.1784450248        2.1033906768        8.8877928508  SOLV      5454            0.0000000000
     16483      5466  TIP3      OH2            22.4844250248        2.6979906768        4.6826028508  SOLV      5455            0.0000000000
     16484      5466  TIP3      H1             22.9234950248        3.3090406768        4.0909528508  SOLV      5455            0.0000000000
     16485      5466  TIP3      H2             21.8506650248        3.2364006768        5.1566028508  SOLV      5455            0.0000000000
     16486      5467  TIP3      OH2            28.2273450248        2.8268906768        8.6923028508  SOLV      5456            0.0000000000
     16487      5467  TIP3      H1             29.1016850248        3.2153206768        8.6627328508  SOLV      5456            0.0000000000
     16488      5467  TIP3      H2             28.0914250248        2.6116706768        9.6150228508  SOLV      5456            0.0000000000
     16489      5468  TIP3      OH2            33.7841850248        2.8568706768       10.3414728508  SOLV      5457            0.0000000000
     16490      5468  TIP3      H1             33.8603450248        2.9520306768        9.3920728508  SOLV      5457            0.0000000000
     16491      5468  TIP3      H2             33.5091050248        1.9491606768       10.4703828508  SOLV      5457            0.0000000000
     16492      5469  TIP3      OH2            35.1374450248        2.8826506768        6.0339728508  SOLV      5458            0.0000000000
     16493      5469  TIP3      H1             34.4345550248        3.4975706768        5.8241128508  SOLV      5458            0.0000000000
     16494      5469  TIP3      H2             34.6925850248        2.0453206768        6.1650628508  SOLV      5458            0.0000000000
     16495      5470  TIP3      OH2            22.3853750248       18.6462106768        5.5801128508  SOLV      5459            0.0000000000
     16496      5470  TIP3      H1             21.7003650248       18.6081006768        4.9126228508  SOLV      5459            0.0000000000
     16497      5470  TIP3      H2             22.3890950248       19.5589706768        5.8683228508  SOLV      5459            0.0000000000
     16498      5471  TIP3      OH2            24.3453350248        4.6141406768        3.1250128508  SOLV      5460            0.0000000000
     16499      5471  TIP3      H1             24.8366750248        3.9843806768        2.5975628508  SOLV      5460            0.0000000000
     16500      5471  TIP3      H2             24.9689650248        4.9100806768        3.7881328508  SOLV      5460            0.0000000000
     16501      5472  TIP3      OH2            29.3713450248        4.9072906768        5.5820628508  SOLV      5461            0.0000000000
     16502      5472  TIP3      H1             29.5494750248        4.2606106768        6.2649228508  SOLV      5461            0.0000000000
     16503      5472  TIP3      H2             29.3179650248        5.7410606768        6.0491728508  SOLV      5461            0.0000000000
     16504      5473  TIP3      OH2            31.2497250248       19.8557006768        3.9777328508  SOLV      5462            0.0000000000
     16505      5473  TIP3      H1             32.1157450248       20.2224406768        3.7995528508  SOLV      5462            0.0000000000
     16506      5473  TIP3      H2             31.0030050248       19.4165006768        3.1638128508  SOLV      5462            0.0000000000
     16507      5474  TIP3      OH2            23.6058850248        3.4143706768       18.3966128508  SOLV      5463            0.0000000000
     16508      5474  TIP3      H1             23.2397050248        2.6486306768       18.8390828508  SOLV      5463            0.0000000000
     16509      5474  TIP3      H2             24.5187350248        3.4433906768       18.6831228508  SOLV      5463            0.0000000000
     16510      5475  TIP3      OH2            25.5789650248        2.7648106768       19.9323228508  SOLV      5464            0.0000000000
     16511      5475  TIP3      H1             26.4773250248        2.4908306768       19.7476628508  SOLV      5464            0.0000000000
     16512      5475  TIP3      H2             25.1922750248        2.0224106768       20.3965828508  SOLV      5464            0.0000000000
     16513      5476  TIP3      OH2            24.2034950248       19.5662906768        2.6053228508  SOLV      5465            0.0000000000
     16514      5476  TIP3      H1             23.9359550248       19.8525806768        3.4786328508  SOLV      5465            0.0000000000
     16515      5476  TIP3      H2             24.9747550248       19.0202106768        2.7575728508  SOLV      5465            0.0000000000
     16516      5477  TIP3      OH2           -17.8561049752       24.2011506768       13.5232828508  SOLV      5466            0.0000000000
     16517      5477  TIP3      H1            -17.8068849752       24.8112706768       14.2591928508  SOLV      5466            0.0000000000
     16518      5477  TIP3      H2            -17.4305949752       24.6622406768       12.8003928508  SOLV      5466            0.0000000000
     16519      5478  TIP3      OH2           -23.3783849752       26.9938606768       12.9901428508  SOLV      5467            0.0000000000
     16520      5478  TIP3      H1            -23.2357949752       26.0475606768       13.0103028508  SOLV      5467            0.0000000000
     16521      5478  TIP3      H2            -23.4844849752       27.2008406768       12.0616328508  SOLV      5467            0.0000000000
     16522      5479  TIP3      OH2           -22.5012849752       25.2260606768        8.6634528508  SOLV      5468            0.0000000000
     16523      5479  TIP3      H1            -21.8548549752       24.8973806768        9.2882128508  SOLV      5468            0.0000000000
     16524      5479  TIP3      H2            -21.9913449752       25.7439606768        8.0405928508  SOLV      5468            0.0000000000
     16525      5480  TIP3      OH2           -17.4646449752       25.6790706768       15.7592628508  SOLV      5469            0.0000000000
     16526      5480  TIP3      H1            -18.1531849752       26.3371406768       15.6639228508  SOLV      5469            0.0000000000
     16527      5480  TIP3      H2            -17.4491849752       25.4818606768       16.6958028508  SOLV      5469            0.0000000000
     16528      5481  TIP3      OH2           -20.7374449752       24.5169906768       10.6440428508  SOLV      5470            0.0000000000
     16529      5481  TIP3      H1            -20.9526449752       23.7513306768       11.1766428508  SOLV      5470            0.0000000000
     16530      5481  TIP3      H2            -20.0817049752       24.9894506768       11.1568928508  SOLV      5470            0.0000000000
     16531      5482  TIP3      OH2           -20.3900349752       23.2321206768       14.3233928508  SOLV      5471            0.0000000000
     16532      5482  TIP3      H1            -21.1261149752       23.8428306768       14.2855228508  SOLV      5471            0.0000000000
     16533      5482  TIP3      H2            -19.7066349752       23.6470206768       13.7970328508  SOLV      5471            0.0000000000
     16534      5483  TIP3      OH2           -17.7510149752       29.5342606768       14.5832128508  SOLV      5472            0.0000000000
     16535      5483  TIP3      H1            -18.4036049752       30.2288206768       14.6723028508  SOLV      5472            0.0000000000
     16536      5483  TIP3      H2            -17.2859849752       29.7443506768       13.7733728508  SOLV      5472            0.0000000000
     16537      5484  TIP3      OH2           -21.7146349752       30.3657406768        7.2413628508  SOLV      5473            0.0000000000
     16538      5484  TIP3      H1            -22.4465349752       30.5941106768        7.8144228508  SOLV      5473            0.0000000000
     16539      5484  TIP3      H2            -21.2674149752       29.6520106768        7.6961128508  SOLV      5473            0.0000000000
     16540      5485  TIP3      OH2           -21.8172849752       28.5400006768       16.3090628508  SOLV      5474            0.0000000000
     16541      5485  TIP3      H1            -21.7373749752       29.3034406768       16.8809128508  SOLV      5474            0.0000000000
     16542      5485  TIP3      H2            -22.4185149752       28.8192406768       15.6185728508  SOLV      5474            0.0000000000
     16543      5486  TIP3      OH2           -22.8436849752       29.5280306768        4.9264828508  SOLV      5475            0.0000000000
     16544      5486  TIP3      H1            -22.2641349752       29.6780606768        5.6733728508  SOLV      5475            0.0000000000
     16545      5486  TIP3      H2            -22.4296849752       29.9987706768        4.2031228508  SOLV      5475            0.0000000000
     16546      5487  TIP3      OH2           -19.1448449752       21.2780706768        4.7394528508  SOLV      5476            0.0000000000
     16547      5487  TIP3      H1            -20.0447749752       21.4169706768        5.0345128508  SOLV      5476            0.0000000000
     16548      5487  TIP3      H2            -18.8930049752       22.1095306768        4.3376228508  SOLV      5476            0.0000000000
     16549      5488  TIP3      OH2           -19.8858849752       27.3683106768       18.5747328508  SOLV      5477            0.0000000000
     16550      5488  TIP3      H1            -20.2932049752       27.8488706768       17.8540628508  SOLV      5477            0.0000000000
     16551      5488  TIP3      H2            -19.8453149752       26.4629106768       18.2668128508  SOLV      5477            0.0000000000
     16552      5489  TIP3      OH2           -25.4553549752       21.9443406768       15.9415228508  SOLV      5478            0.0000000000
     16553      5489  TIP3      H1            -25.0350449752       21.5290506768       16.6945828508  SOLV      5478            0.0000000000
     16554      5489  TIP3      H2            -26.3883949752       21.7656706768       16.0587228508  SOLV      5478            0.0000000000
     16555      5490  TIP3      OH2           -22.1288649752       25.6998606768       16.7949728508  SOLV      5479            0.0000000000
     16556      5490  TIP3      H1            -22.6429149752       25.5740806768       17.5925728508  SOLV      5479            0.0000000000
     16557      5490  TIP3      H2            -22.2843949752       26.6121706768       16.5505928508  SOLV      5479            0.0000000000
     16558      5491  TIP3      OH2           -21.3663749752       30.5608606768        2.5562728508  SOLV      5480            0.0000000000
     16559      5491  TIP3      H1            -21.3242949752       30.3382506768        1.6262728508  SOLV      5480            0.0000000000
     16560      5491  TIP3      H2            -20.5171649752       30.9595706768        2.7462628508  SOLV      5480            0.0000000000
     16561      5492  TIP3      OH2           -24.4946649752       27.8247906768        7.3909228508  SOLV      5481            0.0000000000
     16562      5492  TIP3      H1            -24.9036349752       28.6396506768        7.0994028508  SOLV      5481            0.0000000000
     16563      5492  TIP3      H2            -23.7740449752       27.6848006768        6.7766328508  SOLV      5481            0.0000000000
     16564      5493  TIP3      OH2           -23.4898949752       27.2708306768       10.2048928508  SOLV      5482            0.0000000000
     16565      5493  TIP3      H1            -23.6854449752       27.8765106768        9.4899528508  SOLV      5482            0.0000000000
     16566      5493  TIP3      H2            -23.3086349752       26.4373506768        9.7705228508  SOLV      5482            0.0000000000
     16567      5494  TIP3      OH2           -24.2259749752       28.9089606768       14.8761328508  SOLV      5483            0.0000000000
     16568      5494  TIP3      H1            -23.9024949752       28.2779306768       14.2331828508  SOLV      5483            0.0000000000
     16569      5494  TIP3      H2            -24.6660449752       28.3741806768       15.5368728508  SOLV      5483            0.0000000000
     16570      5495  TIP3      OH2           -23.0434949752       24.0711406768       12.9244328508  SOLV      5484            0.0000000000
     16571      5495  TIP3      H1            -23.7203349752       24.2024506768       13.5884028508  SOLV      5484            0.0000000000
     16572      5495  TIP3      H2            -23.5290049752       23.9160906768       12.1142028508  SOLV      5484            0.0000000000
     16573      5496  TIP3      OH2           -19.8079749752       31.3580106768       14.4326528508  SOLV      5485            0.0000000000
     16574      5496  TIP3      H1            -19.1660949752       31.8146406768       13.8888728508  SOLV      5485            0.0000000000
     16575      5496  TIP3      H2            -20.6382849752       31.4712506768       13.9700628508  SOLV      5485            0.0000000000
     16576      5497  TIP3      OH2           -23.0601849752       25.0391806768        3.8451528508  SOLV      5486            0.0000000000
     16577      5497  TIP3      H1            -23.9987649752       25.1507406768        3.6940328508  SOLV      5486            0.0000000000
     16578      5497  TIP3      H2            -22.7629749752       25.8958706768        4.1517228508  SOLV      5486            0.0000000000
     16579      5498  TIP3      OH2           -22.3418349752       26.9064506768        5.5058928508  SOLV      5487            0.0000000000
     16580      5498  TIP3      H1            -21.4499349752       26.7689506768        5.8250128508  SOLV      5487            0.0000000000
     16581      5498  TIP3      H2            -22.2854749752       27.6970606768        4.9692428508  SOLV      5487            0.0000000000
     16582      5499  TIP3      OH2           -17.4569649752       27.1158606768        5.2005628508  SOLV      5488            0.0000000000
     16583      5499  TIP3      H1            -18.0113349752       26.7196606768        4.5283128508  SOLV      5488            0.0000000000
     16584      5499  TIP3      H2            -17.3566049752       28.0263806768        4.9228928508  SOLV      5488            0.0000000000
     16585      5500  TIP3      OH2           -22.0014049752       30.7098506768       12.6869628508  SOLV      5489            0.0000000000
     16586      5500  TIP3      H1            -22.9297149752       30.4780406768       12.6598928508  SOLV      5489            0.0000000000
     16587      5500  TIP3      H2            -21.5502949752       29.9328306768       12.3568428508  SOLV      5489            0.0000000000
     16588      5501  TIP3      OH2           -20.9033049752       32.5506806768        5.7126228508  SOLV      5490            0.0000000000
     16589      5501  TIP3      H1            -21.1805449752       31.8226106768        6.2687328508  SOLV      5490            0.0000000000
     16590      5501  TIP3      H2            -19.9760049752       32.6698806768        5.9178828508  SOLV      5490            0.0000000000
     16591      5502  TIP3      OH2           -24.4567749752       24.4751806768       15.1785328508  SOLV      5491            0.0000000000
     16592      5502  TIP3      H1            -23.7579849752       24.5490506768       15.8285028508  SOLV      5491            0.0000000000
     16593      5502  TIP3      H2            -24.8376349752       23.6106806768       15.3328228508  SOLV      5491            0.0000000000
     16594      5503  TIP3      OH2           -23.6722849752       24.1273506768        6.2757628508  SOLV      5492            0.0000000000
     16595      5503  TIP3      H1            -23.4524549752       24.5988906768        5.4723028508  SOLV      5492            0.0000000000
     16596      5503  TIP3      H2            -23.1138849752       24.5216106768        6.9458228508  SOLV      5492            0.0000000000
     16597      5504  TIP3      OH2           -25.5886249752       22.9365306768        8.0487128508  SOLV      5493            0.0000000000
     16598      5504  TIP3      H1            -25.9352749752       23.5535906768        8.6931428508  SOLV      5493            0.0000000000
     16599      5504  TIP3      H2            -24.9299349752       23.4371006768        7.5672628508  SOLV      5493            0.0000000000
     16600      5505  TIP3      OH2           -19.7320749752       24.7485306768       17.1302328508  SOLV      5494            0.0000000000
     16601      5505  TIP3      H1            -20.6484949752       25.0107006768       17.0426028508  SOLV      5494            0.0000000000
     16602      5505  TIP3      H2            -19.3965749752       24.7454306768       16.2337628508  SOLV      5494            0.0000000000
     16603      5506  TIP3      OH2           -21.1299749752       28.4986306768       11.2259628508  SOLV      5495            0.0000000000
     16604      5506  TIP3      H1            -21.9275349752       28.0836506768       10.8974628508  SOLV      5495            0.0000000000
     16605      5506  TIP3      H2            -20.6848649752       27.8080006768       11.7170128508  SOLV      5495            0.0000000000
     16606      5507  TIP3      OH2           -18.4710049752       31.1499306768        2.1766528508  SOLV      5496            0.0000000000
     16607      5507  TIP3      H1            -18.7445249752       30.7254806768        1.3634828508  SOLV      5496            0.0000000000
     16608      5507  TIP3      H2            -18.4315949752       32.0813806768        1.9596928508  SOLV      5496            0.0000000000
     16609      5508  TIP3      OH2           -24.1057449752       25.0751606768       18.4700828508  SOLV      5497            0.0000000000
     16610      5508  TIP3      H1            -25.0532049752       25.1071306768       18.6024128508  SOLV      5497            0.0000000000
     16611      5508  TIP3      H2            -23.7930749752       24.4498706768       19.1239028508  SOLV      5497            0.0000000000
     16612      5509  TIP3      OH2           -22.4715949752       23.7092706768       20.4752728508  SOLV      5498            0.0000000000
     16613      5509  TIP3      H1            -22.5684149752       22.7570006768       20.4694628508  SOLV      5498            0.0000000000
     16614      5509  TIP3      H2            -22.7932849752       23.9779506768       21.3358228508  SOLV      5498            0.0000000000
     16615      5510  TIP3      OH2           -18.0127249752       32.0187406768        6.1516928508  SOLV      5499            0.0000000000
     16616      5510  TIP3      H1            -17.1625849752       32.4398306768        6.2788528508  SOLV      5499            0.0000000000
     16617      5510  TIP3      H2            -18.0072149752       31.2787506768        6.7588328508  SOLV      5499            0.0000000000
     16618      5511  TIP3      OH2           -17.6181649752       30.0724806768        7.9752628508  SOLV      5500            0.0000000000
     16619      5511  TIP3      H1            -18.3447049752       29.5927406768        8.3730228508  SOLV      5500            0.0000000000
     16620      5511  TIP3      H2            -17.0368349752       30.2779506768        8.7074228508  SOLV      5500            0.0000000000
     16621      5512  TIP3      OH2           -17.3498549752       29.9733306768        4.3663928508  SOLV      5501            0.0000000000
     16622      5512  TIP3      H1            -17.8717449752       30.3297406768        3.6474828508  SOLV      5501            0.0000000000
     16623      5512  TIP3      H2            -17.3829349752       30.6481106768        5.0444828508  SOLV      5501            0.0000000000
     16624      5513  TIP3      OH2           -19.0009549752       27.2128906768        2.9171028508  SOLV      5502            0.0000000000
     16625      5513  TIP3      H1            -18.9045149752       27.8795906768        2.2370728508  SOLV      5502            0.0000000000
     16626      5513  TIP3      H2            -19.1409949752       26.3975206768        2.4356528508  SOLV      5502            0.0000000000
     16627      5514  TIP3      OH2           -19.8314849752       28.5931306768        8.5381328508  SOLV      5503            0.0000000000
     16628      5514  TIP3      H1            -19.9816049752       27.6479906768        8.5179128508  SOLV      5503            0.0000000000
     16629      5514  TIP3      H2            -20.1850349752       28.8742706768        9.3820428508  SOLV      5503            0.0000000000
     16630      5515  TIP3      OH2           -17.4784849752       28.4660406768       18.8615028508  SOLV      5504            0.0000000000
     16631      5515  TIP3      H1            -18.3418149752       28.0872506768       18.6959728508  SOLV      5504            0.0000000000
     16632      5515  TIP3      H2            -16.8741149752       27.7275206768       18.7870828508  SOLV      5504            0.0000000000
     16633      5516  TIP3      OH2           -19.7535749752       24.6208706768        2.0346528508  SOLV      5505            0.0000000000
     16634      5516  TIP3      H1            -19.1429949752       24.2495506768        2.6714728508  SOLV      5505            0.0000000000
     16635      5516  TIP3      H2            -20.5904249752       24.1995606768        2.2306528508  SOLV      5505            0.0000000000
     16636      5517  TIP3      OH2           -20.1210049752       26.1757106768        7.0006428508  SOLV      5506            0.0000000000
     16637      5517  TIP3      H1            -19.8412949752       25.2687506768        7.1248128508  SOLV      5506            0.0000000000
     16638      5517  TIP3      H2            -19.3618349752       26.6098606768        6.6115628508  SOLV      5506            0.0000000000
     16639      5518  TIP3      OH2           -19.5091749752       26.7574506768       12.4365328508  SOLV      5507            0.0000000000
     16640      5518  TIP3      H1            -18.5763749752       26.9694406768       12.4021328508  SOLV      5507            0.0000000000
     16641      5518  TIP3      H2            -19.7444249752       26.8586606768       13.3588328508  SOLV      5507            0.0000000000
     16642      5519  TIP3      OH2           -19.4799849752       27.4939806768       15.2124728508  SOLV      5508            0.0000000000
     16643      5519  TIP3      H1            -20.3228549752       27.7620206768       15.5784528508  SOLV      5508            0.0000000000
     16644      5519  TIP3      H2            -19.0375549752       28.3161706768       15.0015828508  SOLV      5508            0.0000000000
     16645      5520  TIP3      OH2           -17.1968249752       21.4740006768       20.5659728508  SOLV      5509            0.0000000000
     16646      5520  TIP3      H1            -16.8471249752       20.8203506768       19.9604428508  SOLV      5509            0.0000000000
     16647      5520  TIP3      H2            -17.0498749752       22.3114106768       20.1262328508  SOLV      5509            0.0000000000
     16648      5521  TIP3      OH2           -19.5075249752       23.4386406768        7.0488428508  SOLV      5510            0.0000000000
     16649      5521  TIP3      H1            -19.3250249752       22.9897906768        7.8743428508  SOLV      5510            0.0000000000
     16650      5521  TIP3      H2            -20.1072349752       22.8540806768        6.5853028508  SOLV      5510            0.0000000000
     16651      5522  TIP3      OH2           -17.6771049752       23.5834606768       18.9151028508  SOLV      5511            0.0000000000
     16652      5522  TIP3      H1            -18.5945349752       23.8541706768       18.8794528508  SOLV      5511            0.0000000000
     16653      5522  TIP3      H2            -17.5541649752       23.0483006768       18.1310728508  SOLV      5511            0.0000000000
     16654      5523  TIP3      OH2           -17.6409049752       23.5064506768        3.5768728508  SOLV      5512            0.0000000000
     16655      5523  TIP3      H1            -17.2286449752       22.7850206768        3.1016728508  SOLV      5512            0.0000000000
     16656      5523  TIP3      H2            -16.9592549752       24.1759106768        3.6353028508  SOLV      5512            0.0000000000
     16657      5524  TIP3      OH2           -18.6765149752       21.6730906768       16.7341828508  SOLV      5513            0.0000000000
     16658      5524  TIP3      H1            -19.4891649752       21.9981206768       16.3466528508  SOLV      5513            0.0000000000
     16659      5524  TIP3      H2            -18.4436649752       20.9129406768       16.2010928508  SOLV      5513            0.0000000000
     16660      5525  TIP3      OH2           -25.2466649752       23.1221506768       11.0570028508  SOLV      5514            0.0000000000
     16661      5525  TIP3      H1            -25.9209849752       22.4927106768       11.3125828508  SOLV      5514            0.0000000000
     16662      5525  TIP3      H2            -24.6827449752       22.6380406768       10.4537928508  SOLV      5514            0.0000000000
     16663      5526  TIP3      OH2           -20.1039449752       21.2295506768       11.1697128508  SOLV      5515            0.0000000000
     16664      5526  TIP3      H1            -19.5001849752       21.7770906768       10.6678128508  SOLV      5515            0.0000000000
     16665      5526  TIP3      H2            -20.9737449752       21.5485906768       10.9291228508  SOLV      5515            0.0000000000
     16666      5527  TIP3      OH2           -18.3769049752       22.3684206768        9.5028028508  SOLV      5516            0.0000000000
     16667      5527  TIP3      H1            -17.7651549752       21.8539906768        8.9761628508  SOLV      5516            0.0000000000
     16668      5527  TIP3      H2            -17.9945649752       23.2456306768        9.5262428508  SOLV      5516            0.0000000000
     16669      5528  TIP3      OH2           -22.7838149752       21.7128706768       10.3414728508  SOLV      5517            0.0000000000
     16670      5528  TIP3      H1            -22.7076549752       21.8080306768        9.3920728508  SOLV      5517            0.0000000000
     16671      5528  TIP3      H2            -23.0588949752       20.8051606768       10.4703828508  SOLV      5517            0.0000000000
     16672      5529  TIP3      OH2           -21.4305549752       21.7386506768        6.0339728508  SOLV      5518            0.0000000000
     16673      5529  TIP3      H1            -22.1334449752       22.3535706768        5.8241128508  SOLV      5518            0.0000000000
     16674      5529  TIP3      H2            -21.8754149752       20.9013206768        6.1650628508  SOLV      5518            0.0000000000
     16675      5530  TIP3      OH2           -22.5678049752       20.9533406768       20.1146028508  SOLV      5519            0.0000000000
     16676      5530  TIP3      H1            -22.4910849752       20.5274106768       20.9683728508  SOLV      5519            0.0000000000
     16677      5530  TIP3      H2            -21.6741449752       20.9668106768       19.7719528508  SOLV      5519            0.0000000000
     16678      5531  TIP3      OH2            -4.9856549752       30.9124106768        8.8377428508  SOLV      5520            0.0000000000
     16679      5531  TIP3      H1             -4.8965449752       31.8562306768        8.7054528508  SOLV      5520            0.0000000000
     16680      5531  TIP3      H2             -5.6238949752       30.6370506768        8.1796828508  SOLV      5520            0.0000000000
     16681      5532  TIP3      OH2            -6.0525249752       30.1674806768       12.2565628508  SOLV      5521            0.0000000000
     16682      5532  TIP3      H1             -6.0907749752       29.5211106768       12.9615228508  SOLV      5521            0.0000000000
     16683      5532  TIP3      H2             -6.3748749752       29.7009206768       11.4854328508  SOLV      5521            0.0000000000
     16684      5533  TIP3      OH2           -13.6840249752       29.7816906768       13.8495528508  SOLV      5522            0.0000000000
     16685      5533  TIP3      H1            -13.6428149752       29.1560206768       14.5727928508  SOLV      5522            0.0000000000
     16686      5533  TIP3      H2            -12.9812549752       30.4055506768       14.0315928508  SOLV      5522            0.0000000000
     16687      5534  TIP3      OH2           -16.1506649752       27.8918406768        7.7773428508  SOLV      5523            0.0000000000
     16688      5534  TIP3      H1            -16.5983249752       28.7377106768        7.7589928508  SOLV      5523            0.0000000000
     16689      5534  TIP3      H2            -16.7115449752       27.3122606768        7.2618528508  SOLV      5523            0.0000000000
     16690      5535  TIP3      OH2           -15.4400549752       30.0538006768        9.9031428508  SOLV      5524            0.0000000000
     16691      5535  TIP3      H1            -15.2267049752       29.2839606768       10.4304428508  SOLV      5524            0.0000000000
     16692      5535  TIP3      H2            -14.7022949752       30.1434706768        9.2999028508  SOLV      5524            0.0000000000
     16693      5536  TIP3      OH2             0.9998950248       24.2011506768       13.5232828508  SOLV      5525            0.0000000000
     16694      5536  TIP3      H1              1.0491150248       24.8112706768       14.2591928508  SOLV      5525            0.0000000000
     16695      5536  TIP3      H2              1.4254050248       24.6622406768       12.8003928508  SOLV      5525            0.0000000000
     16696      5537  TIP3      OH2            -4.5223849752       26.9938606768       12.9901428508  SOLV      5526            0.0000000000
     16697      5537  TIP3      H1             -4.3797949752       26.0475606768       13.0103028508  SOLV      5526            0.0000000000
     16698      5537  TIP3      H2             -4.6284849752       27.2008406768       12.0616328508  SOLV      5526            0.0000000000
     16699      5538  TIP3      OH2           -11.3675549752       25.0955006768       10.2626228508  SOLV      5527            0.0000000000
     16700      5538  TIP3      H1            -11.3244449752       25.9553506768        9.8442528508  SOLV      5527            0.0000000000
     16701      5538  TIP3      H2            -11.8251449752       24.5429706768        9.6289428508  SOLV      5527            0.0000000000
     16702      5539  TIP3      OH2            -3.6452849752       25.2260606768        8.6634528508  SOLV      5528            0.0000000000
     16703      5539  TIP3      H1             -2.9988549752       24.8973806768        9.2882128508  SOLV      5528            0.0000000000
     16704      5539  TIP3      H2             -3.1353449752       25.7439606768        8.0405928508  SOLV      5528            0.0000000000
     16705      5540  TIP3      OH2           -14.7474049752       27.4920806768       11.0247628508  SOLV      5529            0.0000000000
     16706      5540  TIP3      H1            -14.0937449752       26.9422506768       11.4567728508  SOLV      5529            0.0000000000
     16707      5540  TIP3      H2            -14.7234749752       27.2179806768       10.1079628508  SOLV      5529            0.0000000000
     16708      5541  TIP3      OH2            -9.5909549752       29.0422106768       10.2399128508  SOLV      5530            0.0000000000
     16709      5541  TIP3      H1             -8.9748549752       28.5157506768       10.7493128508  SOLV      5530            0.0000000000
     16710      5541  TIP3      H2            -10.1770749752       28.4020806768        9.8362728508  SOLV      5530            0.0000000000
     16711      5542  TIP3      OH2             1.3913550248       25.6790706768       15.7592628508  SOLV      5531            0.0000000000
     16712      5542  TIP3      H1              0.7028150248       26.3371406768       15.6639228508  SOLV      5531            0.0000000000
     16713      5542  TIP3      H2              1.4068150248       25.4818606768       16.6958028508  SOLV      5531            0.0000000000
     16714      5543  TIP3      OH2           -12.5573649752       24.0133406768       14.3367028508  SOLV      5532            0.0000000000
     16715      5543  TIP3      H1            -12.7761949752       24.5434006768       13.5703028508  SOLV      5532            0.0000000000
     16716      5543  TIP3      H2            -13.2252749752       24.2398906768       14.9838428508  SOLV      5532            0.0000000000
     16717      5544  TIP3      OH2            -9.9882249752       31.6889106768       14.6240728508  SOLV      5533            0.0000000000
     16718      5544  TIP3      H1            -10.7283149752       32.2870606768       14.7275928508  SOLV      5533            0.0000000000
     16719      5544  TIP3      H2             -9.2742749752       32.2428706768       14.3084328508  SOLV      5533            0.0000000000
     16720      5545  TIP3      OH2            -1.8814449752       24.5169906768       10.6440428508  SOLV      5534            0.0000000000
     16721      5545  TIP3      H1             -2.0966449752       23.7513306768       11.1766428508  SOLV      5534            0.0000000000
     16722      5545  TIP3      H2             -1.2257049752       24.9894506768       11.1568928508  SOLV      5534            0.0000000000
     16723      5546  TIP3      OH2           -12.9636349752       25.9055206768       12.2889228508  SOLV      5535            0.0000000000
     16724      5546  TIP3      H1            -12.3500049752       26.5382806768       12.6621628508  SOLV      5535            0.0000000000
     16725      5546  TIP3      H2            -12.4515649752       25.4330206768       11.6326128508  SOLV      5535            0.0000000000
     16726      5547  TIP3      OH2            -1.5340349752       23.2321206768       14.3233928508  SOLV      5536            0.0000000000
     16727      5547  TIP3      H1             -2.2701149752       23.8428306768       14.2855228508  SOLV      5536            0.0000000000
     16728      5547  TIP3      H2             -0.8506349752       23.6470206768       13.7970328508  SOLV      5536            0.0000000000
     16729      5548  TIP3      OH2            -8.5308949752       21.3188506768       11.7891928508  SOLV      5537            0.0000000000
     16730      5548  TIP3      H1             -8.6484749752       20.3704506768       11.7350228508  SOLV      5537            0.0000000000
     16731      5548  TIP3      H2             -9.3858849752       21.6514606768       12.0623028508  SOLV      5537            0.0000000000
     16732      5549  TIP3      OH2            -6.2644049752       30.1564106768        6.2897728508  SOLV      5538            0.0000000000
     16733      5549  TIP3      H1             -6.9758549752       30.6913806768        5.9378228508  SOLV      5538            0.0000000000
     16734      5549  TIP3      H2             -5.5734449752       30.2116206768        5.6296628508  SOLV      5538            0.0000000000
     16735      5550  TIP3      OH2            -6.2104849752       28.6138406768        3.3282728508  SOLV      5539            0.0000000000
     16736      5550  TIP3      H1             -5.5094949752       28.6365306768        3.9796728508  SOLV      5539            0.0000000000
     16737      5550  TIP3      H2             -5.9081949752       27.9858106768        2.6722028508  SOLV      5539            0.0000000000
     16738      5551  TIP3      OH2             1.1049850248       29.5342606768       14.5832128508  SOLV      5540            0.0000000000
     16739      5551  TIP3      H1              0.4523950248       30.2288206768       14.6723028508  SOLV      5540            0.0000000000
     16740      5551  TIP3      H2              1.5700150248       29.7443506768       13.7733728508  SOLV      5540            0.0000000000
     16741      5552  TIP3      OH2            -2.8586349752       30.3657406768        7.2413628508  SOLV      5541            0.0000000000
     16742      5552  TIP3      H1             -3.5905349752       30.5941106768        7.8144228508  SOLV      5541            0.0000000000
     16743      5552  TIP3      H2             -2.4114149752       29.6520106768        7.6961128508  SOLV      5541            0.0000000000
     16744      5553  TIP3      OH2            -2.9612849752       28.5400006768       16.3090628508  SOLV      5542            0.0000000000
     16745      5553  TIP3      H1             -2.8813749752       29.3034406768       16.8809128508  SOLV      5542            0.0000000000
     16746      5553  TIP3      H2             -3.5625149752       28.8192406768       15.6185728508  SOLV      5542            0.0000000000
     16747      5554  TIP3      OH2           -11.2132649752       30.9963606768        9.1238628508  SOLV      5543            0.0000000000
     16748      5554  TIP3      H1            -11.5437449752       30.6257006768        8.3055628508  SOLV      5543            0.0000000000
     16749      5554  TIP3      H2            -10.6248549752       30.3257606768        9.4706928508  SOLV      5543            0.0000000000
     16750      5555  TIP3      OH2           -10.8467149752       29.7649206768       12.7573628508  SOLV      5544            0.0000000000
     16751      5555  TIP3      H1            -10.2814649752       29.8863406768       11.9944828508  SOLV      5544            0.0000000000
     16752      5555  TIP3      H2            -10.5278249752       30.4024206768       13.3962128508  SOLV      5544            0.0000000000
     16753      5556  TIP3      OH2            -3.9876849752       29.5280306768        4.9264828508  SOLV      5545            0.0000000000
     16754      5556  TIP3      H1             -3.4081349752       29.6780606768        5.6733728508  SOLV      5545            0.0000000000
     16755      5556  TIP3      H2             -3.5736849752       29.9987706768        4.2031228508  SOLV      5545            0.0000000000
     16756      5557  TIP3      OH2           -13.0466549752       30.3623006768       16.7031228508  SOLV      5546            0.0000000000
     16757      5557  TIP3      H1            -12.9763349752       31.0129806768       17.4016228508  SOLV      5546            0.0000000000
     16758      5557  TIP3      H2            -13.9374349752       30.4650506768       16.3682128508  SOLV      5546            0.0000000000
     16759      5558  TIP3      OH2            -0.2888449752       21.2780706768        4.7394528508  SOLV      5547            0.0000000000
     16760      5558  TIP3      H1             -1.1887749752       21.4169706768        5.0345128508  SOLV      5547            0.0000000000
     16761      5558  TIP3      H2             -0.0370049752       22.1095306768        4.3376228508  SOLV      5547            0.0000000000
     16762      5559  TIP3      OH2           -12.2229949752       30.0657906768        6.7131428508  SOLV      5548            0.0000000000
     16763      5559  TIP3      H1            -12.5148649752       30.8339606768        6.2222728508  SOLV      5548            0.0000000000
     16764      5559  TIP3      H2            -12.8974749752       29.4064106768        6.5502828508  SOLV      5548            0.0000000000
     16765      5560  TIP3      OH2           -16.1299849752       32.4287106768       15.5281228508  SOLV      5549            0.0000000000
     16766      5560  TIP3      H1            -16.6311449752       32.4006506768       14.7130928508  SOLV      5549            0.0000000000
     16767      5560  TIP3      H2            -16.1246149752       31.5230306768       15.8378528508  SOLV      5549            0.0000000000
     16768      5561  TIP3      OH2            -1.0298849752       27.3683106768       18.5747328508  SOLV      5550            0.0000000000
     16769      5561  TIP3      H1             -1.4372049752       27.8488706768       17.8540628508  SOLV      5550            0.0000000000
     16770      5561  TIP3      H2             -0.9893149752       26.4629106768       18.2668128508  SOLV      5550            0.0000000000
     16771      5562  TIP3      OH2           -11.2621349752       22.2223006768       12.5668228508  SOLV      5551            0.0000000000
     16772      5562  TIP3      H1            -12.1237649752       22.1351206768       12.1591128508  SOLV      5551            0.0000000000
     16773      5562  TIP3      H2            -11.2845649752       23.0783106768       12.9945828508  SOLV      5551            0.0000000000
     16774      5563  TIP3      OH2            -6.5993549752       21.9443406768       15.9415228508  SOLV      5552            0.0000000000
     16775      5563  TIP3      H1             -6.1790449752       21.5290506768       16.6945828508  SOLV      5552            0.0000000000
     16776      5563  TIP3      H2             -7.5323949752       21.7656706768       16.0587228508  SOLV      5552            0.0000000000
     16777      5564  TIP3      OH2            -3.2728649752       25.6998606768       16.7949728508  SOLV      5553            0.0000000000
     16778      5564  TIP3      H1             -3.7869149752       25.5740806768       17.5925728508  SOLV      5553            0.0000000000
     16779      5564  TIP3      H2             -3.4283949752       26.6121706768       16.5505928508  SOLV      5553            0.0000000000
     16780      5565  TIP3      OH2            -2.5103749752       30.5608606768        2.5562728508  SOLV      5554            0.0000000000
     16781      5565  TIP3      H1             -2.4682949752       30.3382506768        1.6262728508  SOLV      5554            0.0000000000
     16782      5565  TIP3      H2             -1.6611649752       30.9595706768        2.7462628508  SOLV      5554            0.0000000000
     16783      5566  TIP3      OH2            -6.9376249752       24.4366806768        3.2266028508  SOLV      5555            0.0000000000
     16784      5566  TIP3      H1             -7.1911449752       24.4558406768        4.1494128508  SOLV      5555            0.0000000000
     16785      5566  TIP3      H2             -7.1944149752       23.5652206768        2.9252228508  SOLV      5555            0.0000000000
     16786      5567  TIP3      OH2           -11.1711249752       27.1877506768       13.6618428508  SOLV      5556            0.0000000000
     16787      5567  TIP3      H1            -11.8129149752       27.1474806768       14.3708528508  SOLV      5556            0.0000000000
     16788      5567  TIP3      H2            -11.1339249752       28.1142206768       13.4241428508  SOLV      5556            0.0000000000
     16789      5568  TIP3      OH2           -11.1742149752       27.4087606768        8.5738428508  SOLV      5557            0.0000000000
     16790      5568  TIP3      H1            -12.0669249752       27.0683706768        8.5152228508  SOLV      5557            0.0000000000
     16791      5568  TIP3      H2            -10.7235549752       27.0318506768        7.8181628508  SOLV      5557            0.0000000000
     16792      5569  TIP3      OH2            -5.6386649752       27.8247906768        7.3909228508  SOLV      5558            0.0000000000
     16793      5569  TIP3      H1             -6.0476349752       28.6396506768        7.0994028508  SOLV      5558            0.0000000000
     16794      5569  TIP3      H2             -4.9180449752       27.6848006768        6.7766328508  SOLV      5558            0.0000000000
     16795      5570  TIP3      OH2            -6.5365049752       28.0004306768       18.8789928508  SOLV      5559            0.0000000000
     16796      5570  TIP3      H1             -7.0991249752       27.2955906768       19.1997728508  SOLV      5559            0.0000000000
     16797      5570  TIP3      H2             -5.7101649752       27.8796206768       19.3467528508  SOLV      5559            0.0000000000
     16798      5571  TIP3      OH2            -4.6338949752       27.2708306768       10.2048928508  SOLV      5560            0.0000000000
     16799      5571  TIP3      H1             -4.8294449752       27.8765106768        9.4899528508  SOLV      5560            0.0000000000
     16800      5571  TIP3      H2             -4.4526349752       26.4373506768        9.7705228508  SOLV      5560            0.0000000000
     16801      5572  TIP3      OH2           -13.4210749752       27.5081006768       15.5290428508  SOLV      5561            0.0000000000
     16802      5572  TIP3      H1            -13.4591349752       27.9082606768       16.3977528508  SOLV      5561            0.0000000000
     16803      5572  TIP3      H2            -13.9119649752       26.6913406768       15.6193328508  SOLV      5561            0.0000000000
     16804      5573  TIP3      OH2           -10.0553349752       24.8823306768        2.3276428508  SOLV      5562            0.0000000000
     16805      5573  TIP3      H1            -10.4862649752       24.4373406768        3.0573828508  SOLV      5562            0.0000000000
     16806      5573  TIP3      H2            -10.7734649752       25.2539606768        1.8153928508  SOLV      5562            0.0000000000
     16807      5574  TIP3      OH2           -16.8129949752       24.6242806768        9.3795128508  SOLV      5563            0.0000000000
     16808      5574  TIP3      H1            -16.1822249752       24.5954906768       10.0989028508  SOLV      5563            0.0000000000
     16809      5574  TIP3      H2            -16.3635649752       24.1991506768        8.6491028508  SOLV      5563            0.0000000000
     16810      5575  TIP3      OH2           -15.5387849752       25.3704806768        4.8035528508  SOLV      5564            0.0000000000
     16811      5575  TIP3      H1            -15.0646149752       25.9614706768        4.2186428508  SOLV      5564            0.0000000000
     16812      5575  TIP3      H2            -16.2561449752       25.9007706768        5.1505628508  SOLV      5564            0.0000000000
     16813      5576  TIP3      OH2            -5.3699749752       28.9089606768       14.8761328508  SOLV      5565            0.0000000000
     16814      5576  TIP3      H1             -5.0464949752       28.2779306768       14.2331828508  SOLV      5565            0.0000000000
     16815      5576  TIP3      H2             -5.8100449752       28.3741806768       15.5368728508  SOLV      5565            0.0000000000
     16816      5577  TIP3      OH2            -8.5926849752       24.8365106768        9.6602528508  SOLV      5566            0.0000000000
     16817      5577  TIP3      H1             -9.5035749752       24.8931906768        9.9488528508  SOLV      5566            0.0000000000
     16818      5577  TIP3      H2             -8.0873949752       24.7760606768       10.4709728508  SOLV      5566            0.0000000000
     16819      5578  TIP3      OH2           -13.7643449752       26.4651406768        8.4870128508  SOLV      5567            0.0000000000
     16820      5578  TIP3      H1            -14.6535449752       26.5646906768        8.1469728508  SOLV      5567            0.0000000000
     16821      5578  TIP3      H2            -13.4678549752       25.6234406768        8.1408028508  SOLV      5567            0.0000000000
     16822      5579  TIP3      OH2           -10.1111649752       26.4654006768        6.1434728508  SOLV      5568            0.0000000000
     16823      5579  TIP3      H1             -9.1796149752       26.5944006768        6.3217828508  SOLV      5568            0.0000000000
     16824      5579  TIP3      H2            -10.3261349752       27.1348306768        5.4939428508  SOLV      5568            0.0000000000
     16825      5580  TIP3      OH2            -4.1874949752       24.0711406768       12.9244328508  SOLV      5569            0.0000000000
     16826      5580  TIP3      H1             -4.8643349752       24.2024506768       13.5884028508  SOLV      5569            0.0000000000
     16827      5580  TIP3      H2             -4.6730049752       23.9160906768       12.1142028508  SOLV      5569            0.0000000000
     16828      5581  TIP3      OH2           -11.4371449752       27.6596206768        3.7100828508  SOLV      5570            0.0000000000
     16829      5581  TIP3      H1            -11.9796349752       27.2800006768        3.0188428508  SOLV      5570            0.0000000000
     16830      5581  TIP3      H2            -10.6036549752       27.8540906768        3.2814928508  SOLV      5570            0.0000000000
     16831      5582  TIP3      OH2            -7.2727149752       27.6238106768       11.5472128508  SOLV      5571            0.0000000000
     16832      5582  TIP3      H1             -6.7083749752       27.0774706768       11.0001728508  SOLV      5571            0.0000000000
     16833      5582  TIP3      H2             -7.4203749752       27.1020006768       12.3359728508  SOLV      5571            0.0000000000
     16834      5583  TIP3      OH2           -12.2707449752       23.7604206768        7.9656928508  SOLV      5572            0.0000000000
     16835      5583  TIP3      H1            -12.5877949752       22.8579506768        7.9302328508  SOLV      5572            0.0000000000
     16836      5583  TIP3      H2            -11.4893349752       23.7621606768        7.4128528508  SOLV      5572            0.0000000000
     16837      5584  TIP3      OH2            -8.6461249752       26.0124206768       13.9612528508  SOLV      5573            0.0000000000
     16838      5584  TIP3      H1             -9.4815949752       26.4663706768       14.0714928508  SOLV      5573            0.0000000000
     16839      5584  TIP3      H2             -8.1220649752       26.2882706768       14.7132428508  SOLV      5573            0.0000000000
     16840      5585  TIP3      OH2            -8.1018649752       32.2251906768        5.6458928508  SOLV      5574            0.0000000000
     16841      5585  TIP3      H1             -8.8467649752       31.7177206768        5.3236828508  SOLV      5574            0.0000000000
     16842      5585  TIP3      H2             -8.2361449752       32.2739906768        6.5923728508  SOLV      5574            0.0000000000
     16843      5586  TIP3      OH2            -0.9519749752       31.3580106768       14.4326528508  SOLV      5575            0.0000000000
     16844      5586  TIP3      H1             -0.3100949752       31.8146406768       13.8888728508  SOLV      5575            0.0000000000
     16845      5586  TIP3      H2             -1.7822849752       31.4712506768       13.9700628508  SOLV      5575            0.0000000000
     16846      5587  TIP3      OH2            -4.2041849752       25.0391806768        3.8451528508  SOLV      5576            0.0000000000
     16847      5587  TIP3      H1             -5.1427649752       25.1507406768        3.6940328508  SOLV      5576            0.0000000000
     16848      5587  TIP3      H2             -3.9069749752       25.8958706768        4.1517228508  SOLV      5576            0.0000000000
     16849      5588  TIP3      OH2            -3.4858349752       26.9064506768        5.5058928508  SOLV      5577            0.0000000000
     16850      5588  TIP3      H1             -2.5939349752       26.7689506768        5.8250128508  SOLV      5577            0.0000000000
     16851      5588  TIP3      H2             -3.4294749752       27.6970606768        4.9692428508  SOLV      5577            0.0000000000
     16852      5589  TIP3      OH2           -12.9770349752       31.5201906768       11.4156828508  SOLV      5578            0.0000000000
     16853      5589  TIP3      H1            -12.2323149752       31.5177606768       10.8143328508  SOLV      5578            0.0000000000
     16854      5589  TIP3      H2            -12.8993749752       30.6965706768       11.8971928508  SOLV      5578            0.0000000000
     16855      5590  TIP3      OH2           -15.9690649752       29.9808806768       16.7305328508  SOLV      5579            0.0000000000
     16856      5590  TIP3      H1            -15.7462049752       29.5628406768       17.5622828508  SOLV      5579            0.0000000000
     16857      5590  TIP3      H2            -16.5710549752       29.3683806768       16.3078128508  SOLV      5579            0.0000000000
     16858      5591  TIP3      OH2            -8.9525749752       29.4978706768       18.9435028508  SOLV      5580            0.0000000000
     16859      5591  TIP3      H1             -9.2484949752       29.3321706768       18.0484128508  SOLV      5580            0.0000000000
     16860      5591  TIP3      H2             -8.0210549752       29.2779006768       18.9328928508  SOLV      5580            0.0000000000
     16861      5592  TIP3      OH2             1.3990350248       27.1158606768        5.2005628508  SOLV      5581            0.0000000000
     16862      5592  TIP3      H1              0.8446650248       26.7196606768        4.5283128508  SOLV      5581            0.0000000000
     16863      5592  TIP3      H2              1.4993950248       28.0263806768        4.9228928508  SOLV      5581            0.0000000000
     16864      5593  TIP3      OH2            -3.1454049752       30.7098506768       12.6869628508  SOLV      5582            0.0000000000
     16865      5593  TIP3      H1             -4.0737149752       30.4780406768       12.6598928508  SOLV      5582            0.0000000000
     16866      5593  TIP3      H2             -2.6942949752       29.9328306768       12.3568428508  SOLV      5582            0.0000000000
     16867      5594  TIP3      OH2           -14.8473249752       29.9004206768        3.4070728508  SOLV      5583            0.0000000000
     16868      5594  TIP3      H1            -14.2313349752       30.5271406768        3.7865528508  SOLV      5583            0.0000000000
     16869      5594  TIP3      H2            -15.7090649752       30.2164006768        3.6787228508  SOLV      5583            0.0000000000
     16870      5595  TIP3      OH2           -14.3351149752       24.7341506768       16.2886728508  SOLV      5584            0.0000000000
     16871      5595  TIP3      H1            -15.2278849752       25.0726906768       16.2210728508  SOLV      5584            0.0000000000
     16872      5595  TIP3      H2            -14.4338349752       23.8787606768       16.7067528508  SOLV      5584            0.0000000000
     16873      5596  TIP3      OH2            -2.0473049752       32.5506806768        5.7126228508  SOLV      5585            0.0000000000
     16874      5596  TIP3      H1             -2.3245449752       31.8226106768        6.2687328508  SOLV      5585            0.0000000000
     16875      5596  TIP3      H2             -1.1200049752       32.6698806768        5.9178828508  SOLV      5585            0.0000000000
     16876      5597  TIP3      OH2           -13.4322849752       31.8128006768        4.8996328508  SOLV      5586            0.0000000000
     16877      5597  TIP3      H1            -14.1183549752       32.1650506768        5.4666028508  SOLV      5586            0.0000000000
     16878      5597  TIP3      H2            -12.9094949752       32.5757606768        4.6530628508  SOLV      5586            0.0000000000
     16879      5598  TIP3      OH2            -5.6007749752       24.4751806768       15.1785328508  SOLV      5587            0.0000000000
     16880      5598  TIP3      H1             -4.9019849752       24.5490506768       15.8285028508  SOLV      5587            0.0000000000
     16881      5598  TIP3      H2             -5.9816349752       23.6106806768       15.3328228508  SOLV      5587            0.0000000000
     16882      5599  TIP3      OH2            -4.8162849752       24.1273506768        6.2757628508  SOLV      5588            0.0000000000
     16883      5599  TIP3      H1             -4.5964549752       24.5988906768        5.4723028508  SOLV      5588            0.0000000000
     16884      5599  TIP3      H2             -4.2578849752       24.5216106768        6.9458228508  SOLV      5588            0.0000000000
     16885      5600  TIP3      OH2            -7.6162949752       25.8552306768        7.1106028508  SOLV      5589            0.0000000000
     16886      5600  TIP3      H1             -6.8040349752       26.3595506768        7.1567728508  SOLV      5589            0.0000000000
     16887      5600  TIP3      H2             -7.8609949752       25.7102006768        8.0245628508  SOLV      5589            0.0000000000
     16888      5601  TIP3      OH2            -7.0806549752       26.8415006768       16.2952628508  SOLV      5590            0.0000000000
     16889      5601  TIP3      H1             -6.9616249752       27.4150406768       17.0523028508  SOLV      5590            0.0000000000
     16890      5601  TIP3      H2             -6.4251949752       26.1534406768       16.4100428508  SOLV      5590            0.0000000000
     16891      5602  TIP3      OH2            -6.7326249752       22.9365306768        8.0487128508  SOLV      5591            0.0000000000
     16892      5602  TIP3      H1             -7.0792749752       23.5535906768        8.6931428508  SOLV      5591            0.0000000000
     16893      5602  TIP3      H2             -6.0739349752       23.4371006768        7.5672628508  SOLV      5591            0.0000000000
     16894      5603  TIP3      OH2           -11.0749249752       23.9994706768        4.7359628508  SOLV      5592            0.0000000000
     16895      5603  TIP3      H1            -11.1584449752       24.8877806768        5.0826028508  SOLV      5592            0.0000000000
     16896      5603  TIP3      H2            -10.1848949752       23.7341406768        4.9676428508  SOLV      5592            0.0000000000
     16897      5604  TIP3      OH2            -0.8760749752       24.7485306768       17.1302328508  SOLV      5593            0.0000000000
     16898      5604  TIP3      H1             -1.7924949752       25.0107006768       17.0426028508  SOLV      5593            0.0000000000
     16899      5604  TIP3      H2             -0.5405749752       24.7454306768       16.2337628508  SOLV      5593            0.0000000000
     16900      5605  TIP3      OH2            -2.2739749752       28.4986306768       11.2259628508  SOLV      5594            0.0000000000
     16901      5605  TIP3      H1             -3.0715349752       28.0836506768       10.8974628508  SOLV      5594            0.0000000000
     16902      5605  TIP3      H2             -1.8288649752       27.8080006768       11.7170128508  SOLV      5594            0.0000000000
     16903      5606  TIP3      OH2           -14.5004749752       27.0909906768        2.9123528508  SOLV      5595            0.0000000000
     16904      5606  TIP3      H1            -14.5452149752       28.0303006768        3.0910528508  SOLV      5595            0.0000000000
     16905      5606  TIP3      H2            -15.3881549752       26.8554806768        2.6425628508  SOLV      5595            0.0000000000
     16906      5607  TIP3      OH2           -13.6922749752       21.8726506768       11.5854528508  SOLV      5596            0.0000000000
     16907      5607  TIP3      H1            -13.9212949752       21.9319006768       10.6579528508  SOLV      5596            0.0000000000
     16908      5607  TIP3      H2            -14.1349349752       21.0812006768       11.8918628508  SOLV      5596            0.0000000000
     16909      5608  TIP3      OH2           -11.2252549752       32.5797106768        2.1627228508  SOLV      5597            0.0000000000
     16910      5608  TIP3      H1            -11.1608449752       31.7856706768        2.6933628508  SOLV      5597            0.0000000000
     16911      5608  TIP3      H2            -10.5723349752       32.4609906768        1.4729228508  SOLV      5597            0.0000000000
     16912      5609  TIP3      OH2            -8.9110149752       32.2059506768       19.4629028508  SOLV      5598            0.0000000000
     16913      5609  TIP3      H1             -9.2396349752       32.4767606768       18.6056428508  SOLV      5598            0.0000000000
     16914      5609  TIP3      H2             -8.7591949752       31.2649306768       19.3754028508  SOLV      5598            0.0000000000
     16915      5610  TIP3      OH2            -3.1764949752       32.1216806768       16.8461328508  SOLV      5599            0.0000000000
     16916      5610  TIP3      H1             -2.4310149752       32.7100506768       16.7265328508  SOLV      5599            0.0000000000
     16917      5610  TIP3      H2             -3.9338149752       32.7036506768       16.9094428508  SOLV      5599            0.0000000000
     16918      5611  TIP3      OH2           -14.7339749752       29.4364706768       19.4501928508  SOLV      5600            0.0000000000
     16919      5611  TIP3      H1            -14.3258549752       28.5791306768       19.3292528508  SOLV      5600            0.0000000000
     16920      5611  TIP3      H2            -14.9942149752       29.4506006768       20.3712228508  SOLV      5600            0.0000000000
     16921      5612  TIP3      OH2           -10.0758749752       30.5523306768        4.4685228508  SOLV      5601            0.0000000000
     16922      5612  TIP3      H1            -10.5356749752       30.0681606768        5.1543728508  SOLV      5601            0.0000000000
     16923      5612  TIP3      H2             -9.8210049752       29.8838706768        3.8325728508  SOLV      5601            0.0000000000
     16924      5613  TIP3      OH2           -10.7869449752       28.4450406768       16.8244828508  SOLV      5602            0.0000000000
     16925      5613  TIP3      H1            -11.4053349752       29.1197006768       17.1049528508  SOLV      5602            0.0000000000
     16926      5613  TIP3      H2            -10.4428249752       28.7664306768       15.9911028508  SOLV      5602            0.0000000000
     16927      5614  TIP3      OH2            -9.0048349752       28.7955106768        2.7308428508  SOLV      5603            0.0000000000
     16928      5614  TIP3      H1             -9.1853349752       28.6406306768        1.8036728508  SOLV      5603            0.0000000000
     16929      5614  TIP3      H2             -8.0547849752       28.9033806768        2.7756328508  SOLV      5603            0.0000000000
     16930      5615  TIP3      OH2            -5.7671249752       30.9165706768       20.1019628508  SOLV      5604            0.0000000000
     16931      5615  TIP3      H1             -4.8140049752       31.0004806768       20.0745628508  SOLV      5604            0.0000000000
     16932      5615  TIP3      H2             -5.9276649752       30.2047506768       20.7214528508  SOLV      5604            0.0000000000
     16933      5616  TIP3      OH2             0.3849950248       31.1499306768        2.1766528508  SOLV      5605            0.0000000000
     16934      5616  TIP3      H1              0.1114750248       30.7254806768        1.3634828508  SOLV      5605            0.0000000000
     16935      5616  TIP3      H2              0.4244050248       32.0813806768        1.9596928508  SOLV      5605            0.0000000000
     16936      5617  TIP3      OH2           -10.4475749752       25.8001206768       17.9067928508  SOLV      5606            0.0000000000
     16937      5617  TIP3      H1            -10.2974849752       25.0712506768       17.3047628508  SOLV      5606            0.0000000000
     16938      5617  TIP3      H2            -10.4453349752       26.5772906768       17.3480128508  SOLV      5606            0.0000000000
     16939      5618  TIP3      OH2           -10.0350049752       24.1697006768       15.3995328508  SOLV      5607            0.0000000000
     16940      5618  TIP3      H1             -9.4992549752       24.6213706768       14.7474628508  SOLV      5607            0.0000000000
     16941      5618  TIP3      H2            -10.8870449752       24.0616806768       14.9769428508  SOLV      5607            0.0000000000
     16942      5619  TIP3      OH2            -8.4531649752       29.6093206768       15.6390528508  SOLV      5608            0.0000000000
     16943      5619  TIP3      H1             -7.7026849752       29.4530706768       15.0658328508  SOLV      5608            0.0000000000
     16944      5619  TIP3      H2             -8.7923349752       30.4609806768       15.3636028508  SOLV      5608            0.0000000000
     16945      5620  TIP3      OH2            -4.0375449752       27.4245006768       20.6675828508  SOLV      5609            0.0000000000
     16946      5620  TIP3      H1             -3.8454149752       26.4934406768       20.5560328508  SOLV      5609            0.0000000000
     16947      5620  TIP3      H2             -3.1799149752       27.8494506768       20.6571228508  SOLV      5609            0.0000000000
     16948      5621  TIP3      OH2            -2.7208249752       30.2130206768       18.7448528508  SOLV      5610            0.0000000000
     16949      5621  TIP3      H1             -3.0023249752       30.9224806768       18.1672328508  SOLV      5610            0.0000000000
     16950      5621  TIP3      H2             -1.7783949752       30.1403206768       18.5939728508  SOLV      5610            0.0000000000
     16951      5622  TIP3      OH2           -11.9689449752       26.9984706768       19.8183528508  SOLV      5611            0.0000000000
     16952      5622  TIP3      H1            -12.7360449752       26.4659506768       19.6081128508  SOLV      5611            0.0000000000
     16953      5622  TIP3      H2            -11.2900449752       26.6885106768       19.2189828508  SOLV      5611            0.0000000000
     16954      5623  TIP3      OH2            -9.2294549752       21.6262706768       15.8308928508  SOLV      5612            0.0000000000
     16955      5623  TIP3      H1             -9.3274949752       22.5725906768       15.7255128508  SOLV      5612            0.0000000000
     16956      5623  TIP3      H2             -9.9718349752       21.2536506768       15.3552428508  SOLV      5612            0.0000000000
     16957      5624  TIP3      OH2            -7.9654049752       25.9478106768       19.3947328508  SOLV      5613            0.0000000000
     16958      5624  TIP3      H1             -8.2008649752       25.7284806768       20.2962228508  SOLV      5613            0.0000000000
     16959      5624  TIP3      H2             -8.7487149752       25.7409306768       18.8849828508  SOLV      5613            0.0000000000
     16960      5625  TIP3      OH2            -5.2497449752       25.0751606768       18.4700828508  SOLV      5614            0.0000000000
     16961      5625  TIP3      H1             -6.1972049752       25.1071306768       18.6024128508  SOLV      5614            0.0000000000
     16962      5625  TIP3      H2             -4.9370749752       24.4498706768       19.1239028508  SOLV      5614            0.0000000000
     16963      5626  TIP3      OH2            -3.6155949752       23.7092706768       20.4752728508  SOLV      5615            0.0000000000
     16964      5626  TIP3      H1             -3.7124149752       22.7570006768       20.4694628508  SOLV      5615            0.0000000000
     16965      5626  TIP3      H2             -3.9372849752       23.9779506768       21.3358228508  SOLV      5615            0.0000000000
     16966      5627  TIP3      OH2           -13.7886649752       24.9188506768       19.5228228508  SOLV      5616            0.0000000000
     16967      5627  TIP3      H1            -13.5769249752       24.2124606768       18.9125728508  SOLV      5616            0.0000000000
     16968      5627  TIP3      H2            -13.8999149752       24.4814506768       20.3669428508  SOLV      5616            0.0000000000
     16969      5628  TIP3      OH2            -9.0076449752       20.9200106768       18.5021728508  SOLV      5617            0.0000000000
     16970      5628  TIP3      H1             -8.2958049752       20.2802306768       18.4880828508  SOLV      5617            0.0000000000
     16971      5628  TIP3      H2             -9.1086049752       21.1868406768       17.5884828508  SOLV      5617            0.0000000000
     16972      5629  TIP3      OH2            -8.6538949752       22.6028506768       20.5558028508  SOLV      5618            0.0000000000
     16973      5629  TIP3      H1             -8.7856749752       22.1272306768       19.7356528508  SOLV      5618            0.0000000000
     16974      5629  TIP3      H2             -9.2531549752       23.3472106768       20.5005128508  SOLV      5618            0.0000000000
     16975      5630  TIP3      OH2             0.8432750248       32.0187406768        6.1516928508  SOLV      5619            0.0000000000
     16976      5630  TIP3      H1              1.6934150248       32.4398306768        6.2788528508  SOLV      5619            0.0000000000
     16977      5630  TIP3      H2              0.8487850248       31.2787506768        6.7588328508  SOLV      5619            0.0000000000
     16978      5631  TIP3      OH2             1.2378350248       30.0724806768        7.9752628508  SOLV      5620            0.0000000000
     16979      5631  TIP3      H1              0.5112950248       29.5927406768        8.3730228508  SOLV      5620            0.0000000000
     16980      5631  TIP3      H2              1.8191650248       30.2779506768        8.7074228508  SOLV      5620            0.0000000000
     16981      5632  TIP3      OH2             1.5061450248       29.9733306768        4.3663928508  SOLV      5621            0.0000000000
     16982      5632  TIP3      H1              0.9842550248       30.3297406768        3.6474828508  SOLV      5621            0.0000000000
     16983      5632  TIP3      H2              1.4730650248       30.6481106768        5.0444828508  SOLV      5621            0.0000000000
     16984      5633  TIP3      OH2            -0.1449549752       27.2128906768        2.9171028508  SOLV      5622            0.0000000000
     16985      5633  TIP3      H1             -0.0485149752       27.8795906768        2.2370728508  SOLV      5622            0.0000000000
     16986      5633  TIP3      H2             -0.2849949752       26.3975206768        2.4356528508  SOLV      5622            0.0000000000
     16987      5634  TIP3      OH2            -0.9754849752       28.5931306768        8.5381328508  SOLV      5623            0.0000000000
     16988      5634  TIP3      H1             -1.1256049752       27.6479906768        8.5179128508  SOLV      5623            0.0000000000
     16989      5634  TIP3      H2             -1.3290349752       28.8742706768        9.3820428508  SOLV      5623            0.0000000000
     16990      5635  TIP3      OH2           -15.9402449752       30.6713506768       12.5485128508  SOLV      5624            0.0000000000
     16991      5635  TIP3      H1            -15.7559549752       30.5895206768       11.6128028508  SOLV      5624            0.0000000000
     16992      5635  TIP3      H2            -15.0909549752       30.5470506768       12.9721528508  SOLV      5624            0.0000000000
     16993      5636  TIP3      OH2            -0.1191949752       30.5634606768       18.1769628508  SOLV      5625            0.0000000000
     16994      5636  TIP3      H1              0.4635350248       29.8286906768       18.3686828508  SOLV      5625            0.0000000000
     16995      5636  TIP3      H2              0.4447350248       31.3354906768       18.2235428508  SOLV      5625            0.0000000000
     16996      5637  TIP3      OH2             1.3775150248       28.4660406768       18.8615028508  SOLV      5626            0.0000000000
     16997      5637  TIP3      H1              0.5141850248       28.0872506768       18.6959728508  SOLV      5626            0.0000000000
     16998      5637  TIP3      H2              1.9818850248       27.7275206768       18.7870828508  SOLV      5626            0.0000000000
     16999      5638  TIP3      OH2            -0.8975749752       24.6208706768        2.0346528508  SOLV      5627            0.0000000000
     17000      5638  TIP3      H1             -0.2869949752       24.2495506768        2.6714728508  SOLV      5627            0.0000000000
     17001      5638  TIP3      H2             -1.7344249752       24.1995606768        2.2306528508  SOLV      5627            0.0000000000
     17002      5639  TIP3      OH2            -1.2650049752       26.1757106768        7.0006428508  SOLV      5628            0.0000000000
     17003      5639  TIP3      H1             -0.9852949752       25.2687506768        7.1248128508  SOLV      5628            0.0000000000
     17004      5639  TIP3      H2             -0.5058349752       26.6098606768        6.6115628508  SOLV      5628            0.0000000000
     17005      5640  TIP3      OH2            -0.6531749752       26.7574506768       12.4365328508  SOLV      5629            0.0000000000
     17006      5640  TIP3      H1              0.2796250248       26.9694406768       12.4021328508  SOLV      5629            0.0000000000
     17007      5640  TIP3      H2             -0.8884249752       26.8586606768       13.3588328508  SOLV      5629            0.0000000000
     17008      5641  TIP3      OH2            -0.6239849752       27.4939806768       15.2124728508  SOLV      5630            0.0000000000
     17009      5641  TIP3      H1             -1.4668549752       27.7620206768       15.5784528508  SOLV      5630            0.0000000000
     17010      5641  TIP3      H2             -0.1815549752       28.3161706768       15.0015828508  SOLV      5630            0.0000000000
     17011      5642  TIP3      OH2           -16.3427649752       25.9418506768       18.6893928508  SOLV      5631            0.0000000000
     17012      5642  TIP3      H1            -15.4232749752       25.8196806768       18.9257028508  SOLV      5631            0.0000000000
     17013      5642  TIP3      H2            -16.7923149752       25.1918206768       19.0787428508  SOLV      5631            0.0000000000
     17014      5643  TIP3      OH2             1.6591750248       21.4740006768       20.5659728508  SOLV      5632            0.0000000000
     17015      5643  TIP3      H1              2.0088750248       20.8203506768       19.9604428508  SOLV      5632            0.0000000000
     17016      5643  TIP3      H2              1.8061250248       22.3114106768       20.1262328508  SOLV      5632            0.0000000000
     17017      5644  TIP3      OH2            -0.6515249752       23.4386406768        7.0488428508  SOLV      5633            0.0000000000
     17018      5644  TIP3      H1             -0.4690249752       22.9897906768        7.8743428508  SOLV      5633            0.0000000000
     17019      5644  TIP3      H2             -1.2512349752       22.8540806768        6.5853028508  SOLV      5633            0.0000000000
     17020      5645  TIP3      OH2           -15.1215149752       24.2540106768       11.5806828508  SOLV      5634            0.0000000000
     17021      5645  TIP3      H1            -14.6763549752       23.4622606768       11.8826528508  SOLV      5634            0.0000000000
     17022      5645  TIP3      H2            -14.6552149752       24.9705306768       12.0112428508  SOLV      5634            0.0000000000
     17023      5646  TIP3      OH2           -16.8174849752       27.2533106768       12.6497028508  SOLV      5635            0.0000000000
     17024      5646  TIP3      H1            -16.3255049752       27.0323606768       11.8589028508  SOLV      5635            0.0000000000
     17025      5646  TIP3      H2            -16.4553949752       28.0936506768       12.9306528508  SOLV      5635            0.0000000000
     17026      5647  TIP3      OH2             1.1788950248       23.5834606768       18.9151028508  SOLV      5636            0.0000000000
     17027      5647  TIP3      H1              0.2614650248       23.8541706768       18.8794528508  SOLV      5636            0.0000000000
     17028      5647  TIP3      H2              1.3018350248       23.0483006768       18.1310728508  SOLV      5636            0.0000000000
     17029      5648  TIP3      OH2             1.2150950248       23.5064506768        3.5768728508  SOLV      5637            0.0000000000
     17030      5648  TIP3      H1              1.6273550248       22.7850206768        3.1016728508  SOLV      5637            0.0000000000
     17031      5648  TIP3      H2              1.8967450248       24.1759106768        3.6353028508  SOLV      5637            0.0000000000
     17032      5649  TIP3      OH2           -16.5038349752       23.5112206768        6.7039428508  SOLV      5638            0.0000000000
     17033      5649  TIP3      H1            -17.4289949752       23.7198806768        6.5744928508  SOLV      5638            0.0000000000
     17034      5649  TIP3      H2            -16.0498449752       23.9953006768        6.0141728508  SOLV      5638            0.0000000000
     17035      5650  TIP3      OH2           -16.5402949752       22.2491206768       15.0481928508  SOLV      5639            0.0000000000
     17036      5650  TIP3      H1            -17.2052449752       22.0031506768       15.6912828508  SOLV      5639            0.0000000000
     17037      5650  TIP3      H2            -16.9831649752       22.8711606768       14.4709928508  SOLV      5639            0.0000000000
     17038      5651  TIP3      OH2             0.1794850248       21.6730906768       16.7341828508  SOLV      5640            0.0000000000
     17039      5651  TIP3      H1             -0.6331649752       21.9981206768       16.3466528508  SOLV      5640            0.0000000000
     17040      5651  TIP3      H2              0.4123350248       20.9129406768       16.2010928508  SOLV      5640            0.0000000000
     17041      5652  TIP3      OH2            -6.3906649752       23.1221506768       11.0570028508  SOLV      5641            0.0000000000
     17042      5652  TIP3      H1             -7.0649849752       22.4927106768       11.3125828508  SOLV      5641            0.0000000000
     17043      5652  TIP3      H2             -5.8267449752       22.6380406768       10.4537928508  SOLV      5641            0.0000000000
     17044      5653  TIP3      OH2            -1.2479449752       21.2295506768       11.1697128508  SOLV      5642            0.0000000000
     17045      5653  TIP3      H1             -0.6441849752       21.7770906768       10.6678128508  SOLV      5642            0.0000000000
     17046      5653  TIP3      H2             -2.1177449752       21.5485906768       10.9291228508  SOLV      5642            0.0000000000
     17047      5654  TIP3      OH2             0.4790950248       22.3684206768        9.5028028508  SOLV      5643            0.0000000000
     17048      5654  TIP3      H1              1.0908450248       21.8539906768        8.9761628508  SOLV      5643            0.0000000000
     17049      5654  TIP3      H2              0.8614350248       23.2456306768        9.5262428508  SOLV      5643            0.0000000000
     17050      5655  TIP3      OH2           -14.0639149752       21.7561806768        8.8789928508  SOLV      5644            0.0000000000
     17051      5655  TIP3      H1            -14.8409349752       21.5216706768        8.3715828508  SOLV      5644            0.0000000000
     17052      5655  TIP3      H2            -13.5335549752       20.9593906768        8.8877928508  SOLV      5644            0.0000000000
     17053      5656  TIP3      OH2           -15.2275749752       21.5539906768        4.6826028508  SOLV      5645            0.0000000000
     17054      5656  TIP3      H1            -14.7885049752       22.1650406768        4.0909528508  SOLV      5645            0.0000000000
     17055      5656  TIP3      H2            -15.8613349752       22.0924006768        5.1566028508  SOLV      5645            0.0000000000
     17056      5657  TIP3      OH2            -9.4846549752       21.6828906768        8.6923028508  SOLV      5646            0.0000000000
     17057      5657  TIP3      H1             -8.6103149752       22.0713206768        8.6627328508  SOLV      5646            0.0000000000
     17058      5657  TIP3      H2             -9.6205749752       21.4676706768        9.6150228508  SOLV      5646            0.0000000000
     17059      5658  TIP3      OH2            -3.9278149752       21.7128706768       10.3414728508  SOLV      5647            0.0000000000
     17060      5658  TIP3      H1             -3.8516549752       21.8080306768        9.3920728508  SOLV      5647            0.0000000000
     17061      5658  TIP3      H2             -4.2028949752       20.8051606768       10.4703828508  SOLV      5647            0.0000000000
     17062      5659  TIP3      OH2            -2.5745549752       21.7386506768        6.0339728508  SOLV      5648            0.0000000000
     17063      5659  TIP3      H1             -3.2774449752       22.3535706768        5.8241128508  SOLV      5648            0.0000000000
     17064      5659  TIP3      H2             -3.0194149752       20.9013206768        6.1650628508  SOLV      5648            0.0000000000
     17065      5660  TIP3      OH2           -13.3666649752       23.4701406768        3.1250128508  SOLV      5649            0.0000000000
     17066      5660  TIP3      H1            -12.8753249752       22.8403806768        2.5975628508  SOLV      5649            0.0000000000
     17067      5660  TIP3      H2            -12.7430349752       23.7660806768        3.7881328508  SOLV      5649            0.0000000000
     17068      5661  TIP3      OH2            -8.3406549752       23.7632906768        5.5820628508  SOLV      5650            0.0000000000
     17069      5661  TIP3      H1             -8.1625249752       23.1166106768        6.2649228508  SOLV      5650            0.0000000000
     17070      5661  TIP3      H2             -8.3940349752       24.5970606768        6.0491728508  SOLV      5650            0.0000000000
     17071      5662  TIP3      OH2           -14.1061149752       22.2703706768       18.3966128508  SOLV      5651            0.0000000000
     17072      5662  TIP3      H1            -14.4722949752       21.5046306768       18.8390828508  SOLV      5651            0.0000000000
     17073      5662  TIP3      H2            -13.1932649752       22.2993906768       18.6831228508  SOLV      5651            0.0000000000
     17074      5663  TIP3      OH2           -12.1330349752       21.6208106768       19.9323228508  SOLV      5652            0.0000000000
     17075      5663  TIP3      H1            -11.2346749752       21.3468306768       19.7476628508  SOLV      5652            0.0000000000
     17076      5663  TIP3      H2            -12.5197249752       20.8784106768       20.3965828508  SOLV      5652            0.0000000000
     17077      5664  TIP3      OH2            -3.7118049752       20.9533406768       20.1146028508  SOLV      5653            0.0000000000
     17078      5664  TIP3      H1             -3.6350849752       20.5274106768       20.9683728508  SOLV      5653            0.0000000000
     17079      5664  TIP3      H2             -2.8181449752       20.9668106768       19.7719528508  SOLV      5653            0.0000000000
     17080      5665  TIP3      OH2            13.8703450248       30.9124106768        8.8377428508  SOLV      5654            0.0000000000
     17081      5665  TIP3      H1             13.9594550248       31.8562306768        8.7054528508  SOLV      5654            0.0000000000
     17082      5665  TIP3      H2             13.2321050248       30.6370506768        8.1796828508  SOLV      5654            0.0000000000
     17083      5666  TIP3      OH2            12.8034750248       30.1674806768       12.2565628508  SOLV      5655            0.0000000000
     17084      5666  TIP3      H1             12.7652250248       29.5211106768       12.9615228508  SOLV      5655            0.0000000000
     17085      5666  TIP3      H2             12.4811250248       29.7009206768       11.4854328508  SOLV      5655            0.0000000000
     17086      5667  TIP3      OH2             5.1719750248       29.7816906768       13.8495528508  SOLV      5656            0.0000000000
     17087      5667  TIP3      H1              5.2131850248       29.1560206768       14.5727928508  SOLV      5656            0.0000000000
     17088      5667  TIP3      H2              5.8747450248       30.4055506768       14.0315928508  SOLV      5656            0.0000000000
     17089      5668  TIP3      OH2             2.7053350248       27.8918406768        7.7773428508  SOLV      5657            0.0000000000
     17090      5668  TIP3      H1              2.2576750248       28.7377106768        7.7589928508  SOLV      5657            0.0000000000
     17091      5668  TIP3      H2              2.1444550248       27.3122606768        7.2618528508  SOLV      5657            0.0000000000
     17092      5669  TIP3      OH2             3.4159450248       30.0538006768        9.9031428508  SOLV      5658            0.0000000000
     17093      5669  TIP3      H1              3.6292950248       29.2839606768       10.4304428508  SOLV      5658            0.0000000000
     17094      5669  TIP3      H2              4.1537050248       30.1434706768        9.2999028508  SOLV      5658            0.0000000000
     17095      5670  TIP3      OH2            11.1929150248       32.5996206768       12.6626628508  SOLV      5659            0.0000000000
     17096      5670  TIP3      H1             11.4967050248       31.9137606768       12.0680728508  SOLV      5659            0.0000000000
     17097      5670  TIP3      H2             11.9143150248       32.7184906768       13.2804628508  SOLV      5659            0.0000000000
     17098      5671  TIP3      OH2            19.8558950248       24.2011506768       13.5232828508  SOLV      5660            0.0000000000
     17099      5671  TIP3      H1             19.9051150248       24.8112706768       14.2591928508  SOLV      5660            0.0000000000
     17100      5671  TIP3      H2             20.2814050248       24.6622406768       12.8003928508  SOLV      5660            0.0000000000
     17101      5672  TIP3      OH2            14.3336150248       26.9938606768       12.9901428508  SOLV      5661            0.0000000000
     17102      5672  TIP3      H1             14.4762050248       26.0475606768       13.0103028508  SOLV      5661            0.0000000000
     17103      5672  TIP3      H2             14.2275150248       27.2008406768       12.0616328508  SOLV      5661            0.0000000000
     17104      5673  TIP3      OH2             7.4884450248       25.0955006768       10.2626228508  SOLV      5662            0.0000000000
     17105      5673  TIP3      H1              7.5315550248       25.9553506768        9.8442528508  SOLV      5662            0.0000000000
     17106      5673  TIP3      H2              7.0308550248       24.5429706768        9.6289428508  SOLV      5662            0.0000000000
     17107      5674  TIP3      OH2            15.2107150248       25.2260606768        8.6634528508  SOLV      5663            0.0000000000
     17108      5674  TIP3      H1             15.8571450248       24.8973806768        9.2882128508  SOLV      5663            0.0000000000
     17109      5674  TIP3      H2             15.7206550248       25.7439606768        8.0405928508  SOLV      5663            0.0000000000
     17110      5675  TIP3      OH2             4.1085950248       27.4920806768       11.0247628508  SOLV      5664            0.0000000000
     17111      5675  TIP3      H1              4.7622550248       26.9422506768       11.4567728508  SOLV      5664            0.0000000000
     17112      5675  TIP3      H2              4.1325250248       27.2179806768       10.1079628508  SOLV      5664            0.0000000000
     17113      5676  TIP3      OH2             9.2650450248       29.0422106768       10.2399128508  SOLV      5665            0.0000000000
     17114      5676  TIP3      H1              9.8811450248       28.5157506768       10.7493128508  SOLV      5665            0.0000000000
     17115      5676  TIP3      H2              8.6789250248       28.4020806768        9.8362728508  SOLV      5665            0.0000000000
     17116      5677  TIP3      OH2            20.2473550248       25.6790706768       15.7592628508  SOLV      5666            0.0000000000
     17117      5677  TIP3      H1             19.5588150248       26.3371406768       15.6639228508  SOLV      5666            0.0000000000
     17118      5677  TIP3      H2             20.2628150248       25.4818606768       16.6958028508  SOLV      5666            0.0000000000
     17119      5678  TIP3      OH2             6.2986350248       24.0133406768       14.3367028508  SOLV      5667            0.0000000000
     17120      5678  TIP3      H1              6.0798050248       24.5434006768       13.5703028508  SOLV      5667            0.0000000000
     17121      5678  TIP3      H2              5.6307250248       24.2398906768       14.9838428508  SOLV      5667            0.0000000000
     17122      5679  TIP3      OH2             8.8677750248       31.6889106768       14.6240728508  SOLV      5668            0.0000000000
     17123      5679  TIP3      H1              8.1276850248       32.2870606768       14.7275928508  SOLV      5668            0.0000000000
     17124      5679  TIP3      H2              9.5817250248       32.2428706768       14.3084328508  SOLV      5668            0.0000000000
     17125      5680  TIP3      OH2            16.9745550248       24.5169906768       10.6440428508  SOLV      5669            0.0000000000
     17126      5680  TIP3      H1             16.7593550248       23.7513306768       11.1766428508  SOLV      5669            0.0000000000
     17127      5680  TIP3      H2             17.6302950248       24.9894506768       11.1568928508  SOLV      5669            0.0000000000
     17128      5681  TIP3      OH2             5.8923650248       25.9055206768       12.2889228508  SOLV      5670            0.0000000000
     17129      5681  TIP3      H1              6.5059950248       26.5382806768       12.6621628508  SOLV      5670            0.0000000000
     17130      5681  TIP3      H2              6.4044350248       25.4330206768       11.6326128508  SOLV      5670            0.0000000000
     17131      5682  TIP3      OH2            17.3219650248       23.2321206768       14.3233928508  SOLV      5671            0.0000000000
     17132      5682  TIP3      H1             16.5858850248       23.8428306768       14.2855228508  SOLV      5671            0.0000000000
     17133      5682  TIP3      H2             18.0053650248       23.6470206768       13.7970328508  SOLV      5671            0.0000000000
     17134      5683  TIP3      OH2            10.3251050248       21.3188506768       11.7891928508  SOLV      5672            0.0000000000
     17135      5683  TIP3      H1             10.2075250248       20.3704506768       11.7350228508  SOLV      5672            0.0000000000
     17136      5683  TIP3      H2              9.4701150248       21.6514606768       12.0623028508  SOLV      5672            0.0000000000
     17137      5684  TIP3      OH2            12.5915950248       30.1564106768        6.2897728508  SOLV      5673            0.0000000000
     17138      5684  TIP3      H1             11.8801450248       30.6913806768        5.9378228508  SOLV      5673            0.0000000000
     17139      5684  TIP3      H2             13.2825550248       30.2116206768        5.6296628508  SOLV      5673            0.0000000000
     17140      5685  TIP3      OH2            12.6455150248       28.6138406768        3.3282728508  SOLV      5674            0.0000000000
     17141      5685  TIP3      H1             13.3465050248       28.6365306768        3.9796728508  SOLV      5674            0.0000000000
     17142      5685  TIP3      H2             12.9478050248       27.9858106768        2.6722028508  SOLV      5674            0.0000000000
     17143      5686  TIP3      OH2            19.9609850248       29.5342606768       14.5832128508  SOLV      5675            0.0000000000
     17144      5686  TIP3      H1             19.3083950248       30.2288206768       14.6723028508  SOLV      5675            0.0000000000
     17145      5686  TIP3      H2             20.4260150248       29.7443506768       13.7733728508  SOLV      5675            0.0000000000
     17146      5687  TIP3      OH2            15.9973650248       30.3657406768        7.2413628508  SOLV      5676            0.0000000000
     17147      5687  TIP3      H1             15.2654650248       30.5941106768        7.8144228508  SOLV      5676            0.0000000000
     17148      5687  TIP3      H2             16.4445850248       29.6520106768        7.6961128508  SOLV      5676            0.0000000000
     17149      5688  TIP3      OH2            15.8947150248       28.5400006768       16.3090628508  SOLV      5677            0.0000000000
     17150      5688  TIP3      H1             15.9746250248       29.3034406768       16.8809128508  SOLV      5677            0.0000000000
     17151      5688  TIP3      H2             15.2934850248       28.8192406768       15.6185728508  SOLV      5677            0.0000000000
     17152      5689  TIP3      OH2             7.6427350248       30.9963606768        9.1238628508  SOLV      5678            0.0000000000
     17153      5689  TIP3      H1              7.3122550248       30.6257006768        8.3055628508  SOLV      5678            0.0000000000
     17154      5689  TIP3      H2              8.2311450248       30.3257606768        9.4706928508  SOLV      5678            0.0000000000
     17155      5690  TIP3      OH2             8.0092850248       29.7649206768       12.7573628508  SOLV      5679            0.0000000000
     17156      5690  TIP3      H1              8.5745350248       29.8863406768       11.9944828508  SOLV      5679            0.0000000000
     17157      5690  TIP3      H2              8.3281750248       30.4024206768       13.3962128508  SOLV      5679            0.0000000000
     17158      5691  TIP3      OH2            14.8683150248       29.5280306768        4.9264828508  SOLV      5680            0.0000000000
     17159      5691  TIP3      H1             15.4478650248       29.6780606768        5.6733728508  SOLV      5680            0.0000000000
     17160      5691  TIP3      H2             15.2823150248       29.9987706768        4.2031228508  SOLV      5680            0.0000000000
     17161      5692  TIP3      OH2             5.8093450248       30.3623006768       16.7031228508  SOLV      5681            0.0000000000
     17162      5692  TIP3      H1              5.8796650248       31.0129806768       17.4016228508  SOLV      5681            0.0000000000
     17163      5692  TIP3      H2              4.9185650248       30.4650506768       16.3682128508  SOLV      5681            0.0000000000
     17164      5693  TIP3      OH2            18.5671550248       21.2780706768        4.7394528508  SOLV      5682            0.0000000000
     17165      5693  TIP3      H1             17.6672250248       21.4169706768        5.0345128508  SOLV      5682            0.0000000000
     17166      5693  TIP3      H2             18.8189950248       22.1095306768        4.3376228508  SOLV      5682            0.0000000000
     17167      5694  TIP3      OH2             6.6330050248       30.0657906768        6.7131428508  SOLV      5683            0.0000000000
     17168      5694  TIP3      H1              6.3411350248       30.8339606768        6.2222728508  SOLV      5683            0.0000000000
     17169      5694  TIP3      H2              5.9585250248       29.4064106768        6.5502828508  SOLV      5683            0.0000000000
     17170      5695  TIP3      OH2             2.7260150248       32.4287106768       15.5281228508  SOLV      5684            0.0000000000
     17171      5695  TIP3      H1              2.2248550248       32.4006506768       14.7130928508  SOLV      5684            0.0000000000
     17172      5695  TIP3      H2              2.7313850248       31.5230306768       15.8378528508  SOLV      5684            0.0000000000
     17173      5696  TIP3      OH2            17.8261150248       27.3683106768       18.5747328508  SOLV      5685            0.0000000000
     17174      5696  TIP3      H1             17.4187950248       27.8488706768       17.8540628508  SOLV      5685            0.0000000000
     17175      5696  TIP3      H2             17.8666850248       26.4629106768       18.2668128508  SOLV      5685            0.0000000000
     17176      5697  TIP3      OH2             7.5938650248       22.2223006768       12.5668228508  SOLV      5686            0.0000000000
     17177      5697  TIP3      H1              6.7322350248       22.1351206768       12.1591128508  SOLV      5686            0.0000000000
     17178      5697  TIP3      H2              7.5714350248       23.0783106768       12.9945828508  SOLV      5686            0.0000000000
     17179      5698  TIP3      OH2            12.2566450248       21.9443406768       15.9415228508  SOLV      5687            0.0000000000
     17180      5698  TIP3      H1             12.6769550248       21.5290506768       16.6945828508  SOLV      5687            0.0000000000
     17181      5698  TIP3      H2             11.3236050248       21.7656706768       16.0587228508  SOLV      5687            0.0000000000
     17182      5699  TIP3      OH2            15.5831350248       25.6998606768       16.7949728508  SOLV      5688            0.0000000000
     17183      5699  TIP3      H1             15.0690850248       25.5740806768       17.5925728508  SOLV      5688            0.0000000000
     17184      5699  TIP3      H2             15.4276050248       26.6121706768       16.5505928508  SOLV      5688            0.0000000000
     17185      5700  TIP3      OH2            16.3456250248       30.5608606768        2.5562728508  SOLV      5689            0.0000000000
     17186      5700  TIP3      H1             16.3877050248       30.3382506768        1.6262728508  SOLV      5689            0.0000000000
     17187      5700  TIP3      H2             17.1948350248       30.9595706768        2.7462628508  SOLV      5689            0.0000000000
     17188      5701  TIP3      OH2            11.9183750248       24.4366806768        3.2266028508  SOLV      5690            0.0000000000
     17189      5701  TIP3      H1             11.6648550248       24.4558406768        4.1494128508  SOLV      5690            0.0000000000
     17190      5701  TIP3      H2             11.6615850248       23.5652206768        2.9252228508  SOLV      5690            0.0000000000
     17191      5702  TIP3      OH2             7.6848750248       27.1877506768       13.6618428508  SOLV      5691            0.0000000000
     17192      5702  TIP3      H1              7.0430850248       27.1474806768       14.3708528508  SOLV      5691            0.0000000000
     17193      5702  TIP3      H2              7.7220750248       28.1142206768       13.4241428508  SOLV      5691            0.0000000000
     17194      5703  TIP3      OH2             7.6817850248       27.4087606768        8.5738428508  SOLV      5692            0.0000000000
     17195      5703  TIP3      H1              6.7890750248       27.0683706768        8.5152228508  SOLV      5692            0.0000000000
     17196      5703  TIP3      H2              8.1324450248       27.0318506768        7.8181628508  SOLV      5692            0.0000000000
     17197      5704  TIP3      OH2            13.2173350248       27.8247906768        7.3909228508  SOLV      5693            0.0000000000
     17198      5704  TIP3      H1             12.8083650248       28.6396506768        7.0994028508  SOLV      5693            0.0000000000
     17199      5704  TIP3      H2             13.9379550248       27.6848006768        6.7766328508  SOLV      5693            0.0000000000
     17200      5705  TIP3      OH2            12.3194950248       28.0004306768       18.8789928508  SOLV      5694            0.0000000000
     17201      5705  TIP3      H1             11.7568750248       27.2955906768       19.1997728508  SOLV      5694            0.0000000000
     17202      5705  TIP3      H2             13.1458350248       27.8796206768       19.3467528508  SOLV      5694            0.0000000000
     17203      5706  TIP3      OH2            14.2221050248       27.2708306768       10.2048928508  SOLV      5695            0.0000000000
     17204      5706  TIP3      H1             14.0265550248       27.8765106768        9.4899528508  SOLV      5695            0.0000000000
     17205      5706  TIP3      H2             14.4033650248       26.4373506768        9.7705228508  SOLV      5695            0.0000000000
     17206      5707  TIP3      OH2             5.4349250248       27.5081006768       15.5290428508  SOLV      5696            0.0000000000
     17207      5707  TIP3      H1              5.3968650248       27.9082606768       16.3977528508  SOLV      5696            0.0000000000
     17208      5707  TIP3      H2              4.9440350248       26.6913406768       15.6193328508  SOLV      5696            0.0000000000
     17209      5708  TIP3      OH2             8.8006650248       24.8823306768        2.3276428508  SOLV      5697            0.0000000000
     17210      5708  TIP3      H1              8.3697350248       24.4373406768        3.0573828508  SOLV      5697            0.0000000000
     17211      5708  TIP3      H2              8.0825350248       25.2539606768        1.8153928508  SOLV      5697            0.0000000000
     17212      5709  TIP3      OH2             2.0430050248       24.6242806768        9.3795128508  SOLV      5698            0.0000000000
     17213      5709  TIP3      H1              2.6737750248       24.5954906768       10.0989028508  SOLV      5698            0.0000000000
     17214      5709  TIP3      H2              2.4924350248       24.1991506768        8.6491028508  SOLV      5698            0.0000000000
     17215      5710  TIP3      OH2             3.3172150248       25.3704806768        4.8035528508  SOLV      5699            0.0000000000
     17216      5710  TIP3      H1              3.7913850248       25.9614706768        4.2186428508  SOLV      5699            0.0000000000
     17217      5710  TIP3      H2              2.5998550248       25.9007706768        5.1505628508  SOLV      5699            0.0000000000
     17218      5711  TIP3      OH2            13.4860250248       28.9089606768       14.8761328508  SOLV      5700            0.0000000000
     17219      5711  TIP3      H1             13.8095050248       28.2779306768       14.2331828508  SOLV      5700            0.0000000000
     17220      5711  TIP3      H2             13.0459550248       28.3741806768       15.5368728508  SOLV      5700            0.0000000000
     17221      5712  TIP3      OH2            10.2633150248       24.8365106768        9.6602528508  SOLV      5701            0.0000000000
     17222      5712  TIP3      H1              9.3524250248       24.8931906768        9.9488528508  SOLV      5701            0.0000000000
     17223      5712  TIP3      H2             10.7686050248       24.7760606768       10.4709728508  SOLV      5701            0.0000000000
     17224      5713  TIP3      OH2             5.0916550248       26.4651406768        8.4870128508  SOLV      5702            0.0000000000
     17225      5713  TIP3      H1              4.2024550248       26.5646906768        8.1469728508  SOLV      5702            0.0000000000
     17226      5713  TIP3      H2              5.3881450248       25.6234406768        8.1408028508  SOLV      5702            0.0000000000
     17227      5714  TIP3      OH2             8.7448350248       26.4654006768        6.1434728508  SOLV      5703            0.0000000000
     17228      5714  TIP3      H1              9.6763850248       26.5944006768        6.3217828508  SOLV      5703            0.0000000000
     17229      5714  TIP3      H2              8.5298650248       27.1348306768        5.4939428508  SOLV      5703            0.0000000000
     17230      5715  TIP3      OH2            14.6685050248       24.0711406768       12.9244328508  SOLV      5704            0.0000000000
     17231      5715  TIP3      H1             13.9916650248       24.2024506768       13.5884028508  SOLV      5704            0.0000000000
     17232      5715  TIP3      H2             14.1829950248       23.9160906768       12.1142028508  SOLV      5704            0.0000000000
     17233      5716  TIP3      OH2             7.4188550248       27.6596206768        3.7100828508  SOLV      5705            0.0000000000
     17234      5716  TIP3      H1              6.8763650248       27.2800006768        3.0188428508  SOLV      5705            0.0000000000
     17235      5716  TIP3      H2              8.2523450248       27.8540906768        3.2814928508  SOLV      5705            0.0000000000
     17236      5717  TIP3      OH2             5.5539950248       32.2168106768       18.8092428508  SOLV      5706            0.0000000000
     17237      5717  TIP3      H1              6.2862350248       32.4714006768       19.3706928508  SOLV      5706            0.0000000000
     17238      5717  TIP3      H2              4.7738650248       32.4213506768       19.3247828508  SOLV      5706            0.0000000000
     17239      5718  TIP3      OH2            11.5832850248       27.6238106768       11.5472128508  SOLV      5707            0.0000000000
     17240      5718  TIP3      H1             12.1476250248       27.0774706768       11.0001728508  SOLV      5707            0.0000000000
     17241      5718  TIP3      H2             11.4356250248       27.1020006768       12.3359728508  SOLV      5707            0.0000000000
     17242      5719  TIP3      OH2             6.5852550248       23.7604206768        7.9656928508  SOLV      5708            0.0000000000
     17243      5719  TIP3      H1              6.2682050248       22.8579506768        7.9302328508  SOLV      5708            0.0000000000
     17244      5719  TIP3      H2              7.3666650248       23.7621606768        7.4128528508  SOLV      5708            0.0000000000
     17245      5720  TIP3      OH2            10.2098750248       26.0124206768       13.9612528508  SOLV      5709            0.0000000000
     17246      5720  TIP3      H1              9.3744050248       26.4663706768       14.0714928508  SOLV      5709            0.0000000000
     17247      5720  TIP3      H2             10.7339350248       26.2882706768       14.7132428508  SOLV      5709            0.0000000000
     17248      5721  TIP3      OH2            10.7541350248       32.2251906768        5.6458928508  SOLV      5710            0.0000000000
     17249      5721  TIP3      H1             10.0092350248       31.7177206768        5.3236828508  SOLV      5710            0.0000000000
     17250      5721  TIP3      H2             10.6198550248       32.2739906768        6.5923728508  SOLV      5710            0.0000000000
     17251      5722  TIP3      OH2            17.9040250248       31.3580106768       14.4326528508  SOLV      5711            0.0000000000
     17252      5722  TIP3      H1             18.5459050248       31.8146406768       13.8888728508  SOLV      5711            0.0000000000
     17253      5722  TIP3      H2             17.0737150248       31.4712506768       13.9700628508  SOLV      5711            0.0000000000
     17254      5723  TIP3      OH2            14.6518150248       25.0391806768        3.8451528508  SOLV      5712            0.0000000000
     17255      5723  TIP3      H1             13.7132350248       25.1507406768        3.6940328508  SOLV      5712            0.0000000000
     17256      5723  TIP3      H2             14.9490250248       25.8958706768        4.1517228508  SOLV      5712            0.0000000000
     17257      5724  TIP3      OH2            15.3701650248       26.9064506768        5.5058928508  SOLV      5713            0.0000000000
     17258      5724  TIP3      H1             16.2620650248       26.7689506768        5.8250128508  SOLV      5713            0.0000000000
     17259      5724  TIP3      H2             15.4265250248       27.6970606768        4.9692428508  SOLV      5713            0.0000000000
     17260      5725  TIP3      OH2             5.8789650248       31.5201906768       11.4156828508  SOLV      5714            0.0000000000
     17261      5725  TIP3      H1              6.6236850248       31.5177606768       10.8143328508  SOLV      5714            0.0000000000
     17262      5725  TIP3      H2              5.9566250248       30.6965706768       11.8971928508  SOLV      5714            0.0000000000
     17263      5726  TIP3      OH2             2.8869350248       29.9808806768       16.7305328508  SOLV      5715            0.0000000000
     17264      5726  TIP3      H1              3.1097950248       29.5628406768       17.5622828508  SOLV      5715            0.0000000000
     17265      5726  TIP3      H2              2.2849450248       29.3683806768       16.3078128508  SOLV      5715            0.0000000000
     17266      5727  TIP3      OH2             9.9034250248       29.4978706768       18.9435028508  SOLV      5716            0.0000000000
     17267      5727  TIP3      H1              9.6075050248       29.3321706768       18.0484128508  SOLV      5716            0.0000000000
     17268      5727  TIP3      H2             10.8349450248       29.2779006768       18.9328928508  SOLV      5716            0.0000000000
     17269      5728  TIP3      OH2            20.2550350248       27.1158606768        5.2005628508  SOLV      5717            0.0000000000
     17270      5728  TIP3      H1             19.7006650248       26.7196606768        4.5283128508  SOLV      5717            0.0000000000
     17271      5728  TIP3      H2             20.3553950248       28.0263806768        4.9228928508  SOLV      5717            0.0000000000
     17272      5729  TIP3      OH2            15.7105950248       30.7098506768       12.6869628508  SOLV      5718            0.0000000000
     17273      5729  TIP3      H1             14.7822850248       30.4780406768       12.6598928508  SOLV      5718            0.0000000000
     17274      5729  TIP3      H2             16.1617050248       29.9328306768       12.3568428508  SOLV      5718            0.0000000000
     17275      5730  TIP3      OH2             4.0086750248       29.9004206768        3.4070728508  SOLV      5719            0.0000000000
     17276      5730  TIP3      H1              4.6246650248       30.5271406768        3.7865528508  SOLV      5719            0.0000000000
     17277      5730  TIP3      H2              3.1469350248       30.2164006768        3.6787228508  SOLV      5719            0.0000000000
     17278      5731  TIP3      OH2             4.5208850248       24.7341506768       16.2886728508  SOLV      5720            0.0000000000
     17279      5731  TIP3      H1              3.6281150248       25.0726906768       16.2210728508  SOLV      5720            0.0000000000
     17280      5731  TIP3      H2              4.4221650248       23.8787606768       16.7067528508  SOLV      5720            0.0000000000
     17281      5732  TIP3      OH2            16.8086950248       32.5506806768        5.7126228508  SOLV      5721            0.0000000000
     17282      5732  TIP3      H1             16.5314550248       31.8226106768        6.2687328508  SOLV      5721            0.0000000000
     17283      5732  TIP3      H2             17.7359950248       32.6698806768        5.9178828508  SOLV      5721            0.0000000000
     17284      5733  TIP3      OH2             5.4237150248       31.8128006768        4.8996328508  SOLV      5722            0.0000000000
     17285      5733  TIP3      H1              4.7376450248       32.1650506768        5.4666028508  SOLV      5722            0.0000000000
     17286      5733  TIP3      H2              5.9465050248       32.5757606768        4.6530628508  SOLV      5722            0.0000000000
     17287      5734  TIP3      OH2            13.2552250248       24.4751806768       15.1785328508  SOLV      5723            0.0000000000
     17288      5734  TIP3      H1             13.9540150248       24.5490506768       15.8285028508  SOLV      5723            0.0000000000
     17289      5734  TIP3      H2             12.8743650248       23.6106806768       15.3328228508  SOLV      5723            0.0000000000
     17290      5735  TIP3      OH2            14.0397150248       24.1273506768        6.2757628508  SOLV      5724            0.0000000000
     17291      5735  TIP3      H1             14.2595450248       24.5988906768        5.4723028508  SOLV      5724            0.0000000000
     17292      5735  TIP3      H2             14.5981150248       24.5216106768        6.9458228508  SOLV      5724            0.0000000000
     17293      5736  TIP3      OH2            11.2397050248       25.8552306768        7.1106028508  SOLV      5725            0.0000000000
     17294      5736  TIP3      H1             12.0519650248       26.3595506768        7.1567728508  SOLV      5725            0.0000000000
     17295      5736  TIP3      H2             10.9950050248       25.7102006768        8.0245628508  SOLV      5725            0.0000000000
     17296      5737  TIP3      OH2            11.7753450248       26.8415006768       16.2952628508  SOLV      5726            0.0000000000
     17297      5737  TIP3      H1             11.8943750248       27.4150406768       17.0523028508  SOLV      5726            0.0000000000
     17298      5737  TIP3      H2             12.4308050248       26.1534406768       16.4100428508  SOLV      5726            0.0000000000
     17299      5738  TIP3      OH2            12.1233750248       22.9365306768        8.0487128508  SOLV      5727            0.0000000000
     17300      5738  TIP3      H1             11.7767250248       23.5535906768        8.6931428508  SOLV      5727            0.0000000000
     17301      5738  TIP3      H2             12.7820650248       23.4371006768        7.5672628508  SOLV      5727            0.0000000000
     17302      5739  TIP3      OH2             7.7810750248       23.9994706768        4.7359628508  SOLV      5728            0.0000000000
     17303      5739  TIP3      H1              7.6975550248       24.8877806768        5.0826028508  SOLV      5728            0.0000000000
     17304      5739  TIP3      H2              8.6711050248       23.7341406768        4.9676428508  SOLV      5728            0.0000000000
     17305      5740  TIP3      OH2            17.9799250248       24.7485306768       17.1302328508  SOLV      5729            0.0000000000
     17306      5740  TIP3      H1             17.0635050248       25.0107006768       17.0426028508  SOLV      5729            0.0000000000
     17307      5740  TIP3      H2             18.3154250248       24.7454306768       16.2337628508  SOLV      5729            0.0000000000
     17308      5741  TIP3      OH2            16.5820250248       28.4986306768       11.2259628508  SOLV      5730            0.0000000000
     17309      5741  TIP3      H1             15.7844650248       28.0836506768       10.8974628508  SOLV      5730            0.0000000000
     17310      5741  TIP3      H2             17.0271350248       27.8080006768       11.7170128508  SOLV      5730            0.0000000000
     17311      5742  TIP3      OH2             4.3555250248       27.0909906768        2.9123528508  SOLV      5731            0.0000000000
     17312      5742  TIP3      H1              4.3107850248       28.0303006768        3.0910528508  SOLV      5731            0.0000000000
     17313      5742  TIP3      H2              3.4678450248       26.8554806768        2.6425628508  SOLV      5731            0.0000000000
     17314      5743  TIP3      OH2             5.1637250248       21.8726506768       11.5854528508  SOLV      5732            0.0000000000
     17315      5743  TIP3      H1              4.9347050248       21.9319006768       10.6579528508  SOLV      5732            0.0000000000
     17316      5743  TIP3      H2              4.7210650248       21.0812006768       11.8918628508  SOLV      5732            0.0000000000
     17317      5744  TIP3      OH2             3.2893750248       32.2361406768       20.0302628508  SOLV      5733            0.0000000000
     17318      5744  TIP3      H1              3.4334250248       31.3342106768       19.7439328508  SOLV      5733            0.0000000000
     17319      5744  TIP3      H2              2.5171150248       32.5223506768       19.5424928508  SOLV      5733            0.0000000000
     17320      5745  TIP3      OH2             7.6307450248       32.5797106768        2.1627228508  SOLV      5734            0.0000000000
     17321      5745  TIP3      H1              7.6951550248       31.7856706768        2.6933628508  SOLV      5734            0.0000000000
     17322      5745  TIP3      H2              8.2836650248       32.4609906768        1.4729228508  SOLV      5734            0.0000000000
     17323      5746  TIP3      OH2             9.9449850248       32.2059506768       19.4629028508  SOLV      5735            0.0000000000
     17324      5746  TIP3      H1              9.6163650248       32.4767606768       18.6056428508  SOLV      5735            0.0000000000
     17325      5746  TIP3      H2             10.0968050248       31.2649306768       19.3754028508  SOLV      5735            0.0000000000
     17326      5747  TIP3      OH2            15.6795050248       32.1216806768       16.8461328508  SOLV      5736            0.0000000000
     17327      5747  TIP3      H1             16.4249850248       32.7100506768       16.7265328508  SOLV      5736            0.0000000000
     17328      5747  TIP3      H2             14.9221850248       32.7036506768       16.9094428508  SOLV      5736            0.0000000000
     17329      5748  TIP3      OH2             4.1220250248       29.4364706768       19.4501928508  SOLV      5737            0.0000000000
     17330      5748  TIP3      H1              4.5301450248       28.5791306768       19.3292528508  SOLV      5737            0.0000000000
     17331      5748  TIP3      H2              3.8617850248       29.4506006768       20.3712228508  SOLV      5737            0.0000000000
     17332      5749  TIP3      OH2             8.7801250248       30.5523306768        4.4685228508  SOLV      5738            0.0000000000
     17333      5749  TIP3      H1              8.3203250248       30.0681606768        5.1543728508  SOLV      5738            0.0000000000
     17334      5749  TIP3      H2              9.0349950248       29.8838706768        3.8325728508  SOLV      5738            0.0000000000
     17335      5750  TIP3      OH2             8.0690550248       28.4450406768       16.8244828508  SOLV      5739            0.0000000000
     17336      5750  TIP3      H1              7.4506650248       29.1197006768       17.1049528508  SOLV      5739            0.0000000000
     17337      5750  TIP3      H2              8.4131750248       28.7664306768       15.9911028508  SOLV      5739            0.0000000000
     17338      5751  TIP3      OH2             9.8511650248       28.7955106768        2.7308428508  SOLV      5740            0.0000000000
     17339      5751  TIP3      H1              9.6706650248       28.6406306768        1.8036728508  SOLV      5740            0.0000000000
     17340      5751  TIP3      H2             10.8012150248       28.9033806768        2.7756328508  SOLV      5740            0.0000000000
     17341      5752  TIP3      OH2            19.2409950248       31.1499306768        2.1766528508  SOLV      5741            0.0000000000
     17342      5752  TIP3      H1             18.9674750248       30.7254806768        1.3634828508  SOLV      5741            0.0000000000
     17343      5752  TIP3      H2             19.2804050248       32.0813806768        1.9596928508  SOLV      5741            0.0000000000
     17344      5753  TIP3      OH2             8.4084250248       25.8001206768       17.9067928508  SOLV      5742            0.0000000000
     17345      5753  TIP3      H1              8.5585150248       25.0712506768       17.3047628508  SOLV      5742            0.0000000000
     17346      5753  TIP3      H2              8.4106650248       26.5772906768       17.3480128508  SOLV      5742            0.0000000000
     17347      5754  TIP3      OH2             8.8209950248       24.1697006768       15.3995328508  SOLV      5743            0.0000000000
     17348      5754  TIP3      H1              9.3567450248       24.6213706768       14.7474628508  SOLV      5743            0.0000000000
     17349      5754  TIP3      H2              7.9689550248       24.0616806768       14.9769428508  SOLV      5743            0.0000000000
     17350      5755  TIP3      OH2            10.4028350248       29.6093206768       15.6390528508  SOLV      5744            0.0000000000
     17351      5755  TIP3      H1             11.1533150248       29.4530706768       15.0658328508  SOLV      5744            0.0000000000
     17352      5755  TIP3      H2             10.0636650248       30.4609806768       15.3636028508  SOLV      5744            0.0000000000
     17353      5756  TIP3      OH2             6.8870550248       26.9984706768       19.8183528508  SOLV      5745            0.0000000000
     17354      5756  TIP3      H1              6.1199550248       26.4659506768       19.6081128508  SOLV      5745            0.0000000000
     17355      5756  TIP3      H2              7.5659550248       26.6885106768       19.2189828508  SOLV      5745            0.0000000000
     17356      5757  TIP3      OH2             9.6265450248       21.6262706768       15.8308928508  SOLV      5746            0.0000000000
     17357      5757  TIP3      H1              9.5285050248       22.5725906768       15.7255128508  SOLV      5746            0.0000000000
     17358      5757  TIP3      H2              8.8841650248       21.2536506768       15.3552428508  SOLV      5746            0.0000000000
     17359      5758  TIP3      OH2            10.8905950248       25.9478106768       19.3947328508  SOLV      5747            0.0000000000
     17360      5758  TIP3      H1             10.6551350248       25.7284806768       20.2962228508  SOLV      5747            0.0000000000
     17361      5758  TIP3      H2             10.1072850248       25.7409306768       18.8849828508  SOLV      5747            0.0000000000
     17362      5759  TIP3      OH2            13.6062550248       25.0751606768       18.4700828508  SOLV      5748            0.0000000000
     17363      5759  TIP3      H1             12.6587950248       25.1071306768       18.6024128508  SOLV      5748            0.0000000000
     17364      5759  TIP3      H2             13.9189250248       24.4498706768       19.1239028508  SOLV      5748            0.0000000000
     17365      5760  TIP3      OH2            15.2404050248       23.7092706768       20.4752728508  SOLV      5749            0.0000000000
     17366      5760  TIP3      H1             15.1435850248       22.7570006768       20.4694628508  SOLV      5749            0.0000000000
     17367      5760  TIP3      H2             14.9187150248       23.9779506768       21.3358228508  SOLV      5749            0.0000000000
     17368      5761  TIP3      OH2             5.0673350248       24.9188506768       19.5228228508  SOLV      5750            0.0000000000
     17369      5761  TIP3      H1              5.2790750248       24.2124606768       18.9125728508  SOLV      5750            0.0000000000
     17370      5761  TIP3      H2              4.9560850248       24.4814506768       20.3669428508  SOLV      5750            0.0000000000
     17371      5762  TIP3      OH2             9.8483550248       20.9200106768       18.5021728508  SOLV      5751            0.0000000000
     17372      5762  TIP3      H1             10.5601950248       20.2802306768       18.4880828508  SOLV      5751            0.0000000000
     17373      5762  TIP3      H2              9.7473950248       21.1868406768       17.5884828508  SOLV      5751            0.0000000000
     17374      5763  TIP3      OH2            10.2021050248       22.6028506768       20.5558028508  SOLV      5752            0.0000000000
     17375      5763  TIP3      H1             10.0703250248       22.1272306768       19.7356528508  SOLV      5752            0.0000000000
     17376      5763  TIP3      H2              9.6028450248       23.3472106768       20.5005128508  SOLV      5752            0.0000000000
     17377      5764  TIP3      OH2            19.6992750248       32.0187406768        6.1516928508  SOLV      5753            0.0000000000
     17378      5764  TIP3      H1             20.5494150248       32.4398306768        6.2788528508  SOLV      5753            0.0000000000
     17379      5764  TIP3      H2             19.7047850248       31.2787506768        6.7588328508  SOLV      5753            0.0000000000
     17380      5765  TIP3      OH2            20.0938350248       30.0724806768        7.9752628508  SOLV      5754            0.0000000000
     17381      5765  TIP3      H1             19.3672950248       29.5927406768        8.3730228508  SOLV      5754            0.0000000000
     17382      5765  TIP3      H2             20.6751650248       30.2779506768        8.7074228508  SOLV      5754            0.0000000000
     17383      5766  TIP3      OH2            20.3621450248       29.9733306768        4.3663928508  SOLV      5755            0.0000000000
     17384      5766  TIP3      H1             19.8402550248       30.3297406768        3.6474828508  SOLV      5755            0.0000000000
     17385      5766  TIP3      H2             20.3290650248       30.6481106768        5.0444828508  SOLV      5755            0.0000000000
     17386      5767  TIP3      OH2            18.7110450248       27.2128906768        2.9171028508  SOLV      5756            0.0000000000
     17387      5767  TIP3      H1             18.8074850248       27.8795906768        2.2370728508  SOLV      5756            0.0000000000
     17388      5767  TIP3      H2             18.5710050248       26.3975206768        2.4356528508  SOLV      5756            0.0000000000
     17389      5768  TIP3      OH2            17.8805150248       28.5931306768        8.5381328508  SOLV      5757            0.0000000000
     17390      5768  TIP3      H1             17.7303950248       27.6479906768        8.5179128508  SOLV      5757            0.0000000000
     17391      5768  TIP3      H2             17.5269650248       28.8742706768        9.3820428508  SOLV      5757            0.0000000000
     17392      5769  TIP3      OH2             2.9157550248       30.6713506768       12.5485128508  SOLV      5758            0.0000000000
     17393      5769  TIP3      H1              3.1000450248       30.5895206768       11.6128028508  SOLV      5758            0.0000000000
     17394      5769  TIP3      H2              3.7650450248       30.5470506768       12.9721528508  SOLV      5758            0.0000000000
     17395      5770  TIP3      OH2            17.9584250248       24.6208706768        2.0346528508  SOLV      5759            0.0000000000
     17396      5770  TIP3      H1             18.5690050248       24.2495506768        2.6714728508  SOLV      5759            0.0000000000
     17397      5770  TIP3      H2             17.1215750248       24.1995606768        2.2306528508  SOLV      5759            0.0000000000
     17398      5771  TIP3      OH2            17.5909950248       26.1757106768        7.0006428508  SOLV      5760            0.0000000000
     17399      5771  TIP3      H1             17.8707050248       25.2687506768        7.1248128508  SOLV      5760            0.0000000000
     17400      5771  TIP3      H2             18.3501650248       26.6098606768        6.6115628508  SOLV      5760            0.0000000000
     17401      5772  TIP3      OH2            18.2028250248       26.7574506768       12.4365328508  SOLV      5761            0.0000000000
     17402      5772  TIP3      H1             19.1356250248       26.9694406768       12.4021328508  SOLV      5761            0.0000000000
     17403      5772  TIP3      H2             17.9675750248       26.8586606768       13.3588328508  SOLV      5761            0.0000000000
     17404      5773  TIP3      OH2            18.2320150248       27.4939806768       15.2124728508  SOLV      5762            0.0000000000
     17405      5773  TIP3      H1             17.3891450248       27.7620206768       15.5784528508  SOLV      5762            0.0000000000
     17406      5773  TIP3      H2             18.6744450248       28.3161706768       15.0015828508  SOLV      5762            0.0000000000
     17407      5774  TIP3      OH2             2.5132350248       25.9418506768       18.6893928508  SOLV      5763            0.0000000000
     17408      5774  TIP3      H1              3.4327250248       25.8196806768       18.9257028508  SOLV      5763            0.0000000000
     17409      5774  TIP3      H2              2.0636850248       25.1918206768       19.0787428508  SOLV      5763            0.0000000000
     17410      5775  TIP3      OH2            18.2044750248       23.4386406768        7.0488428508  SOLV      5764            0.0000000000
     17411      5775  TIP3      H1             18.3869750248       22.9897906768        7.8743428508  SOLV      5764            0.0000000000
     17412      5775  TIP3      H2             17.6047650248       22.8540806768        6.5853028508  SOLV      5764            0.0000000000
     17413      5776  TIP3      OH2             3.7344850248       24.2540106768       11.5806828508  SOLV      5765            0.0000000000
     17414      5776  TIP3      H1              4.1796450248       23.4622606768       11.8826528508  SOLV      5765            0.0000000000
     17415      5776  TIP3      H2              4.2007850248       24.9705306768       12.0112428508  SOLV      5765            0.0000000000
     17416      5777  TIP3      OH2             2.0385150248       27.2533106768       12.6497028508  SOLV      5766            0.0000000000
     17417      5777  TIP3      H1              2.5304950248       27.0323606768       11.8589028508  SOLV      5766            0.0000000000
     17418      5777  TIP3      H2              2.4006050248       28.0936506768       12.9306528508  SOLV      5766            0.0000000000
     17419      5778  TIP3      OH2            20.0348950248       23.5834606768       18.9151028508  SOLV      5767            0.0000000000
     17420      5778  TIP3      H1             19.1174650248       23.8541706768       18.8794528508  SOLV      5767            0.0000000000
     17421      5778  TIP3      H2             20.1578350248       23.0483006768       18.1310728508  SOLV      5767            0.0000000000
     17422      5779  TIP3      OH2            20.0710950248       23.5064506768        3.5768728508  SOLV      5768            0.0000000000
     17423      5779  TIP3      H1             20.4833550248       22.7850206768        3.1016728508  SOLV      5768            0.0000000000
     17424      5779  TIP3      H2             20.7527450248       24.1759106768        3.6353028508  SOLV      5768            0.0000000000
     17425      5780  TIP3      OH2             2.3521650248       23.5112206768        6.7039428508  SOLV      5769            0.0000000000
     17426      5780  TIP3      H1              1.4270050248       23.7198806768        6.5744928508  SOLV      5769            0.0000000000
     17427      5780  TIP3      H2              2.8061550248       23.9953006768        6.0141728508  SOLV      5769            0.0000000000
     17428      5781  TIP3      OH2             2.3157050248       22.2491206768       15.0481928508  SOLV      5770            0.0000000000
     17429      5781  TIP3      H1              1.6507550248       22.0031506768       15.6912828508  SOLV      5770            0.0000000000
     17430      5781  TIP3      H2              1.8728350248       22.8711606768       14.4709928508  SOLV      5770            0.0000000000
     17431      5782  TIP3      OH2            19.0354850248       21.6730906768       16.7341828508  SOLV      5771            0.0000000000
     17432      5782  TIP3      H1             18.2228350248       21.9981206768       16.3466528508  SOLV      5771            0.0000000000
     17433      5782  TIP3      H2             19.2683350248       20.9129406768       16.2010928508  SOLV      5771            0.0000000000
     17434      5783  TIP3      OH2            12.4653350248       23.1221506768       11.0570028508  SOLV      5772            0.0000000000
     17435      5783  TIP3      H1             11.7910150248       22.4927106768       11.3125828508  SOLV      5772            0.0000000000
     17436      5783  TIP3      H2             13.0292550248       22.6380406768       10.4537928508  SOLV      5772            0.0000000000
     17437      5784  TIP3      OH2            17.6080550248       21.2295506768       11.1697128508  SOLV      5773            0.0000000000
     17438      5784  TIP3      H1             18.2118150248       21.7770906768       10.6678128508  SOLV      5773            0.0000000000
     17439      5784  TIP3      H2             16.7382550248       21.5485906768       10.9291228508  SOLV      5773            0.0000000000
     17440      5785  TIP3      OH2            19.3350950248       22.3684206768        9.5028028508  SOLV      5774            0.0000000000
     17441      5785  TIP3      H1             19.9468450248       21.8539906768        8.9761628508  SOLV      5774            0.0000000000
     17442      5785  TIP3      H2             19.7174350248       23.2456306768        9.5262428508  SOLV      5774            0.0000000000
     17443      5786  TIP3      OH2             4.7920850248       21.7561806768        8.8789928508  SOLV      5775            0.0000000000
     17444      5786  TIP3      H1              4.0150650248       21.5216706768        8.3715828508  SOLV      5775            0.0000000000
     17445      5786  TIP3      H2              5.3224450248       20.9593906768        8.8877928508  SOLV      5775            0.0000000000
     17446      5787  TIP3      OH2             3.6284250248       21.5539906768        4.6826028508  SOLV      5776            0.0000000000
     17447      5787  TIP3      H1              4.0674950248       22.1650406768        4.0909528508  SOLV      5776            0.0000000000
     17448      5787  TIP3      H2              2.9946650248       22.0924006768        5.1566028508  SOLV      5776            0.0000000000
     17449      5788  TIP3      OH2             9.3713450248       21.6828906768        8.6923028508  SOLV      5777            0.0000000000
     17450      5788  TIP3      H1             10.2456850248       22.0713206768        8.6627328508  SOLV      5777            0.0000000000
     17451      5788  TIP3      H2              9.2354250248       21.4676706768        9.6150228508  SOLV      5777            0.0000000000
     17452      5789  TIP3      OH2            14.9281850248       21.7128706768       10.3414728508  SOLV      5778            0.0000000000
     17453      5789  TIP3      H1             15.0043450248       21.8080306768        9.3920728508  SOLV      5778            0.0000000000
     17454      5789  TIP3      H2             14.6531050248       20.8051606768       10.4703828508  SOLV      5778            0.0000000000
     17455      5790  TIP3      OH2            16.2814450248       21.7386506768        6.0339728508  SOLV      5779            0.0000000000
     17456      5790  TIP3      H1             15.5785550248       22.3535706768        5.8241128508  SOLV      5779            0.0000000000
     17457      5790  TIP3      H2             15.8365850248       20.9013206768        6.1650628508  SOLV      5779            0.0000000000
     17458      5791  TIP3      OH2             5.4893350248       23.4701406768        3.1250128508  SOLV      5780            0.0000000000
     17459      5791  TIP3      H1              5.9806750248       22.8403806768        2.5975628508  SOLV      5780            0.0000000000
     17460      5791  TIP3      H2              6.1129650248       23.7660806768        3.7881328508  SOLV      5780            0.0000000000
     17461      5792  TIP3      OH2            10.5153450248       23.7632906768        5.5820628508  SOLV      5781            0.0000000000
     17462      5792  TIP3      H1             10.6934750248       23.1166106768        6.2649228508  SOLV      5781            0.0000000000
     17463      5792  TIP3      H2             10.4619650248       24.5970606768        6.0491728508  SOLV      5781            0.0000000000
     17464      5793  TIP3      OH2             4.7498850248       22.2703706768       18.3966128508  SOLV      5782            0.0000000000
     17465      5793  TIP3      H1              4.3837050248       21.5046306768       18.8390828508  SOLV      5782            0.0000000000
     17466      5793  TIP3      H2              5.6627350248       22.2993906768       18.6831228508  SOLV      5782            0.0000000000
     17467      5794  TIP3      OH2             6.7229650248       21.6208106768       19.9323228508  SOLV      5783            0.0000000000
     17468      5794  TIP3      H1              7.6213250248       21.3468306768       19.7476628508  SOLV      5783            0.0000000000
     17469      5794  TIP3      H2              6.3362750248       20.8784106768       20.3965828508  SOLV      5783            0.0000000000
     17470      5795  TIP3      OH2            15.1441950248       20.9533406768       20.1146028508  SOLV      5784            0.0000000000
     17471      5795  TIP3      H1             15.2209150248       20.5274106768       20.9683728508  SOLV      5784            0.0000000000
     17472      5795  TIP3      H2             16.0378550248       20.9668106768       19.7719528508  SOLV      5784            0.0000000000
     17473      5796  TIP3      OH2            21.5613350248       27.8918406768        7.7773428508  SOLV      5785            0.0000000000
     17474      5796  TIP3      H1             21.1136750248       28.7377106768        7.7589928508  SOLV      5785            0.0000000000
     17475      5796  TIP3      H2             21.0004550248       27.3122606768        7.2618528508  SOLV      5785            0.0000000000
     17476      5797  TIP3      OH2            22.2719450248       30.0538006768        9.9031428508  SOLV      5786            0.0000000000
     17477      5797  TIP3      H1             22.4852950248       29.2839606768       10.4304428508  SOLV      5786            0.0000000000
     17478      5797  TIP3      H2             23.0097050248       30.1434706768        9.2999028508  SOLV      5786            0.0000000000
     17479      5798  TIP3      OH2            26.3444450248       25.0955006768       10.2626228508  SOLV      5787            0.0000000000
     17480      5798  TIP3      H1             26.3875550248       25.9553506768        9.8442528508  SOLV      5787            0.0000000000
     17481      5798  TIP3      H2             25.8868550248       24.5429706768        9.6289428508  SOLV      5787            0.0000000000
     17482      5799  TIP3      OH2            22.9645950248       27.4920806768       11.0247628508  SOLV      5788            0.0000000000
     17483      5799  TIP3      H1             23.6182550248       26.9422506768       11.4567728508  SOLV      5788            0.0000000000
     17484      5799  TIP3      H2             22.9885250248       27.2179806768       10.1079628508  SOLV      5788            0.0000000000
     17485      5800  TIP3      OH2            25.1546350248       24.0133406768       14.3367028508  SOLV      5789            0.0000000000
     17486      5800  TIP3      H1             24.9358050248       24.5434006768       13.5703028508  SOLV      5789            0.0000000000
     17487      5800  TIP3      H2             24.4867250248       24.2398906768       14.9838428508  SOLV      5789            0.0000000000
     17488      5801  TIP3      OH2            24.7483650248       25.9055206768       12.2889228508  SOLV      5790            0.0000000000
     17489      5801  TIP3      H1             25.3619950248       26.5382806768       12.6621628508  SOLV      5790            0.0000000000
     17490      5801  TIP3      H2             25.2604350248       25.4330206768       11.6326128508  SOLV      5790            0.0000000000
     17491      5802  TIP3      OH2            29.1811050248       21.3188506768       11.7891928508  SOLV      5791            0.0000000000
     17492      5802  TIP3      H1             29.0635250248       20.3704506768       11.7350228508  SOLV      5791            0.0000000000
     17493      5802  TIP3      H2             28.3261150248       21.6514606768       12.0623028508  SOLV      5791            0.0000000000
     17494      5803  TIP3      OH2            26.4498650248       22.2223006768       12.5668228508  SOLV      5792            0.0000000000
     17495      5803  TIP3      H1             25.5882350248       22.1351206768       12.1591128508  SOLV      5792            0.0000000000
     17496      5803  TIP3      H2             26.4274350248       23.0783106768       12.9945828508  SOLV      5792            0.0000000000
     17497      5804  TIP3      OH2            26.5377850248       27.4087606768        8.5738428508  SOLV      5793            0.0000000000
     17498      5804  TIP3      H1             25.6450750248       27.0683706768        8.5152228508  SOLV      5793            0.0000000000
     17499      5804  TIP3      H2             26.9884450248       27.0318506768        7.8181628508  SOLV      5793            0.0000000000
     17500      5805  TIP3      OH2            27.6566650248       24.8823306768        2.3276428508  SOLV      5794            0.0000000000
     17501      5805  TIP3      H1             27.2257350248       24.4373406768        3.0573828508  SOLV      5794            0.0000000000
     17502      5805  TIP3      H2             26.9385350248       25.2539606768        1.8153928508  SOLV      5794            0.0000000000
     17503      5806  TIP3      OH2            20.8990050248       24.6242806768        9.3795128508  SOLV      5795            0.0000000000
     17504      5806  TIP3      H1             21.5297750248       24.5954906768       10.0989028508  SOLV      5795            0.0000000000
     17505      5806  TIP3      H2             21.3484350248       24.1991506768        8.6491028508  SOLV      5795            0.0000000000
     17506      5807  TIP3      OH2            22.1732150248       25.3704806768        4.8035528508  SOLV      5796            0.0000000000
     17507      5807  TIP3      H1             22.6473850248       25.9614706768        4.2186428508  SOLV      5796            0.0000000000
     17508      5807  TIP3      H2             21.4558550248       25.9007706768        5.1505628508  SOLV      5796            0.0000000000
     17509      5808  TIP3      OH2            23.9476550248       26.4651406768        8.4870128508  SOLV      5797            0.0000000000
     17510      5808  TIP3      H1             23.0584550248       26.5646906768        8.1469728508  SOLV      5797            0.0000000000
     17511      5808  TIP3      H2             24.2441450248       25.6234406768        8.1408028508  SOLV      5797            0.0000000000
     17512      5809  TIP3      OH2            26.2748550248       27.6596206768        3.7100828508  SOLV      5798            0.0000000000
     17513      5809  TIP3      H1             25.7323650248       27.2800006768        3.0188428508  SOLV      5798            0.0000000000
     17514      5809  TIP3      H2             27.1083450248       27.8540906768        3.2814928508  SOLV      5798            0.0000000000
     17515      5810  TIP3      OH2            25.4412550248       23.7604206768        7.9656928508  SOLV      5799            0.0000000000
     17516      5810  TIP3      H1             25.1242050248       22.8579506768        7.9302328508  SOLV      5799            0.0000000000
     17517      5810  TIP3      H2             26.2226650248       23.7621606768        7.4128528508  SOLV      5799            0.0000000000
     17518      5811  TIP3      OH2            22.8646750248       29.9004206768        3.4070728508  SOLV      5800            0.0000000000
     17519      5811  TIP3      H1             23.4806650248       30.5271406768        3.7865528508  SOLV      5800            0.0000000000
     17520      5811  TIP3      H2             22.0029350248       30.2164006768        3.6787228508  SOLV      5800            0.0000000000
     17521      5812  TIP3      OH2            23.3768850248       24.7341506768       16.2886728508  SOLV      5801            0.0000000000
     17522      5812  TIP3      H1             22.4841150248       25.0726906768       16.2210728508  SOLV      5801            0.0000000000
     17523      5812  TIP3      H2             23.2781650248       23.8787606768       16.7067528508  SOLV      5801            0.0000000000
     17524      5813  TIP3      OH2            26.6370750248       23.9994706768        4.7359628508  SOLV      5802            0.0000000000
     17525      5813  TIP3      H1             26.5535550248       24.8877806768        5.0826028508  SOLV      5802            0.0000000000
     17526      5813  TIP3      H2             27.5271050248       23.7341406768        4.9676428508  SOLV      5802            0.0000000000
     17527      5814  TIP3      OH2            23.2115250248       27.0909906768        2.9123528508  SOLV      5803            0.0000000000
     17528      5814  TIP3      H1             23.1667850248       28.0303006768        3.0910528508  SOLV      5803            0.0000000000
     17529      5814  TIP3      H2             22.3238450248       26.8554806768        2.6425628508  SOLV      5803            0.0000000000
     17530      5815  TIP3      OH2            24.0197250248       21.8726506768       11.5854528508  SOLV      5804            0.0000000000
     17531      5815  TIP3      H1             23.7907050248       21.9319006768       10.6579528508  SOLV      5804            0.0000000000
     17532      5815  TIP3      H2             23.5770650248       21.0812006768       11.8918628508  SOLV      5804            0.0000000000
     17533      5816  TIP3      OH2            21.7717550248       30.6713506768       12.5485128508  SOLV      5805            0.0000000000
     17534      5816  TIP3      H1             21.9560450248       30.5895206768       11.6128028508  SOLV      5805            0.0000000000
     17535      5816  TIP3      H2             22.6210450248       30.5470506768       12.9721528508  SOLV      5805            0.0000000000
     17536      5817  TIP3      OH2            22.5904850248       24.2540106768       11.5806828508  SOLV      5806            0.0000000000
     17537      5817  TIP3      H1             23.0356450248       23.4622606768       11.8826528508  SOLV      5806            0.0000000000
     17538      5817  TIP3      H2             23.0567850248       24.9705306768       12.0112428508  SOLV      5806            0.0000000000
     17539      5818  TIP3      OH2            20.8945150248       27.2533106768       12.6497028508  SOLV      5807            0.0000000000
     17540      5818  TIP3      H1             21.3864950248       27.0323606768       11.8589028508  SOLV      5807            0.0000000000
     17541      5818  TIP3      H2             21.2566050248       28.0936506768       12.9306528508  SOLV      5807            0.0000000000
     17542      5819  TIP3      OH2            21.2081650248       23.5112206768        6.7039428508  SOLV      5808            0.0000000000
     17543      5819  TIP3      H1             20.2830050248       23.7198806768        6.5744928508  SOLV      5808            0.0000000000
     17544      5819  TIP3      H2             21.6621550248       23.9953006768        6.0141728508  SOLV      5808            0.0000000000
     17545      5820  TIP3      OH2            21.1717050248       22.2491206768       15.0481928508  SOLV      5809            0.0000000000
     17546      5820  TIP3      H1             20.5067550248       22.0031506768       15.6912828508  SOLV      5809            0.0000000000
     17547      5820  TIP3      H2             20.7288350248       22.8711606768       14.4709928508  SOLV      5809            0.0000000000
     17548      5821  TIP3      OH2            23.6480850248       21.7561806768        8.8789928508  SOLV      5810            0.0000000000
     17549      5821  TIP3      H1             22.8710650248       21.5216706768        8.3715828508  SOLV      5810            0.0000000000
     17550      5821  TIP3      H2             24.1784450248       20.9593906768        8.8877928508  SOLV      5810            0.0000000000
     17551      5822  TIP3      OH2            22.4844250248       21.5539906768        4.6826028508  SOLV      5811            0.0000000000
     17552      5822  TIP3      H1             22.9234950248       22.1650406768        4.0909528508  SOLV      5811            0.0000000000
     17553      5822  TIP3      H2             21.8506650248       22.0924006768        5.1566028508  SOLV      5811            0.0000000000
     17554      5823  TIP3      OH2            28.2273450248       21.6828906768        8.6923028508  SOLV      5812            0.0000000000
     17555      5823  TIP3      H1             29.1016850248       22.0713206768        8.6627328508  SOLV      5812            0.0000000000
     17556      5823  TIP3      H2             28.0914250248       21.4676706768        9.6150228508  SOLV      5812            0.0000000000
     17557      5824  TIP3      OH2            24.3453350248       23.4701406768        3.1250128508  SOLV      5813            0.0000000000
     17558      5824  TIP3      H1             24.8366750248       22.8403806768        2.5975628508  SOLV      5813            0.0000000000
     17559      5824  TIP3      H2             24.9689650248       23.7660806768        3.7881328508  SOLV      5813            0.0000000000
     17560      5825  TIP3      OH2            -5.1883849752      -23.0545493232       26.7366128508  SOLV      5814            0.0000000000
     17561      5825  TIP3      H1             -5.4838749752      -23.3773193232       25.8853028508  SOLV      5814            0.0000000000
     17562      5825  TIP3      H2             -5.5126049752      -22.1548793232       26.7778728508  SOLV      5814            0.0000000000
     17563      5826  TIP3      OH2            -3.5826149752      -19.8410593232       28.3871628508  SOLV      5815            0.0000000000
     17564      5826  TIP3      H1             -3.1573849752      -20.5482693232       27.9021228508  SOLV      5815            0.0000000000
     17565      5826  TIP3      H2             -3.2656149752      -19.0397893232       27.9703828508  SOLV      5815            0.0000000000
     17566      5827  TIP3      OH2            -2.4229649752      -21.9402093232       26.8958228508  SOLV      5816            0.0000000000
     17567      5827  TIP3      H1             -2.6804849752      -22.6301993232       26.2844128508  SOLV      5816            0.0000000000
     17568      5827  TIP3      H2             -2.3518849752      -22.3830893232       27.7414128508  SOLV      5816            0.0000000000
     17569      5828  TIP3      OH2            -6.2644049752      -26.4115893232       25.1457728508  SOLV      5817            0.0000000000
     17570      5828  TIP3      H1             -6.9758549752      -25.8766193232       24.7938228508  SOLV      5817            0.0000000000
     17571      5828  TIP3      H2             -5.5734449752      -26.3563793232       24.4856628508  SOLV      5817            0.0000000000
     17572      5829  TIP3      OH2            -6.2104849752      -27.9541593232       22.1842728508  SOLV      5818            0.0000000000
     17573      5829  TIP3      H1             -5.5094949752      -27.9314693232       22.8356728508  SOLV      5818            0.0000000000
     17574      5829  TIP3      H2             -5.9081949752      -28.5821893232       21.5282028508  SOLV      5818            0.0000000000
     17575      5830  TIP3      OH2            -2.8586349752      -26.2022593232       26.0973628508  SOLV      5819            0.0000000000
     17576      5830  TIP3      H1             -3.5905349752      -25.9738893232       26.6704228508  SOLV      5819            0.0000000000
     17577      5830  TIP3      H2             -2.4114149752      -26.9159893232       26.5521128508  SOLV      5819            0.0000000000
     17578      5831  TIP3      OH2            -3.9876849752      -27.0399693232       23.7824828508  SOLV      5820            0.0000000000
     17579      5831  TIP3      H1             -3.4081349752      -26.8899393232       24.5293728508  SOLV      5820            0.0000000000
     17580      5831  TIP3      H2             -3.5736849752      -26.5692293232       23.0591228508  SOLV      5820            0.0000000000
     17581      5832  TIP3      OH2            -6.2611949752      -20.3031193232       27.2177928508  SOLV      5821            0.0000000000
     17582      5832  TIP3      H1             -5.7874349752      -20.0074893232       27.9952128508  SOLV      5821            0.0000000000
     17583      5832  TIP3      H2             -6.8242649752      -19.5649593232       26.9847528508  SOLV      5821            0.0000000000
     17584      5833  TIP3      OH2             0.9002950248      -20.9236893232       21.9718428508  SOLV      5822            0.0000000000
     17585      5833  TIP3      H1              0.9736450248      -19.9846693232       22.1423728508  SOLV      5822            0.0000000000
     17586      5833  TIP3      H2              1.8058050248      -21.2288293232       21.9155728508  SOLV      5822            0.0000000000
     17587      5834  TIP3      OH2            -6.7888849752      -17.3466493232       25.6327128508  SOLV      5823            0.0000000000
     17588      5834  TIP3      H1             -6.8642849752      -17.4679293232       24.6862328508  SOLV      5823            0.0000000000
     17589      5834  TIP3      H2             -6.7560149752      -16.3973793232       25.7511728508  SOLV      5823            0.0000000000
     17590      5835  TIP3      OH2            -3.6872849752      -18.1926293232       22.6349528508  SOLV      5824            0.0000000000
     17591      5835  TIP3      H1             -3.3124449752      -18.9370193232       22.1642128508  SOLV      5824            0.0000000000
     17592      5835  TIP3      H2             -3.6829149752      -18.4625693232       23.5532828508  SOLV      5824            0.0000000000
     17593      5836  TIP3      OH2            -4.0184749752      -18.2669193232       25.3841728508  SOLV      5825            0.0000000000
     17594      5836  TIP3      H1             -4.9534949752      -18.1667293232       25.5628728508  SOLV      5825            0.0000000000
     17595      5836  TIP3      H2             -3.7382849752      -18.9763193232       25.9624928508  SOLV      5825            0.0000000000
     17596      5837  TIP3      OH2            -2.5103749752      -26.0071393232       21.4122728508  SOLV      5826            0.0000000000
     17597      5837  TIP3      H1             -2.4682949752      -26.2297493232       20.4822728508  SOLV      5826            0.0000000000
     17598      5837  TIP3      H2             -1.6611649752      -25.6084293232       21.6022628508  SOLV      5826            0.0000000000
     17599      5838  TIP3      OH2            -8.1018649752      -24.3428093232       24.5018928508  SOLV      5827            0.0000000000
     17600      5838  TIP3      H1             -8.8467649752      -24.8502793232       24.1796828508  SOLV      5827            0.0000000000
     17601      5838  TIP3      H2             -8.2361449752      -24.2940093232       25.4483728508  SOLV      5827            0.0000000000
     17602      5839  TIP3      OH2            -4.2041849752      -31.5288193232       22.7011528508  SOLV      5828            0.0000000000
     17603      5839  TIP3      H1             -5.1427649752      -31.4172593232       22.5500328508  SOLV      5828            0.0000000000
     17604      5839  TIP3      H2             -3.9069749752      -30.6721293232       23.0077228508  SOLV      5828            0.0000000000
     17605      5840  TIP3      OH2            -3.4858349752      -29.6615493232       24.3618928508  SOLV      5829            0.0000000000
     17606      5840  TIP3      H1             -2.5939349752      -29.7990493232       24.6810128508  SOLV      5829            0.0000000000
     17607      5840  TIP3      H2             -3.4294749752      -28.8709393232       23.8252428508  SOLV      5829            0.0000000000
     17608      5841  TIP3      OH2            -5.9764549752      -22.8843793232       23.5273528508  SOLV      5830            0.0000000000
     17609      5841  TIP3      H1             -6.2716149752      -22.0575893232       23.9088328508  SOLV      5830            0.0000000000
     17610      5841  TIP3      H2             -6.6794549752      -23.5036893232       23.7234928508  SOLV      5830            0.0000000000
     17611      5842  TIP3      OH2             1.3990350248      -29.4521393232       24.0565628508  SOLV      5831            0.0000000000
     17612      5842  TIP3      H1              0.8446650248      -29.8483393232       23.3843128508  SOLV      5831            0.0000000000
     17613      5842  TIP3      H2              1.4993950248      -28.5416193232       23.7788928508  SOLV      5831            0.0000000000
     17614      5843  TIP3      OH2            -0.3057949752      -20.6660993232       24.5217728508  SOLV      5832            0.0000000000
     17615      5843  TIP3      H1             -0.6786849752      -21.4917193232       24.8308328508  SOLV      5832            0.0000000000
     17616      5843  TIP3      H2             -0.0284449752      -20.8491593232       23.6241128508  SOLV      5832            0.0000000000
     17617      5844  TIP3      OH2            -2.9132349752      -22.6895193232       22.3418328508  SOLV      5833            0.0000000000
     17618      5844  TIP3      H1             -2.5599249752      -23.0695393232       23.1461828508  SOLV      5833            0.0000000000
     17619      5844  TIP3      H2             -3.8618849752      -22.7830393232       22.4287628508  SOLV      5833            0.0000000000
     17620      5845  TIP3      OH2             1.5902050248      -18.2102693232       22.5428528508  SOLV      5834            0.0000000000
     17621      5845  TIP3      H1              2.3339950248      -17.6242193232       22.4030128508  SOLV      5834            0.0000000000
     17622      5845  TIP3      H2              0.8960150248      -17.6416893232       22.8760928508  SOLV      5834            0.0000000000
     17623      5846  TIP3      OH2            -2.0473049752      -24.0173193232       24.5686228508  SOLV      5835            0.0000000000
     17624      5846  TIP3      H1             -2.3245449752      -24.7453893232       25.1247328508  SOLV      5835            0.0000000000
     17625      5846  TIP3      H2             -1.1200049752      -23.8981193232       24.7738828508  SOLV      5835            0.0000000000
     17626      5847  TIP3      OH2            -8.8224549752      -21.5779093232       20.7888328508  SOLV      5836            0.0000000000
     17627      5847  TIP3      H1             -8.5834749752      -22.3260993232       20.2417228508  SOLV      5836            0.0000000000
     17628      5847  TIP3      H2             -9.0913249752      -21.9657393232       21.6216128508  SOLV      5836            0.0000000000
     17629      5848  TIP3      OH2            -9.8853949752      -22.0075293232       23.2450928508  SOLV      5837            0.0000000000
     17630      5848  TIP3      H1             -9.7385949752      -22.5275493232       24.0351828508  SOLV      5837            0.0000000000
     17631      5848  TIP3      H2             -9.8882249752      -21.1007693232       23.5516828508  SOLV      5837            0.0000000000
     17632      5849  TIP3      OH2            -7.1476749752      -20.3101693232       23.9945128508  SOLV      5838            0.0000000000
     17633      5849  TIP3      H1             -7.9640649752      -19.8131993232       24.0469428508  SOLV      5838            0.0000000000
     17634      5849  TIP3      H2             -6.6180449752      -19.8348193232       23.3543928508  SOLV      5838            0.0000000000
     17635      5850  TIP3      OH2            -9.8093649752      -19.2664493232       23.9762028508  SOLV      5839            0.0000000000
     17636      5850  TIP3      H1             -9.6484949752      -18.4666993232       23.4754628508  SOLV      5839            0.0000000000
     17637      5850  TIP3      H2            -10.0065849752      -18.9598493232       24.8612628508  SOLV      5839            0.0000000000
     17638      5851  TIP3      OH2           -12.8163949752      -22.1413093232       22.6524128508  SOLV      5840            0.0000000000
     17639      5851  TIP3      H1            -12.2242449752      -21.4418293232       22.9286528508  SOLV      5840            0.0000000000
     17640      5851  TIP3      H2            -12.3570949752      -22.5743593232       21.9328728508  SOLV      5840            0.0000000000
     17641      5852  TIP3      OH2            -1.1875149752      -18.8131193232       31.7043128508  SOLV      5841            0.0000000000
     17642      5852  TIP3      H1             -1.3430849752      -18.1346793232       31.0472428508  SOLV      5841            0.0000000000
     17643      5852  TIP3      H2             -0.2548749752      -18.7411893232       31.9073728508  SOLV      5841            0.0000000000
     17644      5853  TIP3      OH2            -6.7842749752      -19.7147693232       20.9274328508  SOLV      5842            0.0000000000
     17645      5853  TIP3      H1             -7.4281749752      -20.3459093232       21.2488028508  SOLV      5842            0.0000000000
     17646      5853  TIP3      H2             -6.0224449752      -20.2459693232       20.6957828508  SOLV      5842            0.0000000000
     17647      5854  TIP3      OH2            -2.1799849752      -19.8977793232       21.1612328508  SOLV      5843            0.0000000000
     17648      5854  TIP3      H1             -1.8969449752      -20.6922593232       21.6139228508  SOLV      5843            0.0000000000
     17649      5854  TIP3      H2             -1.4401949752      -19.6646793232       20.6003428508  SOLV      5843            0.0000000000
     17650      5855  TIP3      OH2           -11.2252549752      -23.9882893232       21.0187228508  SOLV      5844            0.0000000000
     17651      5855  TIP3      H1            -11.1608449752      -24.7823293232       21.5493628508  SOLV      5844            0.0000000000
     17652      5855  TIP3      H2            -10.5723349752      -24.1070093232       20.3289228508  SOLV      5844            0.0000000000
     17653      5856  TIP3      OH2            -5.8729149752      -22.9411193232       20.7545228508  SOLV      5845            0.0000000000
     17654      5856  TIP3      H1             -6.1415049752      -22.7609093232       21.6554128508  SOLV      5845            0.0000000000
     17655      5856  TIP3      H2             -6.0793549752      -23.8664993232       20.6231028508  SOLV      5845            0.0000000000
     17656      5857  TIP3      OH2            -9.0048349752      -27.7724893232       21.5868428508  SOLV      5846            0.0000000000
     17657      5857  TIP3      H1             -9.1853349752      -27.9273693232       20.6596728508  SOLV      5846            0.0000000000
     17658      5857  TIP3      H2             -8.0547849752      -27.6646193232       21.6316328508  SOLV      5846            0.0000000000
     17659      5858  TIP3      OH2             0.3849950248      -25.4180693232       21.0326528508  SOLV      5847            0.0000000000
     17660      5858  TIP3      H1              0.1114750248      -25.8425193232       20.2194828508  SOLV      5847            0.0000000000
     17661      5858  TIP3      H2              0.4244050248      -24.4866193232       20.8156928508  SOLV      5847            0.0000000000
     17662      5859  TIP3      OH2            -9.1076649752      -17.0821193232       22.5882028508  SOLV      5848            0.0000000000
     17663      5859  TIP3      H1             -8.1745949752      -16.9242493232       22.7320428508  SOLV      5848            0.0000000000
     17664      5859  TIP3      H2             -9.3717849752      -16.4068193232       21.9633528508  SOLV      5848            0.0000000000
     17665      5860  TIP3      OH2             1.5282850248      -18.1625493232       31.9335028508  SOLV      5849            0.0000000000
     17666      5860  TIP3      H1              1.5069550248      -17.9777093232       32.8724428508  SOLV      5849            0.0000000000
     17667      5860  TIP3      H2              2.2189050248      -17.5941493232       31.5926428508  SOLV      5849            0.0000000000
     17668      5861  TIP3      OH2             0.8432750248      -24.5492593232       25.0076928508  SOLV      5850            0.0000000000
     17669      5861  TIP3      H1              1.6934150248      -24.1281693232       25.1348528508  SOLV      5850            0.0000000000
     17670      5861  TIP3      H2              0.8487850248      -25.2892493232       25.6148328508  SOLV      5850            0.0000000000
     17671      5862  TIP3      OH2             1.2378350248      -26.4955193232       26.8312628508  SOLV      5851            0.0000000000
     17672      5862  TIP3      H1              0.5112950248      -26.9752593232       27.2290228508  SOLV      5851            0.0000000000
     17673      5862  TIP3      H2              1.8191650248      -26.2900493232       27.5634228508  SOLV      5851            0.0000000000
     17674      5863  TIP3      OH2             1.5061450248      -26.5946693232       23.2223928508  SOLV      5852            0.0000000000
     17675      5863  TIP3      H1              0.9842550248      -26.2382593232       22.5034828508  SOLV      5852            0.0000000000
     17676      5863  TIP3      H2              1.4730650248      -25.9198893232       23.9004828508  SOLV      5852            0.0000000000
     17677      5864  TIP3      OH2            -0.1449549752      -29.3551093232       21.7731028508  SOLV      5853            0.0000000000
     17678      5864  TIP3      H1             -0.0485149752      -28.6884093232       21.0930728508  SOLV      5853            0.0000000000
     17679      5864  TIP3      H2             -0.2849949752      -30.1704793232       21.2916528508  SOLV      5853            0.0000000000
     17680      5865  TIP3      OH2            -0.8975749752      -31.9471293232       20.8906528508  SOLV      5854            0.0000000000
     17681      5865  TIP3      H1             -0.2869949752      -32.3184493232       21.5274728508  SOLV      5854            0.0000000000
     17682      5865  TIP3      H2             -1.7344249752      -32.3684393232       21.0866528508  SOLV      5854            0.0000000000
     17683      5866  TIP3      OH2            -1.2650049752      -30.3922893232       25.8566428508  SOLV      5855            0.0000000000
     17684      5866  TIP3      H1             -0.9852949752      -31.2992493232       25.9808128508  SOLV      5855            0.0000000000
     17685      5866  TIP3      H2             -0.5058349752      -29.9581393232       25.4675628508  SOLV      5855            0.0000000000
     17686      5867  TIP3      OH2            -1.7331149752      -18.0726093232       27.5056828508  SOLV      5856            0.0000000000
     17687      5867  TIP3      H1             -1.0808249752      -18.4203993232       26.8975928508  SOLV      5856            0.0000000000
     17688      5867  TIP3      H2             -1.2227349752      -17.5842893232       28.1516528508  SOLV      5856            0.0000000000
     17689      5868  TIP3      OH2            -6.4622749752      -17.8562993232       22.8337328508  SOLV      5857            0.0000000000
     17690      5868  TIP3      H1             -5.5962549752      -17.4895593232       22.6555528508  SOLV      5857            0.0000000000
     17691      5868  TIP3      H2             -6.7089949752      -18.2954993232       22.0198128508  SOLV      5857            0.0000000000
     17692      5869  TIP3      OH2             0.2466850248      -18.2932693232       25.5128428508  SOLV      5858            0.0000000000
     17693      5869  TIP3      H1              0.0523950248      -19.0410593232       24.9478028508  SOLV      5858            0.0000000000
     17694      5869  TIP3      H2              0.2076950248      -17.5352593232       24.9296328508  SOLV      5858            0.0000000000
     17695      5870  TIP3      OH2           -13.5085049752      -18.1457093232       21.4613228508  SOLV      5859            0.0000000000
     17696      5870  TIP3      H1            -13.7760449752      -17.8594193232       22.3346328508  SOLV      5859            0.0000000000
     17697      5870  TIP3      H2            -12.7372449752      -18.6917893232       21.6135728508  SOLV      5859            0.0000000000
     17698      5871  TIP3      OH2             2.7053350248      -28.6761593232       26.6333428508  SOLV      5860            0.0000000000
     17699      5871  TIP3      H1              2.2576750248      -27.8302893232       26.6149928508  SOLV      5860            0.0000000000
     17700      5871  TIP3      H2              2.1444550248      -29.2557393232       26.1178528508  SOLV      5860            0.0000000000
     17701      5872  TIP3      OH2             3.4159450248      -26.5141993232       28.7591428508  SOLV      5861            0.0000000000
     17702      5872  TIP3      H1              3.6292950248      -27.2840393232       29.2864428508  SOLV      5861            0.0000000000
     17703      5872  TIP3      H2              4.1537050248      -26.4245293232       28.1559028508  SOLV      5861            0.0000000000
     17704      5873  TIP3      OH2            13.6676150248      -23.0545493232       26.7366128508  SOLV      5862            0.0000000000
     17705      5873  TIP3      H1             13.3721250248      -23.3773193232       25.8853028508  SOLV      5862            0.0000000000
     17706      5873  TIP3      H2             13.3433950248      -22.1548793232       26.7778728508  SOLV      5862            0.0000000000
     17707      5874  TIP3      OH2             3.3962950248      -23.2439993232       25.0491528508  SOLV      5863            0.0000000000
     17708      5874  TIP3      H1              3.1243850248      -23.0148993232       24.1604428508  SOLV      5863            0.0000000000
     17709      5874  TIP3      H2              3.4418650248      -22.4061193232       25.5096828508  SOLV      5863            0.0000000000
     17710      5875  TIP3      OH2            12.6455150248      -27.9541593232       22.1842728508  SOLV      5864            0.0000000000
     17711      5875  TIP3      H1             13.3465050248      -27.9314693232       22.8356728508  SOLV      5864            0.0000000000
     17712      5875  TIP3      H2             12.9478050248      -28.5821893232       21.5282028508  SOLV      5864            0.0000000000
     17713      5876  TIP3      OH2            12.5948050248      -20.3031193232       27.2177928508  SOLV      5865            0.0000000000
     17714      5876  TIP3      H1             13.0685650248      -20.0074893232       27.9952128508  SOLV      5865            0.0000000000
     17715      5876  TIP3      H2             12.0317350248      -19.5649593232       26.9847528508  SOLV      5865            0.0000000000
     17716      5877  TIP3      OH2             6.6330050248      -26.5022093232       25.5691428508  SOLV      5866            0.0000000000
     17717      5877  TIP3      H1              6.3411350248      -25.7340393232       25.0782728508  SOLV      5866            0.0000000000
     17718      5877  TIP3      H2              5.9585250248      -27.1615893232       25.4062828508  SOLV      5866            0.0000000000
     17719      5878  TIP3      OH2            19.7562950248      -20.9236893232       21.9718428508  SOLV      5867            0.0000000000
     17720      5878  TIP3      H1             19.8296450248      -19.9846693232       22.1423728508  SOLV      5867            0.0000000000
     17721      5878  TIP3      H2             20.6618050248      -21.2288293232       21.9155728508  SOLV      5867            0.0000000000
     17722      5879  TIP3      OH2             2.4762850248      -21.3589093232       31.2681428508  SOLV      5868            0.0000000000
     17723      5879  TIP3      H1              3.4223450248      -21.5032093232       31.2490928508  SOLV      5868            0.0000000000
     17724      5879  TIP3      H2              2.3639150248      -20.5746293232       31.8052628508  SOLV      5868            0.0000000000
     17725      5880  TIP3      OH2            12.0671150248      -17.3466493232       25.6327128508  SOLV      5869            0.0000000000
     17726      5880  TIP3      H1             11.9917150248      -17.4679293232       24.6862328508  SOLV      5869            0.0000000000
     17727      5880  TIP3      H2             12.0999850248      -16.3973793232       25.7511728508  SOLV      5869            0.0000000000
     17728      5881  TIP3      OH2             5.7204950248      -18.5579493232       27.4136128508  SOLV      5870            0.0000000000
     17729      5881  TIP3      H1              5.8725350248      -18.9059093232       28.2922628508  SOLV      5870            0.0000000000
     17730      5881  TIP3      H2              4.8695350248      -18.9142193232       27.1583328508  SOLV      5870            0.0000000000
     17731      5882  TIP3      OH2            15.1687150248      -18.1926293232       22.6349528508  SOLV      5871            0.0000000000
     17732      5882  TIP3      H1             15.5435550248      -18.9370193232       22.1642128508  SOLV      5871            0.0000000000
     17733      5882  TIP3      H2             15.1730850248      -18.4625693232       23.5532828508  SOLV      5871            0.0000000000
     17734      5883  TIP3      OH2            14.8375250248      -18.2669193232       25.3841728508  SOLV      5872            0.0000000000
     17735      5883  TIP3      H1             13.9025050248      -18.1667293232       25.5628728508  SOLV      5872            0.0000000000
     17736      5883  TIP3      H2             15.1177150248      -18.9763193232       25.9624928508  SOLV      5872            0.0000000000
     17737      5884  TIP3      OH2            16.3456250248      -26.0071393232       21.4122728508  SOLV      5873            0.0000000000
     17738      5884  TIP3      H1             16.3877050248      -26.2297493232       20.4822728508  SOLV      5873            0.0000000000
     17739      5884  TIP3      H2             17.1948350248      -25.6084293232       21.6022628508  SOLV      5873            0.0000000000
     17740      5885  TIP3      OH2             8.8006650248      -31.6856693232       21.1836428508  SOLV      5874            0.0000000000
     17741      5885  TIP3      H1              8.3697350248      -32.1306593232       21.9133828508  SOLV      5874            0.0000000000
     17742      5885  TIP3      H2              8.0825350248      -31.3140393232       20.6713928508  SOLV      5874            0.0000000000
     17743      5886  TIP3      OH2             3.3172150248      -31.1975193232       23.6595528508  SOLV      5875            0.0000000000
     17744      5886  TIP3      H1              3.7913850248      -30.6065293232       23.0746428508  SOLV      5875            0.0000000000
     17745      5886  TIP3      H2              2.5998550248      -30.6672293232       24.0065628508  SOLV      5875            0.0000000000
     17746      5887  TIP3      OH2             7.4188550248      -28.9083793232       22.5660828508  SOLV      5876            0.0000000000
     17747      5887  TIP3      H1              6.8763650248      -29.2879993232       21.8748428508  SOLV      5876            0.0000000000
     17748      5887  TIP3      H2              8.2523450248      -28.7139093232       22.1374928508  SOLV      5876            0.0000000000
     17749      5888  TIP3      OH2            10.7541350248      -24.3428093232       24.5018928508  SOLV      5877            0.0000000000
     17750      5888  TIP3      H1             10.0092350248      -24.8502793232       24.1796828508  SOLV      5877            0.0000000000
     17751      5888  TIP3      H2             10.6198550248      -24.2940093232       25.4483728508  SOLV      5877            0.0000000000
     17752      5889  TIP3      OH2            12.8795450248      -22.8843793232       23.5273528508  SOLV      5878            0.0000000000
     17753      5889  TIP3      H1             12.5843850248      -22.0575893232       23.9088328508  SOLV      5878            0.0000000000
     17754      5889  TIP3      H2             12.1765450248      -23.5036893232       23.7234928508  SOLV      5878            0.0000000000
     17755      5890  TIP3      OH2            18.5502050248      -20.6660993232       24.5217728508  SOLV      5879            0.0000000000
     17756      5890  TIP3      H1             18.1773150248      -21.4917193232       24.8308328508  SOLV      5879            0.0000000000
     17757      5890  TIP3      H2             18.8275550248      -20.8491593232       23.6241128508  SOLV      5879            0.0000000000
     17758      5891  TIP3      OH2             8.2539050248      -21.5299893232       27.6758328508  SOLV      5880            0.0000000000
     17759      5891  TIP3      H1              8.7811250248      -20.7565493232       27.4757128508  SOLV      5880            0.0000000000
     17760      5891  TIP3      H2              7.3737550248      -21.3050693232       27.3742328508  SOLV      5880            0.0000000000
     17761      5892  TIP3      OH2             4.0086750248      -26.6675793232       22.2630728508  SOLV      5881            0.0000000000
     17762      5892  TIP3      H1              4.6246650248      -26.0408593232       22.6425528508  SOLV      5881            0.0000000000
     17763      5892  TIP3      H2              3.1469350248      -26.3515993232       22.5347228508  SOLV      5881            0.0000000000
     17764      5893  TIP3      OH2             9.6811350248      -23.8669993232       27.2522628508  SOLV      5882            0.0000000000
     17765      5893  TIP3      H1              9.4401350248      -22.9415593232       27.2937928508  SOLV      5882            0.0000000000
     17766      5893  TIP3      H2              8.9404950248      -24.3258693232       27.6486528508  SOLV      5882            0.0000000000
     17767      5894  TIP3      OH2             8.3642150248      -18.8452393232       26.7974828508  SOLV      5883            0.0000000000
     17768      5894  TIP3      H1              7.4142650248      -18.7394993232       26.8488128508  SOLV      5883            0.0000000000
     17769      5894  TIP3      H2              8.7160250248      -18.0244993232       27.1422328508  SOLV      5883            0.0000000000
     17770      5895  TIP3      OH2            15.9427650248      -22.6895193232       22.3418328508  SOLV      5884            0.0000000000
     17771      5895  TIP3      H1             16.2960750248      -23.0695393232       23.1461828508  SOLV      5884            0.0000000000
     17772      5895  TIP3      H2             14.9941150248      -22.7830393232       22.4287628508  SOLV      5884            0.0000000000
     17773      5896  TIP3      OH2            20.4462050248      -18.2102693232       22.5428528508  SOLV      5885            0.0000000000
     17774      5896  TIP3      H1             21.1899950248      -17.6242193232       22.4030128508  SOLV      5885            0.0000000000
     17775      5896  TIP3      H2             19.7520150248      -17.6416893232       22.8760928508  SOLV      5885            0.0000000000
     17776      5897  TIP3      OH2             4.1720850248      -20.0294093232       33.5796128508  SOLV      5886            0.0000000000
     17777      5897  TIP3      H1              4.3891150248      -20.9611693232       33.5485828508  SOLV      5886            0.0000000000
     17778      5897  TIP3      H2              4.4184350248      -19.7549093232       34.4628928508  SOLV      5886            0.0000000000
     17779      5898  TIP3      OH2            10.0335450248      -21.5779093232       20.7888328508  SOLV      5887            0.0000000000
     17780      5898  TIP3      H1             10.2725250248      -22.3260993232       20.2417228508  SOLV      5887            0.0000000000
     17781      5898  TIP3      H2              9.7646750248      -21.9657393232       21.6216128508  SOLV      5887            0.0000000000
     17782      5899  TIP3      OH2             8.9706050248      -22.0075293232       23.2450928508  SOLV      5888            0.0000000000
     17783      5899  TIP3      H1              9.1174050248      -22.5275493232       24.0351828508  SOLV      5888            0.0000000000
     17784      5899  TIP3      H2              8.9677750248      -21.1007693232       23.5516828508  SOLV      5888            0.0000000000
     17785      5900  TIP3      OH2             5.4237150248      -24.7551993232       23.7556328508  SOLV      5889            0.0000000000
     17786      5900  TIP3      H1              4.7376450248      -24.4029493232       24.3226028508  SOLV      5889            0.0000000000
     17787      5900  TIP3      H2              5.9465050248      -23.9922393232       23.5090628508  SOLV      5889            0.0000000000
     17788      5901  TIP3      OH2            11.7083250248      -20.3101693232       23.9945128508  SOLV      5890            0.0000000000
     17789      5901  TIP3      H1             10.8919350248      -19.8131993232       24.0469428508  SOLV      5890            0.0000000000
     17790      5901  TIP3      H2             12.2379550248      -19.8348193232       23.3543928508  SOLV      5890            0.0000000000
     17791      5902  TIP3      OH2             9.0466350248      -19.2664493232       23.9762028508  SOLV      5891            0.0000000000
     17792      5902  TIP3      H1              9.2075050248      -18.4666993232       23.4754628508  SOLV      5891            0.0000000000
     17793      5902  TIP3      H2              8.8494150248      -18.9598493232       24.8612628508  SOLV      5891            0.0000000000
     17794      5903  TIP3      OH2             6.0396050248      -22.1413093232       22.6524128508  SOLV      5892            0.0000000000
     17795      5903  TIP3      H1              6.6317550248      -21.4418293232       22.9286528508  SOLV      5892            0.0000000000
     17796      5903  TIP3      H2              6.4989050248      -22.5743593232       21.9328728508  SOLV      5892            0.0000000000
     17797      5904  TIP3      OH2             4.3555250248      -29.4770093232       21.7683528508  SOLV      5893            0.0000000000
     17798      5904  TIP3      H1              4.3107850248      -28.5376993232       21.9470528508  SOLV      5893            0.0000000000
     17799      5904  TIP3      H2              3.4678450248      -29.7125193232       21.4985628508  SOLV      5893            0.0000000000
     17800      5905  TIP3      OH2             4.0940550248      -20.7546393232       26.6020328508  SOLV      5894            0.0000000000
     17801      5905  TIP3      H1              3.2619150248      -20.2823693232       26.6291728508  SOLV      5894            0.0000000000
     17802      5905  TIP3      H2              4.6398850248      -20.2448793232       26.0033428508  SOLV      5894            0.0000000000
     17803      5906  TIP3      OH2            12.0717250248      -19.7147693232       20.9274328508  SOLV      5895            0.0000000000
     17804      5906  TIP3      H1             11.4278250248      -20.3459093232       21.2488028508  SOLV      5895            0.0000000000
     17805      5906  TIP3      H2             12.8335550248      -20.2459693232       20.6957828508  SOLV      5895            0.0000000000
     17806      5907  TIP3      OH2            16.6760150248      -19.8977793232       21.1612328508  SOLV      5896            0.0000000000
     17807      5907  TIP3      H1             16.9590550248      -20.6922593232       21.6139228508  SOLV      5896            0.0000000000
     17808      5907  TIP3      H2             17.4158050248      -19.6646793232       20.6003428508  SOLV      5896            0.0000000000
     17809      5908  TIP3      OH2             7.6307450248      -23.9882893232       21.0187228508  SOLV      5897            0.0000000000
     17810      5908  TIP3      H1              7.6951550248      -24.7823293232       21.5493628508  SOLV      5897            0.0000000000
     17811      5908  TIP3      H2              8.2836650248      -24.1070093232       20.3289228508  SOLV      5897            0.0000000000
     17812      5909  TIP3      OH2            12.9830850248      -22.9411193232       20.7545228508  SOLV      5898            0.0000000000
     17813      5909  TIP3      H1             12.7144950248      -22.7609093232       21.6554128508  SOLV      5898            0.0000000000
     17814      5909  TIP3      H2             12.7766450248      -23.8664993232       20.6231028508  SOLV      5898            0.0000000000
     17815      5910  TIP3      OH2             8.7801250248      -26.0156693232       23.3245228508  SOLV      5899            0.0000000000
     17816      5910  TIP3      H1              8.3203250248      -26.4998393232       24.0103728508  SOLV      5899            0.0000000000
     17817      5910  TIP3      H2              9.0349950248      -26.6841293232       22.6885728508  SOLV      5899            0.0000000000
     17818      5911  TIP3      OH2             9.8511650248      -27.7724893232       21.5868428508  SOLV      5900            0.0000000000
     17819      5911  TIP3      H1              9.6706650248      -27.9273693232       20.6596728508  SOLV      5900            0.0000000000
     17820      5911  TIP3      H2             10.8012150248      -27.6646193232       21.6316328508  SOLV      5900            0.0000000000
     17821      5912  TIP3      OH2            19.2409950248      -25.4180693232       21.0326528508  SOLV      5901            0.0000000000
     17822      5912  TIP3      H1             18.9674750248      -25.8425193232       20.2194828508  SOLV      5901            0.0000000000
     17823      5912  TIP3      H2             19.2804050248      -24.4866193232       20.8156928508  SOLV      5901            0.0000000000
     17824      5913  TIP3      OH2             9.7483350248      -17.0821193232       22.5882028508  SOLV      5902            0.0000000000
     17825      5913  TIP3      H1             10.6814050248      -16.9242493232       22.7320428508  SOLV      5902            0.0000000000
     17826      5913  TIP3      H2              9.4842150248      -16.4068193232       21.9633528508  SOLV      5902            0.0000000000
     17827      5914  TIP3      OH2             3.3168250248      -22.4457393232       22.0710128508  SOLV      5903            0.0000000000
     17828      5914  TIP3      H1              4.2307450248      -22.3668493232       22.3444028508  SOLV      5903            0.0000000000
     17829      5914  TIP3      H2              3.3241350248      -23.1327793232       21.4045728508  SOLV      5903            0.0000000000
     17830      5915  TIP3      OH2             1.9658850248      -17.0528893232       27.1484028508  SOLV      5904            0.0000000000
     17831      5915  TIP3      H1              1.3185950248      -17.5147193232       26.6155228508  SOLV      5904            0.0000000000
     17832      5915  TIP3      H2              2.3203450248      -17.7245593232       27.7310228508  SOLV      5904            0.0000000000
     17833      5916  TIP3      OH2             2.8358050248      -18.9721893232       28.9530228508  SOLV      5905            0.0000000000
     17834      5916  TIP3      H1              2.5014850248      -19.8524593232       29.1250428508  SOLV      5905            0.0000000000
     17835      5916  TIP3      H2              3.0580450248      -18.6266893232       29.8175828508  SOLV      5905            0.0000000000
     17836      5917  TIP3      OH2            17.1228850248      -18.0726093232       27.5056828508  SOLV      5906            0.0000000000
     17837      5917  TIP3      H1             17.7751750248      -18.4203993232       26.8975928508  SOLV      5906            0.0000000000
     17838      5917  TIP3      H2             17.6332650248      -17.5842893232       28.1516528508  SOLV      5906            0.0000000000
     17839      5918  TIP3      OH2             4.8635950248      -16.9129593232       34.3547028508  SOLV      5907            0.0000000000
     17840      5918  TIP3      H1              4.1432350248      -16.4728593232       33.9034728508  SOLV      5907            0.0000000000
     17841      5918  TIP3      H2              4.4979950248      -17.1634893232       35.2031028508  SOLV      5907            0.0000000000
     17842      5919  TIP3      OH2             7.3308550248      -17.3125693232       33.3844228508  SOLV      5908            0.0000000000
     17843      5919  TIP3      H1              6.4660750248      -17.2407193232       33.7884328508  SOLV      5908            0.0000000000
     17844      5919  TIP3      H2              7.2757550248      -16.7658393232       32.6006728508  SOLV      5908            0.0000000000
     17845      5920  TIP3      OH2             4.2784050248      -18.2897093232       31.2648828508  SOLV      5909            0.0000000000
     17846      5920  TIP3      H1              4.2600050248      -18.7151993232       32.1221128508  SOLV      5909            0.0000000000
     17847      5920  TIP3      H2              5.0831950248      -18.6082093232       30.8561028508  SOLV      5909            0.0000000000
     17848      5921  TIP3      OH2             6.4197150248      -19.5798393232       29.9198728508  SOLV      5910            0.0000000000
     17849      5921  TIP3      H1              6.2007850248      -20.4960993232       30.0894728508  SOLV      5910            0.0000000000
     17850      5921  TIP3      H2              7.2439350248      -19.4397993232       30.3860128508  SOLV      5910            0.0000000000
     17851      5922  TIP3      OH2             8.9569650248      -19.1099093232       30.7686728508  SOLV      5911            0.0000000000
     17852      5922  TIP3      H1              9.1695350248      -19.9980093232       30.4817628508  SOLV      5911            0.0000000000
     17853      5922  TIP3      H2              9.0214750248      -19.1441393232       31.7230728508  SOLV      5911            0.0000000000
     17854      5923  TIP3      OH2             3.5293750248      -19.0657893232       24.4361128508  SOLV      5912            0.0000000000
     17855      5923  TIP3      H1              2.8443650248      -19.1038993232       23.7686228508  SOLV      5912            0.0000000000
     17856      5923  TIP3      H2              3.5330950248      -18.1530293232       24.7243228508  SOLV      5912            0.0000000000
     17857      5924  TIP3      OH2            12.3937250248      -17.8562993232       22.8337328508  SOLV      5913            0.0000000000
     17858      5924  TIP3      H1             13.2597450248      -17.4895593232       22.6555528508  SOLV      5913            0.0000000000
     17859      5924  TIP3      H2             12.1470050248      -18.2954993232       22.0198128508  SOLV      5913            0.0000000000
     17860      5925  TIP3      OH2            19.1026850248      -18.2932693232       25.5128428508  SOLV      5914            0.0000000000
     17861      5925  TIP3      H1             18.9083950248      -19.0410593232       24.9478028508  SOLV      5914            0.0000000000
     17862      5925  TIP3      H2             19.0636950248      -17.5352593232       24.9296328508  SOLV      5914            0.0000000000
     17863      5926  TIP3      OH2             5.3474950248      -18.1457093232       21.4613228508  SOLV      5915            0.0000000000
     17864      5926  TIP3      H1              5.0799550248      -17.8594193232       22.3346328508  SOLV      5915            0.0000000000
     17865      5926  TIP3      H2              6.1187550248      -18.6917893232       21.6135728508  SOLV      5915            0.0000000000
     17866      5927  TIP3      OH2            22.3853750248      -19.0657893232       24.4361128508  SOLV      5916            0.0000000000
     17867      5927  TIP3      H1             21.7003650248      -19.1038993232       23.7686228508  SOLV      5916            0.0000000000
     17868      5927  TIP3      H2             22.3890950248      -18.1530293232       24.7243228508  SOLV      5916            0.0000000000
     17869      5928  TIP3      OH2            24.2034950248      -18.1457093232       21.4613228508  SOLV      5917            0.0000000000
     17870      5928  TIP3      H1             23.9359550248      -17.8594193232       22.3346328508  SOLV      5917            0.0000000000
     17871      5928  TIP3      H2             24.9747550248      -18.6917893232       21.6135728508  SOLV      5917            0.0000000000
     17872      5929  TIP3      OH2           -17.9557049752       -2.0676893232       21.9718428508  SOLV      5918            0.0000000000
     17873      5929  TIP3      H1            -17.8823549752       -1.1286693232       22.1423728508  SOLV      5918            0.0000000000
     17874      5929  TIP3      H2            -17.0501949752       -2.3728293232       21.9155728508  SOLV      5918            0.0000000000
     17875      5930  TIP3      OH2           -25.6448849752        1.5093506768       25.6327128508  SOLV      5919            0.0000000000
     17876      5930  TIP3      H1            -25.7202849752        1.3880706768       24.6862328508  SOLV      5919            0.0000000000
     17877      5930  TIP3      H2            -25.6120149752        2.4586206768       25.7511728508  SOLV      5919            0.0000000000
     17878      5931  TIP3      OH2           -22.5432849752        0.6633706768       22.6349528508  SOLV      5920            0.0000000000
     17879      5931  TIP3      H1            -22.1684449752       -0.0810193232       22.1642128508  SOLV      5920            0.0000000000
     17880      5931  TIP3      H2            -22.5389149752        0.3934306768       23.5532828508  SOLV      5920            0.0000000000
     17881      5932  TIP3      OH2           -22.8744749752        0.5890806768       25.3841728508  SOLV      5921            0.0000000000
     17882      5932  TIP3      H1            -23.8094949752        0.6892706768       25.5628728508  SOLV      5921            0.0000000000
     17883      5932  TIP3      H2            -22.5942849752       -0.1203193232       25.9624928508  SOLV      5921            0.0000000000
     17884      5933  TIP3      OH2           -21.3663749752       -7.1511393232       21.4122728508  SOLV      5922            0.0000000000
     17885      5933  TIP3      H1            -21.3242949752       -7.3737493232       20.4822728508  SOLV      5922            0.0000000000
     17886      5933  TIP3      H2            -20.5171649752       -6.7524293232       21.6022628508  SOLV      5922            0.0000000000
     17887      5934  TIP3      OH2           -17.4569649752      -10.5961393232       24.0565628508  SOLV      5923            0.0000000000
     17888      5934  TIP3      H1            -18.0113349752      -10.9923393232       23.3843128508  SOLV      5923            0.0000000000
     17889      5934  TIP3      H2            -17.3566049752       -9.6856193232       23.7788928508  SOLV      5923            0.0000000000
     17890      5935  TIP3      OH2           -19.1617949752       -1.8100993232       24.5217728508  SOLV      5924            0.0000000000
     17891      5935  TIP3      H1            -19.5346849752       -2.6357193232       24.8308328508  SOLV      5924            0.0000000000
     17892      5935  TIP3      H2            -18.8844449752       -1.9931593232       23.6241128508  SOLV      5924            0.0000000000
     17893      5936  TIP3      OH2           -21.7692349752       -3.8335193232       22.3418328508  SOLV      5925            0.0000000000
     17894      5936  TIP3      H1            -21.4159249752       -4.2135393232       23.1461828508  SOLV      5925            0.0000000000
     17895      5936  TIP3      H2            -22.7178849752       -3.9270393232       22.4287628508  SOLV      5925            0.0000000000
     17896      5937  TIP3      OH2           -17.2657949752        0.6457306768       22.5428528508  SOLV      5926            0.0000000000
     17897      5937  TIP3      H1            -16.5220049752        1.2317806768       22.4030128508  SOLV      5926            0.0000000000
     17898      5937  TIP3      H2            -17.9599849752        1.2143106768       22.8760928508  SOLV      5926            0.0000000000
     17899      5938  TIP3      OH2           -20.9033049752       -5.1613193232       24.5686228508  SOLV      5927            0.0000000000
     17900      5938  TIP3      H1            -21.1805449752       -5.8893893232       25.1247328508  SOLV      5927            0.0000000000
     17901      5938  TIP3      H2            -19.9760049752       -5.0421193232       24.7738828508  SOLV      5927            0.0000000000
     17902      5939  TIP3      OH2           -27.6784549752       -2.7219093232       20.7888328508  SOLV      5928            0.0000000000
     17903      5939  TIP3      H1            -27.4394749752       -3.4700993232       20.2417228508  SOLV      5928            0.0000000000
     17904      5939  TIP3      H2            -27.9473249752       -3.1097393232       21.6216128508  SOLV      5928            0.0000000000
     17905      5940  TIP3      OH2           -26.0036749752       -1.4541693232       23.9945128508  SOLV      5929            0.0000000000
     17906      5940  TIP3      H1            -26.8200649752       -0.9571993232       24.0469428508  SOLV      5929            0.0000000000
     17907      5940  TIP3      H2            -25.4740449752       -0.9788193232       23.3543928508  SOLV      5929            0.0000000000
     17908      5941  TIP3      OH2           -25.6402749752       -0.8587693232       20.9274328508  SOLV      5930            0.0000000000
     17909      5941  TIP3      H1            -26.2841749752       -1.4899093232       21.2488028508  SOLV      5930            0.0000000000
     17910      5941  TIP3      H2            -24.8784449752       -1.3899693232       20.6957828508  SOLV      5930            0.0000000000
     17911      5942  TIP3      OH2           -21.0359849752       -1.0417793232       21.1612328508  SOLV      5931            0.0000000000
     17912      5942  TIP3      H1            -20.7529449752       -1.8362593232       21.6139228508  SOLV      5931            0.0000000000
     17913      5942  TIP3      H2            -20.2961949752       -0.8086793232       20.6003428508  SOLV      5931            0.0000000000
     17914      5943  TIP3      OH2           -24.7289149752       -4.0851193232       20.7545228508  SOLV      5932            0.0000000000
     17915      5943  TIP3      H1            -24.9975049752       -3.9049093232       21.6554128508  SOLV      5932            0.0000000000
     17916      5943  TIP3      H2            -24.9353549752       -5.0104993232       20.6231028508  SOLV      5932            0.0000000000
     17917      5944  TIP3      OH2           -18.4710049752       -6.5620693232       21.0326528508  SOLV      5933            0.0000000000
     17918      5944  TIP3      H1            -18.7445249752       -6.9865193232       20.2194828508  SOLV      5933            0.0000000000
     17919      5944  TIP3      H2            -18.4315949752       -5.6306193232       20.8156928508  SOLV      5933            0.0000000000
     17920      5945  TIP3      OH2           -27.9636649752        1.7738806768       22.5882028508  SOLV      5934            0.0000000000
     17921      5945  TIP3      H1            -27.0305949752        1.9317506768       22.7320428508  SOLV      5934            0.0000000000
     17922      5945  TIP3      H2            -28.2277849752        2.4491806768       21.9633528508  SOLV      5934            0.0000000000
     17923      5946  TIP3      OH2           -18.0127249752       -5.6932593232       25.0076928508  SOLV      5935            0.0000000000
     17924      5946  TIP3      H1            -17.1625849752       -5.2721693232       25.1348528508  SOLV      5935            0.0000000000
     17925      5946  TIP3      H2            -18.0072149752       -6.4332493232       25.6148328508  SOLV      5935            0.0000000000
     17926      5947  TIP3      OH2           -17.3498549752       -7.7386693232       23.2223928508  SOLV      5936            0.0000000000
     17927      5947  TIP3      H1            -17.8717449752       -7.3822593232       22.5034828508  SOLV      5936            0.0000000000
     17928      5947  TIP3      H2            -17.3829349752       -7.0638893232       23.9004828508  SOLV      5936            0.0000000000
     17929      5948  TIP3      OH2           -19.0009549752      -10.4991093232       21.7731028508  SOLV      5937            0.0000000000
     17930      5948  TIP3      H1            -18.9045149752       -9.8324093232       21.0930728508  SOLV      5937            0.0000000000
     17931      5948  TIP3      H2            -19.1409949752      -11.3144793232       21.2916528508  SOLV      5937            0.0000000000
     17932      5949  TIP3      OH2           -19.7535749752      -13.0911293232       20.8906528508  SOLV      5938            0.0000000000
     17933      5949  TIP3      H1            -19.1429949752      -13.4624493232       21.5274728508  SOLV      5938            0.0000000000
     17934      5949  TIP3      H2            -20.5904249752      -13.5124393232       21.0866528508  SOLV      5938            0.0000000000
     17935      5950  TIP3      OH2           -17.6409049752      -14.2055493232       22.4328728508  SOLV      5939            0.0000000000
     17936      5950  TIP3      H1            -17.2286449752      -14.9269793232       21.9576728508  SOLV      5939            0.0000000000
     17937      5950  TIP3      H2            -16.9592549752      -13.5360893232       22.4913028508  SOLV      5939            0.0000000000
     17938      5951  TIP3      OH2           -20.5891149752        0.7833906768       27.5056828508  SOLV      5940            0.0000000000
     17939      5951  TIP3      H1            -19.9368249752        0.4356006768       26.8975928508  SOLV      5940            0.0000000000
     17940      5951  TIP3      H2            -20.0787349752        1.2717106768       28.1516528508  SOLV      5940            0.0000000000
     17941      5952  TIP3      OH2           -25.3182749752        0.9997006768       22.8337328508  SOLV      5941            0.0000000000
     17942      5952  TIP3      H1            -24.4522549752        1.3664406768       22.6555528508  SOLV      5941            0.0000000000
     17943      5952  TIP3      H2            -25.5649949752        0.5605006768       22.0198128508  SOLV      5941            0.0000000000
     17944      5953  TIP3      OH2           -18.6093149752        0.5627306768       25.5128428508  SOLV      5942            0.0000000000
     17945      5953  TIP3      H1            -18.8036049752       -0.1850593232       24.9478028508  SOLV      5942            0.0000000000
     17946      5953  TIP3      H2            -18.6483049752        1.3207406768       24.9296328508  SOLV      5942            0.0000000000
     17947      5954  TIP3      OH2            -4.9856549752       -6.7995893232       27.6937428508  SOLV      5943            0.0000000000
     17948      5954  TIP3      H1             -4.8965449752       -5.8557693232       27.5614528508  SOLV      5943            0.0000000000
     17949      5954  TIP3      H2             -5.6238949752       -7.0749493232       27.0356828508  SOLV      5943            0.0000000000
     17950      5955  TIP3      OH2            -6.0525249752       -7.5445193232       31.1125628508  SOLV      5944            0.0000000000
     17951      5955  TIP3      H1             -6.0907749752       -8.1908893232       31.8175228508  SOLV      5944            0.0000000000
     17952      5955  TIP3      H2             -6.3748749752       -8.0110793232       30.3414328508  SOLV      5944            0.0000000000
     17953      5956  TIP3      OH2            -2.3465049752       -4.6054793232       29.4140728508  SOLV      5945            0.0000000000
     17954      5956  TIP3      H1             -2.7872349752       -5.3258793232       29.8646328508  SOLV      5945            0.0000000000
     17955      5956  TIP3      H2             -2.3595349752       -3.8847593232       30.0438428508  SOLV      5945            0.0000000000
     17956      5957  TIP3      OH2            -5.2349549752        0.4986906768       29.6261128508  SOLV      5946            0.0000000000
     17957      5957  TIP3      H1             -4.6153149752       -0.1778393232       29.3530328508  SOLV      5946            0.0000000000
     17958      5957  TIP3      H2             -5.4432149752        0.2807706768       30.5346028508  SOLV      5946            0.0000000000
     17959      5958  TIP3      OH2            -7.6630849752       -5.1123793232       31.5186628508  SOLV      5947            0.0000000000
     17960      5958  TIP3      H1             -7.3592949752       -5.7982393232       30.9240728508  SOLV      5947            0.0000000000
     17961      5958  TIP3      H2             -6.9416849752       -4.9935093232       32.1364628508  SOLV      5947            0.0000000000
     17962      5959  TIP3      OH2             0.9998950248      -13.5108493232       32.3792828508  SOLV      5948            0.0000000000
     17963      5959  TIP3      H1              1.0491150248      -12.9007293232       33.1151928508  SOLV      5948            0.0000000000
     17964      5959  TIP3      H2              1.4254050248      -13.0497593232       31.6563928508  SOLV      5948            0.0000000000
     17965      5960  TIP3      OH2            -4.5223849752      -10.7181393232       31.8461428508  SOLV      5949            0.0000000000
     17966      5960  TIP3      H1             -4.3797949752      -11.6644393232       31.8663028508  SOLV      5949            0.0000000000
     17967      5960  TIP3      H2             -4.6284849752      -10.5111593232       30.9176328508  SOLV      5949            0.0000000000
     17968      5961  TIP3      OH2            -3.6452849752      -12.4859393232       27.5194528508  SOLV      5950            0.0000000000
     17969      5961  TIP3      H1             -2.9988549752      -12.8146193232       28.1442128508  SOLV      5950            0.0000000000
     17970      5961  TIP3      H2             -3.1353449752      -11.9680393232       26.8965928508  SOLV      5950            0.0000000000
     17971      5962  TIP3      OH2            -9.5909549752       -8.6697893232       29.0959128508  SOLV      5951            0.0000000000
     17972      5962  TIP3      H1             -8.9748549752       -9.1962493232       29.6053128508  SOLV      5951            0.0000000000
     17973      5962  TIP3      H2            -10.1770749752       -9.3099193232       28.6922728508  SOLV      5951            0.0000000000
     17974      5963  TIP3      OH2             1.3913550248      -12.0329293232       34.6152628508  SOLV      5952            0.0000000000
     17975      5963  TIP3      H1              0.7028150248      -11.3748593232       34.5199228508  SOLV      5952            0.0000000000
     17976      5963  TIP3      H2              1.4068150248      -12.2301393232       35.5518028508  SOLV      5952            0.0000000000
     17977      5964  TIP3      OH2            -5.1883849752       -4.1985493232       26.7366128508  SOLV      5953            0.0000000000
     17978      5964  TIP3      H1             -5.4838749752       -4.5213193232       25.8853028508  SOLV      5953            0.0000000000
     17979      5964  TIP3      H2             -5.5126049752       -3.2988793232       26.7778728508  SOLV      5953            0.0000000000
     17980      5965  TIP3      OH2            -1.8814449752      -13.1950093232       29.5000428508  SOLV      5954            0.0000000000
     17981      5965  TIP3      H1             -2.0966449752      -13.9606693232       30.0326428508  SOLV      5954            0.0000000000
     17982      5965  TIP3      H2             -1.2257049752      -12.7225493232       30.0128928508  SOLV      5954            0.0000000000
     17983      5966  TIP3      OH2           -15.4597049752       -4.3879993232       25.0491528508  SOLV      5955            0.0000000000
     17984      5966  TIP3      H1            -15.7316149752       -4.1588993232       24.1604428508  SOLV      5955            0.0000000000
     17985      5966  TIP3      H2            -15.4141349752       -3.5501193232       25.5096828508  SOLV      5955            0.0000000000
     17986      5967  TIP3      OH2            -1.8347349752       -2.7664093232       31.7620028508  SOLV      5956            0.0000000000
     17987      5967  TIP3      H1             -2.7763649752       -2.7080193232       31.9236928508  SOLV      5956            0.0000000000
     17988      5967  TIP3      H2             -1.5581249752       -1.8603593232       31.6249728508  SOLV      5956            0.0000000000
     17989      5968  TIP3      OH2            -1.5340349752      -14.4798793232       33.1793928508  SOLV      5957            0.0000000000
     17990      5968  TIP3      H1             -2.2701149752      -13.8691693232       33.1415228508  SOLV      5957            0.0000000000
     17991      5968  TIP3      H2             -0.8506349752      -14.0649793232       32.6530328508  SOLV      5957            0.0000000000
     17992      5969  TIP3      OH2            -3.5826149752       -0.9850593232       28.3871628508  SOLV      5958            0.0000000000
     17993      5969  TIP3      H1             -3.1573849752       -1.6922693232       27.9021228508  SOLV      5958            0.0000000000
     17994      5969  TIP3      H2             -3.2656149752       -0.1837893232       27.9703828508  SOLV      5958            0.0000000000
     17995      5970  TIP3      OH2            -2.4229649752       -3.0842093232       26.8958228508  SOLV      5959            0.0000000000
     17996      5970  TIP3      H1             -2.6804849752       -3.7741993232       26.2844128508  SOLV      5959            0.0000000000
     17997      5970  TIP3      H2             -2.3518849752       -3.5270893232       27.7414128508  SOLV      5959            0.0000000000
     17998      5971  TIP3      OH2            -0.7369449752       -4.5175393232       35.3731728508  SOLV      5960            0.0000000000
     17999      5971  TIP3      H1             -0.5973149752       -5.1092893232       34.6338728508  SOLV      5960            0.0000000000
     18000      5971  TIP3      H2             -0.5696649752       -3.6449493232       35.0170528508  SOLV      5960            0.0000000000
     18001      5972  TIP3      OH2            -6.2644049752       -7.5555893232       25.1457728508  SOLV      5961            0.0000000000
     18002      5972  TIP3      H1             -6.9758549752       -7.0206193232       24.7938228508  SOLV      5961            0.0000000000
     18003      5972  TIP3      H2             -5.5734449752       -7.5003793232       24.4856628508  SOLV      5961            0.0000000000
     18004      5973  TIP3      OH2            -6.2104849752       -9.0981593232       22.1842728508  SOLV      5962            0.0000000000
     18005      5973  TIP3      H1             -5.5094949752       -9.0754693232       22.8356728508  SOLV      5962            0.0000000000
     18006      5973  TIP3      H2             -5.9081949752       -9.7261893232       21.5282028508  SOLV      5962            0.0000000000
     18007      5974  TIP3      OH2             1.1049850248       -8.1777393232       33.4392128508  SOLV      5963            0.0000000000
     18008      5974  TIP3      H1              0.4523950248       -7.4831793232       33.5283028508  SOLV      5963            0.0000000000
     18009      5974  TIP3      H2              1.5700150248       -7.9676493232       32.6293728508  SOLV      5963            0.0000000000
     18010      5975  TIP3      OH2            -2.8586349752       -7.3462593232       26.0973628508  SOLV      5964            0.0000000000
     18011      5975  TIP3      H1             -3.5905349752       -7.1178893232       26.6704228508  SOLV      5964            0.0000000000
     18012      5975  TIP3      H2             -2.4114149752       -8.0599893232       26.5521128508  SOLV      5964            0.0000000000
     18013      5976  TIP3      OH2           -11.2132649752       -6.7156393232       27.9798628508  SOLV      5965            0.0000000000
     18014      5976  TIP3      H1            -11.5437449752       -7.0862993232       27.1615628508  SOLV      5965            0.0000000000
     18015      5976  TIP3      H2            -10.6248549752       -7.3862393232       28.3266928508  SOLV      5965            0.0000000000
     18016      5977  TIP3      OH2            -9.8465149752       -3.2875793232       30.6610828508  SOLV      5966            0.0000000000
     18017      5977  TIP3      H1             -9.9413849752       -3.8662693232       29.9045428508  SOLV      5966            0.0000000000
     18018      5977  TIP3      H2             -9.1171549752       -3.6590093232       31.1573628508  SOLV      5966            0.0000000000
     18019      5978  TIP3      OH2            -4.5374949752       -2.4438893232       32.3474128508  SOLV      5967            0.0000000000
     18020      5978  TIP3      H1             -4.7778349752       -1.7815793232       32.9953328508  SOLV      5967            0.0000000000
     18021      5978  TIP3      H2             -4.7356749752       -3.2783693232       32.7723728508  SOLV      5967            0.0000000000
     18022      5979  TIP3      OH2            -3.9876849752       -8.1839693232       23.7824828508  SOLV      5968            0.0000000000
     18023      5979  TIP3      H1             -3.4081349752       -8.0339393232       24.5293728508  SOLV      5968            0.0000000000
     18024      5979  TIP3      H2             -3.5736849752       -7.7132293232       23.0591228508  SOLV      5968            0.0000000000
     18025      5980  TIP3      OH2            -6.2611949752       -1.4471193232       27.2177928508  SOLV      5969            0.0000000000
     18026      5980  TIP3      H1             -5.7874349752       -1.1514893232       27.9952128508  SOLV      5969            0.0000000000
     18027      5980  TIP3      H2             -6.8242649752       -0.7089593232       26.9847528508  SOLV      5969            0.0000000000
     18028      5981  TIP3      OH2            -0.2888449752      -16.4339293232       23.5954528508  SOLV      5970            0.0000000000
     18029      5981  TIP3      H1             -1.1887749752      -16.2950293232       23.8905128508  SOLV      5970            0.0000000000
     18030      5981  TIP3      H2             -0.0370049752      -15.6024693232       23.1936228508  SOLV      5970            0.0000000000
     18031      5982  TIP3      OH2             0.9002950248       -2.0676893232       21.9718428508  SOLV      5971            0.0000000000
     18032      5982  TIP3      H1              0.9736450248       -1.1286693232       22.1423728508  SOLV      5971            0.0000000000
     18033      5982  TIP3      H2              1.8058050248       -2.3728293232       21.9155728508  SOLV      5971            0.0000000000
     18034      5983  TIP3      OH2            -6.7888849752        1.5093506768       25.6327128508  SOLV      5972            0.0000000000
     18035      5983  TIP3      H1             -6.8642849752        1.3880706768       24.6862328508  SOLV      5972            0.0000000000
     18036      5983  TIP3      H2             -6.7560149752        2.4586206768       25.7511728508  SOLV      5972            0.0000000000
     18037      5984  TIP3      OH2           -13.1355049752        0.2980506768       27.4136128508  SOLV      5973            0.0000000000
     18038      5984  TIP3      H1            -12.9834649752       -0.0499093232       28.2922628508  SOLV      5973            0.0000000000
     18039      5984  TIP3      H2            -13.9864649752       -0.0582193232       27.1583328508  SOLV      5973            0.0000000000
     18040      5985  TIP3      OH2            -3.6872849752        0.6633706768       22.6349528508  SOLV      5974            0.0000000000
     18041      5985  TIP3      H1             -3.3124449752       -0.0810193232       22.1642128508  SOLV      5974            0.0000000000
     18042      5985  TIP3      H2             -3.6829149752        0.3934306768       23.5532828508  SOLV      5974            0.0000000000
     18043      5986  TIP3      OH2            -4.0184749752        0.5890806768       25.3841728508  SOLV      5975            0.0000000000
     18044      5986  TIP3      H1             -4.9534949752        0.6892706768       25.5628728508  SOLV      5975            0.0000000000
     18045      5986  TIP3      H2             -3.7382849752       -0.1203193232       25.9624928508  SOLV      5975            0.0000000000
     18046      5987  TIP3      OH2            -2.5103749752       -7.1511393232       21.4122728508  SOLV      5976            0.0000000000
     18047      5987  TIP3      H1             -2.4682949752       -7.3737493232       20.4822728508  SOLV      5976            0.0000000000
     18048      5987  TIP3      H2             -1.6611649752       -6.7524293232       21.6022628508  SOLV      5976            0.0000000000
     18049      5988  TIP3      OH2            -6.9376249752      -13.2753193232       22.0826028508  SOLV      5977            0.0000000000
     18050      5988  TIP3      H1             -7.1911449752      -13.2561593232       23.0054128508  SOLV      5977            0.0000000000
     18051      5988  TIP3      H2             -7.1944149752      -14.1467793232       21.7812228508  SOLV      5977            0.0000000000
     18052      5989  TIP3      OH2           -11.1742149752      -10.3032393232       27.4298428508  SOLV      5978            0.0000000000
     18053      5989  TIP3      H1            -12.0669249752      -10.6436293232       27.3712228508  SOLV      5978            0.0000000000
     18054      5989  TIP3      H2            -10.7235549752      -10.6801493232       26.6741628508  SOLV      5978            0.0000000000
     18055      5990  TIP3      OH2            -5.6386649752       -9.8872093232       26.2469228508  SOLV      5979            0.0000000000
     18056      5990  TIP3      H1             -6.0476349752       -9.0723493232       25.9554028508  SOLV      5979            0.0000000000
     18057      5990  TIP3      H2             -4.9180449752      -10.0271993232       25.6326328508  SOLV      5979            0.0000000000
     18058      5991  TIP3      OH2            -4.6338949752      -10.4411693232       29.0608928508  SOLV      5980            0.0000000000
     18059      5991  TIP3      H1             -4.8294449752       -9.8354893232       28.3459528508  SOLV      5980            0.0000000000
     18060      5991  TIP3      H2             -4.4526349752      -11.2746493232       28.6265228508  SOLV      5980            0.0000000000
     18061      5992  TIP3      OH2           -10.0553349752      -12.8296693232       21.1836428508  SOLV      5981            0.0000000000
     18062      5992  TIP3      H1            -10.4862649752      -13.2746593232       21.9133828508  SOLV      5981            0.0000000000
     18063      5992  TIP3      H2            -10.7734649752      -12.4580393232       20.6713928508  SOLV      5981            0.0000000000
     18064      5993  TIP3      OH2           -15.5387849752      -12.3415193232       23.6595528508  SOLV      5982            0.0000000000
     18065      5993  TIP3      H1            -15.0646149752      -11.7505293232       23.0746428508  SOLV      5982            0.0000000000
     18066      5993  TIP3      H2            -16.2561449752      -11.8112293232       24.0065628508  SOLV      5982            0.0000000000
     18067      5994  TIP3      OH2            -8.5926849752      -12.8754893232       28.5162528508  SOLV      5983            0.0000000000
     18068      5994  TIP3      H1             -9.5035749752      -12.8188093232       28.8048528508  SOLV      5983            0.0000000000
     18069      5994  TIP3      H2             -8.0873949752      -12.9359393232       29.3269728508  SOLV      5983            0.0000000000
     18070      5995  TIP3      OH2           -11.4371449752      -10.0523793232       22.5660828508  SOLV      5984            0.0000000000
     18071      5995  TIP3      H1            -11.9796349752      -10.4319993232       21.8748428508  SOLV      5984            0.0000000000
     18072      5995  TIP3      H2            -10.6036549752       -9.8579093232       22.1374928508  SOLV      5984            0.0000000000
     18073      5996  TIP3      OH2            -7.2727149752      -10.0881893232       30.4032128508  SOLV      5985            0.0000000000
     18074      5996  TIP3      H1             -6.7083749752      -10.6345293232       29.8561728508  SOLV      5985            0.0000000000
     18075      5996  TIP3      H2             -7.4203749752      -10.6099993232       31.1919728508  SOLV      5985            0.0000000000
     18076      5997  TIP3      OH2           -12.2707449752      -13.9515793232       26.8216928508  SOLV      5986            0.0000000000
     18077      5997  TIP3      H1            -12.5877949752      -14.8540493232       26.7862328508  SOLV      5986            0.0000000000
     18078      5997  TIP3      H2            -11.4893349752      -13.9498393232       26.2688528508  SOLV      5986            0.0000000000
     18079      5998  TIP3      OH2            -8.1018649752       -5.4868093232       24.5018928508  SOLV      5987            0.0000000000
     18080      5998  TIP3      H1             -8.8467649752       -5.9942793232       24.1796828508  SOLV      5987            0.0000000000
     18081      5998  TIP3      H2             -8.2361449752       -5.4380093232       25.4483728508  SOLV      5987            0.0000000000
     18082      5999  TIP3      OH2            -0.9519749752       -6.3539893232       33.2886528508  SOLV      5988            0.0000000000
     18083      5999  TIP3      H1             -0.3100949752       -5.8973593232       32.7448728508  SOLV      5988            0.0000000000
     18084      5999  TIP3      H2             -1.7822849752       -6.2407493232       32.8260628508  SOLV      5988            0.0000000000
     18085      6000  TIP3      OH2            -4.2041849752      -12.6728193232       22.7011528508  SOLV      5989            0.0000000000
     18086      6000  TIP3      H1             -5.1427649752      -12.5612593232       22.5500328508  SOLV      5989            0.0000000000
     18087      6000  TIP3      H2             -3.9069749752      -11.8161293232       23.0077228508  SOLV      5989            0.0000000000
     18088      6001  TIP3      OH2            -3.4858349752      -10.8055493232       24.3618928508  SOLV      5990            0.0000000000
     18089      6001  TIP3      H1             -2.5939349752      -10.9430493232       24.6810128508  SOLV      5990            0.0000000000
     18090      6001  TIP3      H2             -3.4294749752      -10.0149393232       23.8252428508  SOLV      5990            0.0000000000
     18091      6002  TIP3      OH2            -5.9764549752       -4.0283793232       23.5273528508  SOLV      5991            0.0000000000
     18092      6002  TIP3      H1             -6.2716149752       -3.2015893232       23.9088328508  SOLV      5991            0.0000000000
     18093      6002  TIP3      H2             -6.6794549752       -4.6476893232       23.7234928508  SOLV      5991            0.0000000000
     18094      6003  TIP3      OH2             1.3990350248      -10.5961393232       24.0565628508  SOLV      5992            0.0000000000
     18095      6003  TIP3      H1              0.8446650248      -10.9923393232       23.3843128508  SOLV      5992            0.0000000000
     18096      6003  TIP3      H2              1.4993950248       -9.6856193232       23.7788928508  SOLV      5992            0.0000000000
     18097      6004  TIP3      OH2            -0.3057949752       -1.8100993232       24.5217728508  SOLV      5993            0.0000000000
     18098      6004  TIP3      H1             -0.6786849752       -2.6357193232       24.8308328508  SOLV      5993            0.0000000000
     18099      6004  TIP3      H2             -0.0284449752       -1.9931593232       23.6241128508  SOLV      5993            0.0000000000
     18100      6005  TIP3      OH2            -3.1454049752       -7.0021493232       31.5429628508  SOLV      5994            0.0000000000
     18101      6005  TIP3      H1             -4.0737149752       -7.2339593232       31.5158928508  SOLV      5994            0.0000000000
     18102      6005  TIP3      H2             -2.6942949752       -7.7791693232       31.2128428508  SOLV      5994            0.0000000000
     18103      6006  TIP3      OH2           -10.6020949752       -2.6739893232       27.6758328508  SOLV      5995            0.0000000000
     18104      6006  TIP3      H1            -10.0748749752       -1.9005493232       27.4757128508  SOLV      5995            0.0000000000
     18105      6006  TIP3      H2            -11.4822449752       -2.4490693232       27.3742328508  SOLV      5995            0.0000000000
     18106      6007  TIP3      OH2           -14.8473249752       -7.8115793232       22.2630728508  SOLV      5996            0.0000000000
     18107      6007  TIP3      H1            -14.2313349752       -7.1848593232       22.6425528508  SOLV      5996            0.0000000000
     18108      6007  TIP3      H2            -15.7090649752       -7.4955993232       22.5347228508  SOLV      5996            0.0000000000
     18109      6008  TIP3      OH2            -9.1748649752       -5.0109993232       27.2522628508  SOLV      5997            0.0000000000
     18110      6008  TIP3      H1             -9.4158649752       -4.0855593232       27.2937928508  SOLV      5997            0.0000000000
     18111      6008  TIP3      H2             -9.9155049752       -5.4698693232       27.6486528508  SOLV      5997            0.0000000000
     18112      6009  TIP3      OH2            -8.6602049752       -0.8616393232       33.5673728508  SOLV      5998            0.0000000000
     18113      6009  TIP3      H1             -8.2977349752       -0.0070793232       33.3338128508  SOLV      5998            0.0000000000
     18114      6009  TIP3      H2             -8.1286849752       -1.1534793232       34.3080028508  SOLV      5998            0.0000000000
     18115      6010  TIP3      OH2           -10.4917849752        0.0107606768       26.7974828508  SOLV      5999            0.0000000000
     18116      6010  TIP3      H1            -11.4417349752        0.1165006768       26.8488128508  SOLV      5999            0.0000000000
     18117      6010  TIP3      H2            -10.1399749752        0.8315006768       27.1422328508  SOLV      5999            0.0000000000
     18118      6011  TIP3      OH2            -5.1161249752       -4.7625693232       33.2679328508  SOLV      6000            0.0000000000
     18119      6011  TIP3      H1             -5.5419949752       -4.9903993232       34.0943328508  SOLV      6000            0.0000000000
     18120      6011  TIP3      H2             -4.5355449752       -5.5013893232       33.0854628508  SOLV      6000            0.0000000000
     18121      6012  TIP3      OH2            -2.9132349752       -3.8335193232       22.3418328508  SOLV      6001            0.0000000000
     18122      6012  TIP3      H1             -2.5599249752       -4.2135393232       23.1461828508  SOLV      6001            0.0000000000
     18123      6012  TIP3      H2             -3.8618849752       -3.9270393232       22.4287628508  SOLV      6001            0.0000000000
     18124      6013  TIP3      OH2             1.5902050248        0.6457306768       22.5428528508  SOLV      6002            0.0000000000
     18125      6013  TIP3      H1              2.3339950248        1.2317806768       22.4030128508  SOLV      6002            0.0000000000
     18126      6013  TIP3      H2              0.8960150248        1.2143106768       22.8760928508  SOLV      6002            0.0000000000
     18127      6014  TIP3      OH2            -2.0473049752       -5.1613193232       24.5686228508  SOLV      6003            0.0000000000
     18128      6014  TIP3      H1             -2.3245449752       -5.8893893232       25.1247328508  SOLV      6003            0.0000000000
     18129      6014  TIP3      H2             -1.1200049752       -5.0421193232       24.7738828508  SOLV      6003            0.0000000000
     18130      6015  TIP3      OH2            -8.8224549752       -2.7219093232       20.7888328508  SOLV      6004            0.0000000000
     18131      6015  TIP3      H1             -8.5834749752       -3.4700993232       20.2417228508  SOLV      6004            0.0000000000
     18132      6015  TIP3      H2             -9.0913249752       -3.1097393232       21.6216128508  SOLV      6004            0.0000000000
     18133      6016  TIP3      OH2            -9.8853949752       -3.1515293232       23.2450928508  SOLV      6005            0.0000000000
     18134      6016  TIP3      H1             -9.7385949752       -3.6715493232       24.0351828508  SOLV      6005            0.0000000000
     18135      6016  TIP3      H2             -9.8882249752       -2.2447693232       23.5516828508  SOLV      6005            0.0000000000
     18136      6017  TIP3      OH2           -13.4322849752       -5.8991993232       23.7556328508  SOLV      6006            0.0000000000
     18137      6017  TIP3      H1            -14.1183549752       -5.5469493232       24.3226028508  SOLV      6006            0.0000000000
     18138      6017  TIP3      H2            -12.9094949752       -5.1362393232       23.5090628508  SOLV      6006            0.0000000000
     18139      6018  TIP3      OH2            -4.8162849752      -13.5846493232       25.1317628508  SOLV      6007            0.0000000000
     18140      6018  TIP3      H1             -4.5964549752      -13.1131093232       24.3283028508  SOLV      6007            0.0000000000
     18141      6018  TIP3      H2             -4.2578849752      -13.1903893232       25.8018228508  SOLV      6007            0.0000000000
     18142      6019  TIP3      OH2            -7.1476749752       -1.4541693232       23.9945128508  SOLV      6008            0.0000000000
     18143      6019  TIP3      H1             -7.9640649752       -0.9571993232       24.0469428508  SOLV      6008            0.0000000000
     18144      6019  TIP3      H2             -6.6180449752       -0.9788193232       23.3543928508  SOLV      6008            0.0000000000
     18145      6020  TIP3      OH2            -7.6162949752      -11.8567693232       25.9666028508  SOLV      6009            0.0000000000
     18146      6020  TIP3      H1             -6.8040349752      -11.3524493232       26.0127728508  SOLV      6009            0.0000000000
     18147      6020  TIP3      H2             -7.8609949752      -12.0017993232       26.8805628508  SOLV      6009            0.0000000000
     18148      6021  TIP3      OH2            -6.7326249752      -14.7754693232       26.9047128508  SOLV      6010            0.0000000000
     18149      6021  TIP3      H1             -7.0792749752      -14.1584093232       27.5491428508  SOLV      6010            0.0000000000
     18150      6021  TIP3      H2             -6.0739349752      -14.2748993232       26.4232628508  SOLV      6010            0.0000000000
     18151      6022  TIP3      OH2            -9.8093649752       -0.4104493232       23.9762028508  SOLV      6011            0.0000000000
     18152      6022  TIP3      H1             -9.6484949752        0.3893006768       23.4754628508  SOLV      6011            0.0000000000
     18153      6022  TIP3      H2            -10.0065849752       -0.1038493232       24.8612628508  SOLV      6011            0.0000000000
     18154      6023  TIP3      OH2           -11.0749249752      -13.7125293232       23.5919628508  SOLV      6012            0.0000000000
     18155      6023  TIP3      H1            -11.1584449752      -12.8242193232       23.9386028508  SOLV      6012            0.0000000000
     18156      6023  TIP3      H2            -10.1848949752      -13.9778593232       23.8236428508  SOLV      6012            0.0000000000
     18157      6024  TIP3      OH2            -2.2739749752       -9.2133693232       30.0819628508  SOLV      6013            0.0000000000
     18158      6024  TIP3      H1             -3.0715349752       -9.6283493232       29.7534628508  SOLV      6013            0.0000000000
     18159      6024  TIP3      H2             -1.8288649752       -9.9039993232       30.5730128508  SOLV      6013            0.0000000000
     18160      6025  TIP3      OH2           -12.8163949752       -3.2853093232       22.6524128508  SOLV      6014            0.0000000000
     18161      6025  TIP3      H1            -12.2242449752       -2.5858293232       22.9286528508  SOLV      6014            0.0000000000
     18162      6025  TIP3      H2            -12.3570949752       -3.7183593232       21.9328728508  SOLV      6014            0.0000000000
     18163      6026  TIP3      OH2           -14.5004749752      -10.6210093232       21.7683528508  SOLV      6015            0.0000000000
     18164      6026  TIP3      H1            -14.5452149752       -9.6816993232       21.9470528508  SOLV      6015            0.0000000000
     18165      6026  TIP3      H2            -15.3881549752      -10.8565193232       21.4985628508  SOLV      6015            0.0000000000
     18166      6027  TIP3      OH2            -1.1875149752        0.0428806768       31.7043128508  SOLV      6016            0.0000000000
     18167      6027  TIP3      H1             -1.3430849752        0.7213206768       31.0472428508  SOLV      6016            0.0000000000
     18168      6027  TIP3      H2             -0.2548749752        0.1148106768       31.9073728508  SOLV      6016            0.0000000000
     18169      6028  TIP3      OH2           -14.7619449752       -1.8986393232       26.6020328508  SOLV      6017            0.0000000000
     18170      6028  TIP3      H1            -15.5940849752       -1.4263693232       26.6291728508  SOLV      6017            0.0000000000
     18171      6028  TIP3      H2            -14.2161149752       -1.3888793232       26.0033428508  SOLV      6017            0.0000000000
     18172      6029  TIP3      OH2            -6.7842749752       -0.8587693232       20.9274328508  SOLV      6018            0.0000000000
     18173      6029  TIP3      H1             -7.4281749752       -1.4899093232       21.2488028508  SOLV      6018            0.0000000000
     18174      6029  TIP3      H2             -6.0224449752       -1.3899693232       20.6957828508  SOLV      6018            0.0000000000
     18175      6030  TIP3      OH2            -2.1799849752       -1.0417793232       21.1612328508  SOLV      6019            0.0000000000
     18176      6030  TIP3      H1             -1.8969449752       -1.8362593232       21.6139228508  SOLV      6019            0.0000000000
     18177      6030  TIP3      H2             -1.4401949752       -0.8086793232       20.6003428508  SOLV      6019            0.0000000000
     18178      6031  TIP3      OH2           -11.2252549752       -5.1322893232       21.0187228508  SOLV      6020            0.0000000000
     18179      6031  TIP3      H1            -11.1608449752       -5.9263293232       21.5493628508  SOLV      6020            0.0000000000
     18180      6031  TIP3      H2            -10.5723349752       -5.2510093232       20.3289228508  SOLV      6020            0.0000000000
     18181      6032  TIP3      OH2            -5.8729149752       -4.0851193232       20.7545228508  SOLV      6021            0.0000000000
     18182      6032  TIP3      H1             -6.1415049752       -3.9049093232       21.6554128508  SOLV      6021            0.0000000000
     18183      6032  TIP3      H2             -6.0793549752       -5.0104993232       20.6231028508  SOLV      6021            0.0000000000
     18184      6033  TIP3      OH2            -9.0048349752       -8.9164893232       21.5868428508  SOLV      6022            0.0000000000
     18185      6033  TIP3      H1             -9.1853349752       -9.0713693232       20.6596728508  SOLV      6022            0.0000000000
     18186      6033  TIP3      H2             -8.0547849752       -8.8086193232       21.6316328508  SOLV      6022            0.0000000000
     18187      6034  TIP3      OH2             0.3849950248       -6.5620693232       21.0326528508  SOLV      6023            0.0000000000
     18188      6034  TIP3      H1              0.1114750248       -6.9865193232       20.2194828508  SOLV      6023            0.0000000000
     18189      6034  TIP3      H2              0.4244050248       -5.6306193232       20.8156928508  SOLV      6023            0.0000000000
     18190      6035  TIP3      OH2            -9.1076649752        1.7738806768       22.5882028508  SOLV      6024            0.0000000000
     18191      6035  TIP3      H1             -8.1745949752        1.9317506768       22.7320428508  SOLV      6024            0.0000000000
     18192      6035  TIP3      H2             -9.3717849752        2.4491806768       21.9633528508  SOLV      6024            0.0000000000
     18193      6036  TIP3      OH2           -15.5391749752       -3.5897393232       22.0710128508  SOLV      6025            0.0000000000
     18194      6036  TIP3      H1            -14.6252549752       -3.5108493232       22.3444028508  SOLV      6025            0.0000000000
     18195      6036  TIP3      H2            -15.5318649752       -4.2767793232       21.4045728508  SOLV      6025            0.0000000000
     18196      6037  TIP3      OH2           -16.8901149752        1.8031106768       27.1484028508  SOLV      6026            0.0000000000
     18197      6037  TIP3      H1            -17.5374049752        1.3412806768       26.6155228508  SOLV      6026            0.0000000000
     18198      6037  TIP3      H2            -16.5356549752        1.1314406768       27.7310228508  SOLV      6026            0.0000000000
     18199      6038  TIP3      OH2           -16.0201949752       -0.1161893232       28.9530228508  SOLV      6027            0.0000000000
     18200      6038  TIP3      H1            -16.3545149752       -0.9964593232       29.1250428508  SOLV      6027            0.0000000000
     18201      6038  TIP3      H2            -15.7979549752        0.2293106768       29.8175828508  SOLV      6027            0.0000000000
     18202      6039  TIP3      OH2             1.5282850248        0.6934506768       31.9335028508  SOLV      6028            0.0000000000
     18203      6039  TIP3      H1              1.5069550248        0.8782906768       32.8724428508  SOLV      6028            0.0000000000
     18204      6039  TIP3      H2              2.2189050248        1.2618506768       31.5926428508  SOLV      6028            0.0000000000
     18205      6040  TIP3      OH2             1.0915750248        0.2605606768       34.8554128508  SOLV      6029            0.0000000000
     18206      6040  TIP3      H1              0.6044450248       -0.4750293232       34.4841528508  SOLV      6029            0.0000000000
     18207      6040  TIP3      H2              1.6408450248       -0.1330493232       35.5333528508  SOLV      6029            0.0000000000
     18208      6041  TIP3      OH2             0.8432750248       -5.6932593232       25.0076928508  SOLV      6030            0.0000000000
     18209      6041  TIP3      H1              1.6934150248       -5.2721693232       25.1348528508  SOLV      6030            0.0000000000
     18210      6041  TIP3      H2              0.8487850248       -6.4332493232       25.6148328508  SOLV      6030            0.0000000000
     18211      6042  TIP3      OH2             1.2378350248       -7.6395193232       26.8312628508  SOLV      6031            0.0000000000
     18212      6042  TIP3      H1              0.5112950248       -8.1192593232       27.2290228508  SOLV      6031            0.0000000000
     18213      6042  TIP3      H2              1.8191650248       -7.4340493232       27.5634228508  SOLV      6031            0.0000000000
     18214      6043  TIP3      OH2             0.9969550248       -4.8547693232       31.7790228508  SOLV      6032            0.0000000000
     18215      6043  TIP3      H1              1.8303750248       -5.2327693232       31.4983828508  SOLV      6032            0.0000000000
     18216      6043  TIP3      H2              1.1089850248       -3.9116493232       31.6599328508  SOLV      6032            0.0000000000
     18217      6044  TIP3      OH2            -0.5168149752       -1.9770193232       34.0858628508  SOLV      6033            0.0000000000
     18218      6044  TIP3      H1             -1.1642849752       -1.6518693232       34.7113828508  SOLV      6033            0.0000000000
     18219      6044  TIP3      H2             -1.0344149752       -2.4172493232       33.4116928508  SOLV      6033            0.0000000000
     18220      6045  TIP3      OH2             1.5061450248       -7.7386693232       23.2223928508  SOLV      6034            0.0000000000
     18221      6045  TIP3      H1              0.9842550248       -7.3822593232       22.5034828508  SOLV      6034            0.0000000000
     18222      6045  TIP3      H2              1.4730650248       -7.0638893232       23.9004828508  SOLV      6034            0.0000000000
     18223      6046  TIP3      OH2            -0.1449549752      -10.4991093232       21.7731028508  SOLV      6035            0.0000000000
     18224      6046  TIP3      H1             -0.0485149752       -9.8324093232       21.0930728508  SOLV      6035            0.0000000000
     18225      6046  TIP3      H2             -0.2849949752      -11.3144793232       21.2916528508  SOLV      6035            0.0000000000
     18226      6047  TIP3      OH2            -0.9754849752       -9.1188693232       27.3941328508  SOLV      6036            0.0000000000
     18227      6047  TIP3      H1             -1.1256049752      -10.0640093232       27.3739128508  SOLV      6036            0.0000000000
     18228      6047  TIP3      H2             -1.3290349752       -8.8377293232       28.2380428508  SOLV      6036            0.0000000000
     18229      6048  TIP3      OH2            -0.8975749752      -13.0911293232       20.8906528508  SOLV      6037            0.0000000000
     18230      6048  TIP3      H1             -0.2869949752      -13.4624493232       21.5274728508  SOLV      6037            0.0000000000
     18231      6048  TIP3      H2             -1.7344249752      -13.5124393232       21.0866528508  SOLV      6037            0.0000000000
     18232      6049  TIP3      OH2            -1.2650049752      -11.5362893232       25.8566428508  SOLV      6038            0.0000000000
     18233      6049  TIP3      H1             -0.9852949752      -12.4432493232       25.9808128508  SOLV      6038            0.0000000000
     18234      6049  TIP3      H2             -0.5058349752      -11.1021393232       25.4675628508  SOLV      6038            0.0000000000
     18235      6050  TIP3      OH2            -0.6531749752      -10.9545493232       31.2925328508  SOLV      6039            0.0000000000
     18236      6050  TIP3      H1              0.2796250248      -10.7425593232       31.2581328508  SOLV      6039            0.0000000000
     18237      6050  TIP3      H2             -0.8884249752      -10.8533393232       32.2148328508  SOLV      6039            0.0000000000
     18238      6051  TIP3      OH2            -0.6239849752      -10.2180193232       34.0684728508  SOLV      6040            0.0000000000
     18239      6051  TIP3      H1             -1.4668549752       -9.9499793232       34.4344528508  SOLV      6040            0.0000000000
     18240      6051  TIP3      H2             -0.1815549752       -9.3958293232       33.8575828508  SOLV      6040            0.0000000000
     18241      6052  TIP3      OH2            -0.6515249752      -14.2733593232       25.9048428508  SOLV      6041            0.0000000000
     18242      6052  TIP3      H1             -0.4690249752      -14.7222093232       26.7303428508  SOLV      6041            0.0000000000
     18243      6052  TIP3      H2             -1.2512349752      -14.8579193232       25.4413028508  SOLV      6041            0.0000000000
     18244      6053  TIP3      OH2             1.2150950248      -14.2055493232       22.4328728508  SOLV      6042            0.0000000000
     18245      6053  TIP3      H1              1.6273550248      -14.9269793232       21.9576728508  SOLV      6042            0.0000000000
     18246      6053  TIP3      H2              1.8967450248      -13.5360893232       22.4913028508  SOLV      6042            0.0000000000
     18247      6054  TIP3      OH2            -1.7331149752        0.7833906768       27.5056828508  SOLV      6043            0.0000000000
     18248      6054  TIP3      H1             -1.0808249752        0.4356006768       26.8975928508  SOLV      6043            0.0000000000
     18249      6054  TIP3      H2             -1.2227349752        1.2717106768       28.1516528508  SOLV      6043            0.0000000000
     18250      6055  TIP3      OH2           -11.5251449752        1.5434306768       33.3844228508  SOLV      6044            0.0000000000
     18251      6055  TIP3      H1            -12.3899249752        1.6152806768       33.7884328508  SOLV      6044            0.0000000000
     18252      6055  TIP3      H2            -11.5802449752        2.0901606768       32.6006728508  SOLV      6044            0.0000000000
     18253      6056  TIP3      OH2            -6.8145849752        1.4313206768       32.5600228508  SOLV      6045            0.0000000000
     18254      6056  TIP3      H1             -7.2711849752        1.9602906768       31.9058628508  SOLV      6045            0.0000000000
     18255      6056  TIP3      H2             -6.6517849752        2.0344606768       33.2852528508  SOLV      6045            0.0000000000
     18256      6057  TIP3      OH2            -4.4869549752        0.3092806768       33.5050528508  SOLV      6046            0.0000000000
     18257      6057  TIP3      H1             -5.3915849752        0.4743006768       33.2392628508  SOLV      6046            0.0000000000
     18258      6057  TIP3      H2             -4.0580949752        1.1625006768       33.4393928508  SOLV      6046            0.0000000000
     18259      6058  TIP3      OH2            -1.8827649752        1.8791906768       33.7998328508  SOLV      6047            0.0000000000
     18260      6058  TIP3      H1             -2.0645649752        2.7950806768       33.5893228508  SOLV      6047            0.0000000000
     18261      6058  TIP3      H2             -1.7059849752        1.4689006768       32.9532928508  SOLV      6047            0.0000000000
     18262      6059  TIP3      OH2           -14.5775949752        0.5662906768       31.2648828508  SOLV      6048            0.0000000000
     18263      6059  TIP3      H1            -14.5959949752        0.1408006768       32.1221128508  SOLV      6048            0.0000000000
     18264      6059  TIP3      H2            -13.7728049752        0.2477906768       30.8561028508  SOLV      6048            0.0000000000
     18265      6060  TIP3      OH2           -12.4362849752       -0.7238393232       29.9198728508  SOLV      6049            0.0000000000
     18266      6060  TIP3      H1            -12.6552149752       -1.6400993232       30.0894728508  SOLV      6049            0.0000000000
     18267      6060  TIP3      H2            -11.6120649752       -0.5837993232       30.3860128508  SOLV      6049            0.0000000000
     18268      6061  TIP3      OH2            -9.8990349752       -0.2539093232       30.7686728508  SOLV      6050            0.0000000000
     18269      6061  TIP3      H1             -9.6864649752       -1.1420093232       30.4817628508  SOLV      6050            0.0000000000
     18270      6061  TIP3      H2             -9.8345249752       -0.2881393232       31.7230728508  SOLV      6050            0.0000000000
     18271      6062  TIP3      OH2            -6.3906649752      -14.5898493232       29.9130028508  SOLV      6051            0.0000000000
     18272      6062  TIP3      H1             -7.0649849752      -15.2192893232       30.1685828508  SOLV      6051            0.0000000000
     18273      6062  TIP3      H2             -5.8267449752      -15.0739593232       29.3097928508  SOLV      6051            0.0000000000
     18274      6063  TIP3      OH2            -1.2479449752      -16.4824493232       30.0257128508  SOLV      6052            0.0000000000
     18275      6063  TIP3      H1             -0.6441849752      -15.9349093232       29.5238128508  SOLV      6052            0.0000000000
     18276      6063  TIP3      H2             -2.1177449752      -16.1634093232       29.7851228508  SOLV      6052            0.0000000000
     18277      6064  TIP3      OH2             0.4790950248      -15.3435793232       28.3588028508  SOLV      6053            0.0000000000
     18278      6064  TIP3      H1              1.0908450248      -15.8580093232       27.8321628508  SOLV      6053            0.0000000000
     18279      6064  TIP3      H2              0.8614350248      -14.4663693232       28.3822428508  SOLV      6053            0.0000000000
     18280      6065  TIP3      OH2           -15.2275749752      -16.1580093232       23.5386028508  SOLV      6054            0.0000000000
     18281      6065  TIP3      H1            -14.7885049752      -15.5469593232       22.9469528508  SOLV      6054            0.0000000000
     18282      6065  TIP3      H2            -15.8613349752      -15.6195993232       24.0126028508  SOLV      6054            0.0000000000
     18283      6066  TIP3      OH2            -9.4846549752      -16.0291093232       27.5483028508  SOLV      6055            0.0000000000
     18284      6066  TIP3      H1             -8.6103149752      -15.6406793232       27.5187328508  SOLV      6055            0.0000000000
     18285      6066  TIP3      H2             -9.6205749752      -16.2443293232       28.4710228508  SOLV      6055            0.0000000000
     18286      6067  TIP3      OH2            -3.9278149752      -15.9991293232       29.1974728508  SOLV      6056            0.0000000000
     18287      6067  TIP3      H1             -3.8516549752      -15.9039693232       28.2480728508  SOLV      6056            0.0000000000
     18288      6067  TIP3      H2             -4.2028949752      -16.9068393232       29.3263828508  SOLV      6056            0.0000000000
     18289      6068  TIP3      OH2            -2.5745549752      -15.9733493232       24.8899728508  SOLV      6057            0.0000000000
     18290      6068  TIP3      H1             -3.2774449752      -15.3584293232       24.6801128508  SOLV      6057            0.0000000000
     18291      6068  TIP3      H2             -3.0194149752      -16.8106793232       25.0210628508  SOLV      6057            0.0000000000
     18292      6069  TIP3      OH2           -15.3266249752       -0.2097893232       24.4361128508  SOLV      6058            0.0000000000
     18293      6069  TIP3      H1            -16.0116349752       -0.2478993232       23.7686228508  SOLV      6058            0.0000000000
     18294      6069  TIP3      H2            -15.3229049752        0.7029706768       24.7243228508  SOLV      6058            0.0000000000
     18295      6070  TIP3      OH2           -13.3666649752      -14.2418593232       21.9810128508  SOLV      6059            0.0000000000
     18296      6070  TIP3      H1            -12.8753249752      -14.8716193232       21.4535628508  SOLV      6059            0.0000000000
     18297      6070  TIP3      H2            -12.7430349752      -13.9459193232       22.6441328508  SOLV      6059            0.0000000000
     18298      6071  TIP3      OH2            -8.3406549752      -13.9487093232       24.4380628508  SOLV      6060            0.0000000000
     18299      6071  TIP3      H1             -8.1625249752      -14.5953893232       25.1209228508  SOLV      6060            0.0000000000
     18300      6071  TIP3      H2             -8.3940349752      -13.1149393232       24.9051728508  SOLV      6060            0.0000000000
     18301      6072  TIP3      OH2            -6.4622749752        0.9997006768       22.8337328508  SOLV      6061            0.0000000000
     18302      6072  TIP3      H1             -5.5962549752        1.3664406768       22.6555528508  SOLV      6061            0.0000000000
     18303      6072  TIP3      H2             -6.7089949752        0.5605006768       22.0198128508  SOLV      6061            0.0000000000
     18304      6073  TIP3      OH2             0.2466850248        0.5627306768       25.5128428508  SOLV      6062            0.0000000000
     18305      6073  TIP3      H1              0.0523950248       -0.1850593232       24.9478028508  SOLV      6062            0.0000000000
     18306      6073  TIP3      H2              0.2076950248        1.3207406768       24.9296328508  SOLV      6062            0.0000000000
     18307      6074  TIP3      OH2           -13.5085049752        0.7102906768       21.4613228508  SOLV      6063            0.0000000000
     18308      6074  TIP3      H1            -13.7760449752        0.9965806768       22.3346328508  SOLV      6063            0.0000000000
     18309      6074  TIP3      H2            -12.7372449752        0.1642106768       21.6135728508  SOLV      6063            0.0000000000
     18310      6075  TIP3      OH2            13.8703450248       -6.7995893232       27.6937428508  SOLV      6064            0.0000000000
     18311      6075  TIP3      H1             13.9594550248       -5.8557693232       27.5614528508  SOLV      6064            0.0000000000
     18312      6075  TIP3      H2             13.2321050248       -7.0749493232       27.0356828508  SOLV      6064            0.0000000000
     18313      6076  TIP3      OH2            12.8034750248       -7.5445193232       31.1125628508  SOLV      6065            0.0000000000
     18314      6076  TIP3      H1             12.7652250248       -8.1908893232       31.8175228508  SOLV      6065            0.0000000000
     18315      6076  TIP3      H2             12.4811250248       -8.0110793232       30.3414328508  SOLV      6065            0.0000000000
     18316      6077  TIP3      OH2             5.1719750248       -7.9303093232       32.7055528508  SOLV      6066            0.0000000000
     18317      6077  TIP3      H1              5.2131850248       -8.5559793232       33.4287928508  SOLV      6066            0.0000000000
     18318      6077  TIP3      H2              5.8747450248       -7.3064493232       32.8875928508  SOLV      6066            0.0000000000
     18319      6078  TIP3      OH2            16.5094950248       -4.6054793232       29.4140728508  SOLV      6067            0.0000000000
     18320      6078  TIP3      H1             16.0687650248       -5.3258793232       29.8646328508  SOLV      6067            0.0000000000
     18321      6078  TIP3      H2             16.4964650248       -3.8847593232       30.0438428508  SOLV      6067            0.0000000000
     18322      6079  TIP3      OH2             2.7053350248       -9.8201593232       26.6333428508  SOLV      6068            0.0000000000
     18323      6079  TIP3      H1              2.2576750248       -8.9742893232       26.6149928508  SOLV      6068            0.0000000000
     18324      6079  TIP3      H2              2.1444550248      -10.3997393232       26.1178528508  SOLV      6068            0.0000000000
     18325      6080  TIP3      OH2             3.4159450248       -7.6581993232       28.7591428508  SOLV      6069            0.0000000000
     18326      6080  TIP3      H1              3.6292950248       -8.4280393232       29.2864428508  SOLV      6069            0.0000000000
     18327      6080  TIP3      H2              4.1537050248       -7.5685293232       28.1559028508  SOLV      6069            0.0000000000
     18328      6081  TIP3      OH2            13.6210450248        0.4986906768       29.6261128508  SOLV      6070            0.0000000000
     18329      6081  TIP3      H1             14.2406850248       -0.1778393232       29.3530328508  SOLV      6070            0.0000000000
     18330      6081  TIP3      H2             13.4127850248        0.2807706768       30.5346028508  SOLV      6070            0.0000000000
     18331      6082  TIP3      OH2            11.1929150248       -5.1123793232       31.5186628508  SOLV      6071            0.0000000000
     18332      6082  TIP3      H1             11.4967050248       -5.7982393232       30.9240728508  SOLV      6071            0.0000000000
     18333      6082  TIP3      H2             11.9143150248       -4.9935093232       32.1364628508  SOLV      6071            0.0000000000
     18334      6083  TIP3      OH2            14.3336150248      -10.7181393232       31.8461428508  SOLV      6072            0.0000000000
     18335      6083  TIP3      H1             14.4762050248      -11.6644393232       31.8663028508  SOLV      6072            0.0000000000
     18336      6083  TIP3      H2             14.2275150248      -10.5111593232       30.9176328508  SOLV      6072            0.0000000000
     18337      6084  TIP3      OH2             7.4884450248      -12.6164993232       29.1186228508  SOLV      6073            0.0000000000
     18338      6084  TIP3      H1              7.5315550248      -11.7566493232       28.7002528508  SOLV      6073            0.0000000000
     18339      6084  TIP3      H2              7.0308550248      -13.1690293232       28.4849428508  SOLV      6073            0.0000000000
     18340      6085  TIP3      OH2            15.2107150248      -12.4859393232       27.5194528508  SOLV      6074            0.0000000000
     18341      6085  TIP3      H1             15.8571450248      -12.8146193232       28.1442128508  SOLV      6074            0.0000000000
     18342      6085  TIP3      H2             15.7206550248      -11.9680393232       26.8965928508  SOLV      6074            0.0000000000
     18343      6086  TIP3      OH2             4.1085950248      -10.2199193232       29.8807628508  SOLV      6075            0.0000000000
     18344      6086  TIP3      H1              4.7622550248      -10.7697493232       30.3127728508  SOLV      6075            0.0000000000
     18345      6086  TIP3      H2              4.1325250248      -10.4940193232       28.9639628508  SOLV      6075            0.0000000000
     18346      6087  TIP3      OH2             9.2650450248       -8.6697893232       29.0959128508  SOLV      6076            0.0000000000
     18347      6087  TIP3      H1              9.8811450248       -9.1962493232       29.6053128508  SOLV      6076            0.0000000000
     18348      6087  TIP3      H2              8.6789250248       -9.3099193232       28.6922728508  SOLV      6076            0.0000000000
     18349      6088  TIP3      OH2             6.2986350248      -13.6986593232       33.1927028508  SOLV      6077            0.0000000000
     18350      6088  TIP3      H1              6.0798050248      -13.1685993232       32.4263028508  SOLV      6077            0.0000000000
     18351      6088  TIP3      H2              5.6307250248      -13.4721093232       33.8398428508  SOLV      6077            0.0000000000
     18352      6089  TIP3      OH2            13.6676150248       -4.1985493232       26.7366128508  SOLV      6078            0.0000000000
     18353      6089  TIP3      H1             13.3721250248       -4.5213193232       25.8853028508  SOLV      6078            0.0000000000
     18354      6089  TIP3      H2             13.3433950248       -3.2988793232       26.7778728508  SOLV      6078            0.0000000000
     18355      6090  TIP3      OH2             8.8677750248       -6.0230893232       33.4800728508  SOLV      6079            0.0000000000
     18356      6090  TIP3      H1              8.1276850248       -5.4249393232       33.5835928508  SOLV      6079            0.0000000000
     18357      6090  TIP3      H2              9.5817250248       -5.4691293232       33.1644328508  SOLV      6079            0.0000000000
     18358      6091  TIP3      OH2            16.9745550248      -13.1950093232       29.5000428508  SOLV      6080            0.0000000000
     18359      6091  TIP3      H1             16.7593550248      -13.9606693232       30.0326428508  SOLV      6080            0.0000000000
     18360      6091  TIP3      H2             17.6302950248      -12.7225493232       30.0128928508  SOLV      6080            0.0000000000
     18361      6092  TIP3      OH2             5.8923650248      -11.8064793232       31.1449228508  SOLV      6081            0.0000000000
     18362      6092  TIP3      H1              6.5059950248      -11.1737193232       31.5181628508  SOLV      6081            0.0000000000
     18363      6092  TIP3      H2              6.4044350248      -12.2789793232       30.4886128508  SOLV      6081            0.0000000000
     18364      6093  TIP3      OH2             3.3962950248       -4.3879993232       25.0491528508  SOLV      6082            0.0000000000
     18365      6093  TIP3      H1              3.1243850248       -4.1588993232       24.1604428508  SOLV      6082            0.0000000000
     18366      6093  TIP3      H2              3.4418650248       -3.5501193232       25.5096828508  SOLV      6082            0.0000000000
     18367      6094  TIP3      OH2            10.3251050248      -16.3931493232       30.6451928508  SOLV      6083            0.0000000000
     18368      6094  TIP3      H1             10.2075250248      -17.3415493232       30.5910228508  SOLV      6083            0.0000000000
     18369      6094  TIP3      H2              9.4701150248      -16.0605393232       30.9183028508  SOLV      6083            0.0000000000
     18370      6095  TIP3      OH2            15.2733850248       -0.9850593232       28.3871628508  SOLV      6084            0.0000000000
     18371      6095  TIP3      H1             15.6986150248       -1.6922693232       27.9021228508  SOLV      6084            0.0000000000
     18372      6095  TIP3      H2             15.5903850248       -0.1837893232       27.9703828508  SOLV      6084            0.0000000000
     18373      6096  TIP3      OH2            16.4330350248       -3.0842093232       26.8958228508  SOLV      6085            0.0000000000
     18374      6096  TIP3      H1             16.1755150248       -3.7741993232       26.2844128508  SOLV      6085            0.0000000000
     18375      6096  TIP3      H2             16.5041150248       -3.5270893232       27.7414128508  SOLV      6085            0.0000000000
     18376      6097  TIP3      OH2            12.5915950248       -7.5555893232       25.1457728508  SOLV      6086            0.0000000000
     18377      6097  TIP3      H1             11.8801450248       -7.0206193232       24.7938228508  SOLV      6086            0.0000000000
     18378      6097  TIP3      H2             13.2825550248       -7.5003793232       24.4856628508  SOLV      6086            0.0000000000
     18379      6098  TIP3      OH2            12.6455150248       -9.0981593232       22.1842728508  SOLV      6087            0.0000000000
     18380      6098  TIP3      H1             13.3465050248       -9.0754693232       22.8356728508  SOLV      6087            0.0000000000
     18381      6098  TIP3      H2             12.9478050248       -9.7261893232       21.5282028508  SOLV      6087            0.0000000000
     18382      6099  TIP3      OH2            15.9973650248       -7.3462593232       26.0973628508  SOLV      6088            0.0000000000
     18383      6099  TIP3      H1             15.2654650248       -7.1178893232       26.6704228508  SOLV      6088            0.0000000000
     18384      6099  TIP3      H2             16.4445850248       -8.0599893232       26.5521128508  SOLV      6088            0.0000000000
     18385      6100  TIP3      OH2             7.6427350248       -6.7156393232       27.9798628508  SOLV      6089            0.0000000000
     18386      6100  TIP3      H1              7.3122550248       -7.0862993232       27.1615628508  SOLV      6089            0.0000000000
     18387      6100  TIP3      H2              8.2311450248       -7.3862393232       28.3266928508  SOLV      6089            0.0000000000
     18388      6101  TIP3      OH2             9.0094850248       -3.2875793232       30.6610828508  SOLV      6090            0.0000000000
     18389      6101  TIP3      H1              8.9146150248       -3.8662693232       29.9045428508  SOLV      6090            0.0000000000
     18390      6101  TIP3      H2              9.7388450248       -3.6590093232       31.1573628508  SOLV      6090            0.0000000000
     18391      6102  TIP3      OH2             8.0092850248       -7.9470793232       31.6133628508  SOLV      6091            0.0000000000
     18392      6102  TIP3      H1              8.5745350248       -7.8256593232       30.8504828508  SOLV      6091            0.0000000000
     18393      6102  TIP3      H2              8.3281750248       -7.3095793232       32.2522128508  SOLV      6091            0.0000000000
     18394      6103  TIP3      OH2            14.3185050248       -2.4438893232       32.3474128508  SOLV      6092            0.0000000000
     18395      6103  TIP3      H1             14.0781650248       -1.7815793232       32.9953328508  SOLV      6092            0.0000000000
     18396      6103  TIP3      H2             14.1203250248       -3.2783693232       32.7723728508  SOLV      6092            0.0000000000
     18397      6104  TIP3      OH2            14.8683150248       -8.1839693232       23.7824828508  SOLV      6093            0.0000000000
     18398      6104  TIP3      H1             15.4478650248       -8.0339393232       24.5293728508  SOLV      6093            0.0000000000
     18399      6104  TIP3      H2             15.2823150248       -7.7132293232       23.0591228508  SOLV      6093            0.0000000000
     18400      6105  TIP3      OH2             5.8093450248       -7.3496993232       35.5591228508  SOLV      6094            0.0000000000
     18401      6105  TIP3      H1              5.8796650248       -6.6990193232       36.2576228508  SOLV      6094            0.0000000000
     18402      6105  TIP3      H2              4.9185650248       -7.2469493232       35.2242128508  SOLV      6094            0.0000000000
     18403      6106  TIP3      OH2            12.5948050248       -1.4471193232       27.2177928508  SOLV      6095            0.0000000000
     18404      6106  TIP3      H1             13.0685650248       -1.1514893232       27.9952128508  SOLV      6095            0.0000000000
     18405      6106  TIP3      H2             12.0317350248       -0.7089593232       26.9847528508  SOLV      6095            0.0000000000
     18406      6107  TIP3      OH2            18.5671550248      -16.4339293232       23.5954528508  SOLV      6096            0.0000000000
     18407      6107  TIP3      H1             17.6672250248      -16.2950293232       23.8905128508  SOLV      6096            0.0000000000
     18408      6107  TIP3      H2             18.8189950248      -15.6024693232       23.1936228508  SOLV      6096            0.0000000000
     18409      6108  TIP3      OH2             6.6330050248       -7.6462093232       25.5691428508  SOLV      6097            0.0000000000
     18410      6108  TIP3      H1              6.3411350248       -6.8780393232       25.0782728508  SOLV      6097            0.0000000000
     18411      6108  TIP3      H2              5.9585250248       -8.3055893232       25.4062828508  SOLV      6097            0.0000000000
     18412      6109  TIP3      OH2            19.7562950248       -2.0676893232       21.9718428508  SOLV      6098            0.0000000000
     18413      6109  TIP3      H1             19.8296450248       -1.1286693232       22.1423728508  SOLV      6098            0.0000000000
     18414      6109  TIP3      H2             20.6618050248       -2.3728293232       21.9155728508  SOLV      6098            0.0000000000
     18415      6110  TIP3      OH2             2.7260150248       -5.2832893232       34.3841228508  SOLV      6099            0.0000000000
     18416      6110  TIP3      H1              2.2248550248       -5.3113493232       33.5690928508  SOLV      6099            0.0000000000
     18417      6110  TIP3      H2              2.7313850248       -6.1889693232       34.6938528508  SOLV      6099            0.0000000000
     18418      6111  TIP3      OH2             2.4762850248       -2.5029093232       31.2681428508  SOLV      6100            0.0000000000
     18419      6111  TIP3      H1              3.4223450248       -2.6472093232       31.2490928508  SOLV      6100            0.0000000000
     18420      6111  TIP3      H2              2.3639150248       -1.7186293232       31.8052628508  SOLV      6100            0.0000000000
     18421      6112  TIP3      OH2            12.0671150248        1.5093506768       25.6327128508  SOLV      6101            0.0000000000
     18422      6112  TIP3      H1             11.9917150248        1.3880706768       24.6862328508  SOLV      6101            0.0000000000
     18423      6112  TIP3      H2             12.0999850248        2.4586206768       25.7511728508  SOLV      6101            0.0000000000
     18424      6113  TIP3      OH2             5.7204950248        0.2980506768       27.4136128508  SOLV      6102            0.0000000000
     18425      6113  TIP3      H1              5.8725350248       -0.0499093232       28.2922628508  SOLV      6102            0.0000000000
     18426      6113  TIP3      H2              4.8695350248       -0.0582193232       27.1583328508  SOLV      6102            0.0000000000
     18427      6114  TIP3      OH2            15.1687150248        0.6633706768       22.6349528508  SOLV      6103            0.0000000000
     18428      6114  TIP3      H1             15.5435550248       -0.0810193232       22.1642128508  SOLV      6103            0.0000000000
     18429      6114  TIP3      H2             15.1730850248        0.3934306768       23.5532828508  SOLV      6103            0.0000000000
     18430      6115  TIP3      OH2            14.8375250248        0.5890806768       25.3841728508  SOLV      6104            0.0000000000
     18431      6115  TIP3      H1             13.9025050248        0.6892706768       25.5628728508  SOLV      6104            0.0000000000
     18432      6115  TIP3      H2             15.1177150248       -0.1203193232       25.9624928508  SOLV      6104            0.0000000000
     18433      6116  TIP3      OH2             4.9750650248       -3.9597493232       35.4274028508  SOLV      6105            0.0000000000
     18434      6116  TIP3      H1              5.1911950248       -4.3211893232       36.2869828508  SOLV      6105            0.0000000000
     18435      6116  TIP3      H2              4.1195350248       -4.3343693232       35.2177528508  SOLV      6105            0.0000000000
     18436      6117  TIP3      OH2             7.5938650248      -15.4896993232       31.4228228508  SOLV      6106            0.0000000000
     18437      6117  TIP3      H1              6.7322350248      -15.5768793232       31.0151128508  SOLV      6106            0.0000000000
     18438      6117  TIP3      H2              7.5714350248      -14.6336893232       31.8505828508  SOLV      6106            0.0000000000
     18439      6118  TIP3      OH2            16.3456250248       -7.1511393232       21.4122728508  SOLV      6107            0.0000000000
     18440      6118  TIP3      H1             16.3877050248       -7.3737493232       20.4822728508  SOLV      6107            0.0000000000
     18441      6118  TIP3      H2             17.1948350248       -6.7524293232       21.6022628508  SOLV      6107            0.0000000000
     18442      6119  TIP3      OH2            11.9183750248      -13.2753193232       22.0826028508  SOLV      6108            0.0000000000
     18443      6119  TIP3      H1             11.6648550248      -13.2561593232       23.0054128508  SOLV      6108            0.0000000000
     18444      6119  TIP3      H2             11.6615850248      -14.1467793232       21.7812228508  SOLV      6108            0.0000000000
     18445      6120  TIP3      OH2             7.6848750248      -10.5242493232       32.5178428508  SOLV      6109            0.0000000000
     18446      6120  TIP3      H1              7.0430850248      -10.5645193232       33.2268528508  SOLV      6109            0.0000000000
     18447      6120  TIP3      H2              7.7220750248       -9.5977793232       32.2801428508  SOLV      6109            0.0000000000
     18448      6121  TIP3      OH2             7.6817850248      -10.3032393232       27.4298428508  SOLV      6110            0.0000000000
     18449      6121  TIP3      H1              6.7890750248      -10.6436293232       27.3712228508  SOLV      6110            0.0000000000
     18450      6121  TIP3      H2              8.1324450248      -10.6801493232       26.6741628508  SOLV      6110            0.0000000000
     18451      6122  TIP3      OH2            13.2173350248       -9.8872093232       26.2469228508  SOLV      6111            0.0000000000
     18452      6122  TIP3      H1             12.8083650248       -9.0723493232       25.9554028508  SOLV      6111            0.0000000000
     18453      6122  TIP3      H2             13.9379550248      -10.0271993232       25.6326328508  SOLV      6111            0.0000000000
     18454      6123  TIP3      OH2            14.2221050248      -10.4411693232       29.0608928508  SOLV      6112            0.0000000000
     18455      6123  TIP3      H1             14.0265550248       -9.8354893232       28.3459528508  SOLV      6112            0.0000000000
     18456      6123  TIP3      H2             14.4033650248      -11.2746493232       28.6265228508  SOLV      6112            0.0000000000
     18457      6124  TIP3      OH2             5.4349250248      -10.2038993232       34.3850428508  SOLV      6113            0.0000000000
     18458      6124  TIP3      H1              5.3968650248       -9.8037393232       35.2537528508  SOLV      6113            0.0000000000
     18459      6124  TIP3      H2              4.9440350248      -11.0206593232       34.4753328508  SOLV      6113            0.0000000000
     18460      6125  TIP3      OH2             8.8006650248      -12.8296693232       21.1836428508  SOLV      6114            0.0000000000
     18461      6125  TIP3      H1              8.3697350248      -13.2746593232       21.9133828508  SOLV      6114            0.0000000000
     18462      6125  TIP3      H2              8.0825350248      -12.4580393232       20.6713928508  SOLV      6114            0.0000000000
     18463      6126  TIP3      OH2             2.0430050248      -13.0877193232       28.2355128508  SOLV      6115            0.0000000000
     18464      6126  TIP3      H1              2.6737750248      -13.1165093232       28.9549028508  SOLV      6115            0.0000000000
     18465      6126  TIP3      H2              2.4924350248      -13.5128493232       27.5051028508  SOLV      6115            0.0000000000
     18466      6127  TIP3      OH2             3.3172150248      -12.3415193232       23.6595528508  SOLV      6116            0.0000000000
     18467      6127  TIP3      H1              3.7913850248      -11.7505293232       23.0746428508  SOLV      6116            0.0000000000
     18468      6127  TIP3      H2              2.5998550248      -11.8112293232       24.0065628508  SOLV      6116            0.0000000000
     18469      6128  TIP3      OH2            13.4860250248       -8.8030393232       33.7321328508  SOLV      6117            0.0000000000
     18470      6128  TIP3      H1             13.8095050248       -9.4340693232       33.0891828508  SOLV      6117            0.0000000000
     18471      6128  TIP3      H2             13.0459550248       -9.3378193232       34.3928728508  SOLV      6117            0.0000000000
     18472      6129  TIP3      OH2            10.2633150248      -12.8754893232       28.5162528508  SOLV      6118            0.0000000000
     18473      6129  TIP3      H1              9.3524250248      -12.8188093232       28.8048528508  SOLV      6118            0.0000000000
     18474      6129  TIP3      H2             10.7686050248      -12.9359393232       29.3269728508  SOLV      6118            0.0000000000
     18475      6130  TIP3      OH2             5.0916550248      -11.2468593232       27.3430128508  SOLV      6119            0.0000000000
     18476      6130  TIP3      H1              4.2024550248      -11.1473093232       27.0029728508  SOLV      6119            0.0000000000
     18477      6130  TIP3      H2              5.3881450248      -12.0885593232       26.9968028508  SOLV      6119            0.0000000000
     18478      6131  TIP3      OH2             8.7448350248      -11.2465993232       24.9994728508  SOLV      6120            0.0000000000
     18479      6131  TIP3      H1              9.6763850248      -11.1175993232       25.1777828508  SOLV      6120            0.0000000000
     18480      6131  TIP3      H2              8.5298650248      -10.5771693232       24.3499428508  SOLV      6120            0.0000000000
     18481      6132  TIP3      OH2            14.6685050248      -13.6408593232       31.7804328508  SOLV      6121            0.0000000000
     18482      6132  TIP3      H1             13.9916650248      -13.5095493232       32.4444028508  SOLV      6121            0.0000000000
     18483      6132  TIP3      H2             14.1829950248      -13.7959093232       30.9702028508  SOLV      6121            0.0000000000
     18484      6133  TIP3      OH2             7.4188550248      -10.0523793232       22.5660828508  SOLV      6122            0.0000000000
     18485      6133  TIP3      H1              6.8763650248      -10.4319993232       21.8748428508  SOLV      6122            0.0000000000
     18486      6133  TIP3      H2              8.2523450248       -9.8579093232       22.1374928508  SOLV      6122            0.0000000000
     18487      6134  TIP3      OH2            11.5832850248      -10.0881893232       30.4032128508  SOLV      6123            0.0000000000
     18488      6134  TIP3      H1             12.1476250248      -10.6345293232       29.8561728508  SOLV      6123            0.0000000000
     18489      6134  TIP3      H2             11.4356250248      -10.6099993232       31.1919728508  SOLV      6123            0.0000000000
     18490      6135  TIP3      OH2             6.5852550248      -13.9515793232       26.8216928508  SOLV      6124            0.0000000000
     18491      6135  TIP3      H1              6.2682050248      -14.8540493232       26.7862328508  SOLV      6124            0.0000000000
     18492      6135  TIP3      H2              7.3666650248      -13.9498393232       26.2688528508  SOLV      6124            0.0000000000
     18493      6136  TIP3      OH2            10.2098750248      -11.6995793232       32.8172528508  SOLV      6125            0.0000000000
     18494      6136  TIP3      H1              9.3744050248      -11.2456293232       32.9274928508  SOLV      6125            0.0000000000
     18495      6136  TIP3      H2             10.7339350248      -11.4237293232       33.5692428508  SOLV      6125            0.0000000000
     18496      6137  TIP3      OH2            10.7541350248       -5.4868093232       24.5018928508  SOLV      6126            0.0000000000
     18497      6137  TIP3      H1             10.0092350248       -5.9942793232       24.1796828508  SOLV      6126            0.0000000000
     18498      6137  TIP3      H2             10.6198550248       -5.4380093232       25.4483728508  SOLV      6126            0.0000000000
     18499      6138  TIP3      OH2            14.6518150248      -12.6728193232       22.7011528508  SOLV      6127            0.0000000000
     18500      6138  TIP3      H1             13.7132350248      -12.5612593232       22.5500328508  SOLV      6127            0.0000000000
     18501      6138  TIP3      H2             14.9490250248      -11.8161293232       23.0077228508  SOLV      6127            0.0000000000
     18502      6139  TIP3      OH2            15.3701650248      -10.8055493232       24.3618928508  SOLV      6128            0.0000000000
     18503      6139  TIP3      H1             16.2620650248      -10.9430493232       24.6810128508  SOLV      6128            0.0000000000
     18504      6139  TIP3      H2             15.4265250248      -10.0149393232       23.8252428508  SOLV      6128            0.0000000000
     18505      6140  TIP3      OH2             5.8789650248       -6.1918093232       30.2716828508  SOLV      6129            0.0000000000
     18506      6140  TIP3      H1              6.6236850248       -6.1942393232       29.6703328508  SOLV      6129            0.0000000000
     18507      6140  TIP3      H2              5.9566250248       -7.0154293232       30.7531928508  SOLV      6129            0.0000000000
     18508      6141  TIP3      OH2            12.8795450248       -4.0283793232       23.5273528508  SOLV      6130            0.0000000000
     18509      6141  TIP3      H1             12.5843850248       -3.2015893232       23.9088328508  SOLV      6130            0.0000000000
     18510      6141  TIP3      H2             12.1765450248       -4.6476893232       23.7234928508  SOLV      6130            0.0000000000
     18511      6142  TIP3      OH2             2.8869350248       -7.7311193232       35.5865328508  SOLV      6131            0.0000000000
     18512      6142  TIP3      H1              3.1097950248       -8.1491593232       36.4182828508  SOLV      6131            0.0000000000
     18513      6142  TIP3      H2              2.2849450248       -8.3436193232       35.1638128508  SOLV      6131            0.0000000000
     18514      6143  TIP3      OH2            20.2550350248      -10.5961393232       24.0565628508  SOLV      6132            0.0000000000
     18515      6143  TIP3      H1             19.7006650248      -10.9923393232       23.3843128508  SOLV      6132            0.0000000000
     18516      6143  TIP3      H2             20.3553950248       -9.6856193232       23.7788928508  SOLV      6132            0.0000000000
     18517      6144  TIP3      OH2            18.5502050248       -1.8100993232       24.5217728508  SOLV      6133            0.0000000000
     18518      6144  TIP3      H1             18.1773150248       -2.6357193232       24.8308328508  SOLV      6133            0.0000000000
     18519      6144  TIP3      H2             18.8275550248       -1.9931593232       23.6241128508  SOLV      6133            0.0000000000
     18520      6145  TIP3      OH2            15.7105950248       -7.0021493232       31.5429628508  SOLV      6134            0.0000000000
     18521      6145  TIP3      H1             14.7822850248       -7.2339593232       31.5158928508  SOLV      6134            0.0000000000
     18522      6145  TIP3      H2             16.1617050248       -7.7791693232       31.2128428508  SOLV      6134            0.0000000000
     18523      6146  TIP3      OH2             8.2539050248       -2.6739893232       27.6758328508  SOLV      6135            0.0000000000
     18524      6146  TIP3      H1              8.7811250248       -1.9005493232       27.4757128508  SOLV      6135            0.0000000000
     18525      6146  TIP3      H2              7.3737550248       -2.4490693232       27.3742328508  SOLV      6135            0.0000000000
     18526      6147  TIP3      OH2             4.0086750248       -7.8115793232       22.2630728508  SOLV      6136            0.0000000000
     18527      6147  TIP3      H1              4.6246650248       -7.1848593232       22.6425528508  SOLV      6136            0.0000000000
     18528      6147  TIP3      H2              3.1469350248       -7.4955993232       22.5347228508  SOLV      6136            0.0000000000
     18529      6148  TIP3      OH2             9.6811350248       -5.0109993232       27.2522628508  SOLV      6137            0.0000000000
     18530      6148  TIP3      H1              9.4401350248       -4.0855593232       27.2937928508  SOLV      6137            0.0000000000
     18531      6148  TIP3      H2              8.9404950248       -5.4698693232       27.6486528508  SOLV      6137            0.0000000000
     18532      6149  TIP3      OH2            10.1957950248       -0.8616393232       33.5673728508  SOLV      6138            0.0000000000
     18533      6149  TIP3      H1             10.5582650248       -0.0070793232       33.3338128508  SOLV      6138            0.0000000000
     18534      6149  TIP3      H2             10.7273150248       -1.1534793232       34.3080028508  SOLV      6138            0.0000000000
     18535      6150  TIP3      OH2             8.3642150248        0.0107606768       26.7974828508  SOLV      6139            0.0000000000
     18536      6150  TIP3      H1              7.4142650248        0.1165006768       26.8488128508  SOLV      6139            0.0000000000
     18537      6150  TIP3      H2              8.7160250248        0.8315006768       27.1422328508  SOLV      6139            0.0000000000
     18538      6151  TIP3      OH2            13.7398750248       -4.7625693232       33.2679328508  SOLV      6140            0.0000000000
     18539      6151  TIP3      H1             13.3140050248       -4.9903993232       34.0943328508  SOLV      6140            0.0000000000
     18540      6151  TIP3      H2             14.3204550248       -5.5013893232       33.0854628508  SOLV      6140            0.0000000000
     18541      6152  TIP3      OH2            15.9427650248       -3.8335193232       22.3418328508  SOLV      6141            0.0000000000
     18542      6152  TIP3      H1             16.2960750248       -4.2135393232       23.1461828508  SOLV      6141            0.0000000000
     18543      6152  TIP3      H2             14.9941150248       -3.9270393232       22.4287628508  SOLV      6141            0.0000000000
     18544      6153  TIP3      OH2            20.4462050248        0.6457306768       22.5428528508  SOLV      6142            0.0000000000
     18545      6153  TIP3      H1             21.1899950248        1.2317806768       22.4030128508  SOLV      6142            0.0000000000
     18546      6153  TIP3      H2             19.7520150248        1.2143106768       22.8760928508  SOLV      6142            0.0000000000
     18547      6154  TIP3      OH2             4.5208850248      -12.9778493232       35.1446728508  SOLV      6143            0.0000000000
     18548      6154  TIP3      H1              3.6281150248      -12.6393093232       35.0770728508  SOLV      6143            0.0000000000
     18549      6154  TIP3      H2              4.4221650248      -13.8332393232       35.5627528508  SOLV      6143            0.0000000000
     18550      6155  TIP3      OH2            16.8086950248       -5.1613193232       24.5686228508  SOLV      6144            0.0000000000
     18551      6155  TIP3      H1             16.5314550248       -5.8893893232       25.1247328508  SOLV      6144            0.0000000000
     18552      6155  TIP3      H2             17.7359950248       -5.0421193232       24.7738828508  SOLV      6144            0.0000000000
     18553      6156  TIP3      OH2             4.1720850248       -1.1734093232       33.5796128508  SOLV      6145            0.0000000000
     18554      6156  TIP3      H1              4.3891150248       -2.1051693232       33.5485828508  SOLV      6145            0.0000000000
     18555      6156  TIP3      H2              4.4184350248       -0.8989093232       34.4628928508  SOLV      6145            0.0000000000
     18556      6157  TIP3      OH2            10.0335450248       -2.7219093232       20.7888328508  SOLV      6146            0.0000000000
     18557      6157  TIP3      H1             10.2725250248       -3.4700993232       20.2417228508  SOLV      6146            0.0000000000
     18558      6157  TIP3      H2              9.7646750248       -3.1097393232       21.6216128508  SOLV      6146            0.0000000000
     18559      6158  TIP3      OH2             8.9706050248       -3.1515293232       23.2450928508  SOLV      6147            0.0000000000
     18560      6158  TIP3      H1              9.1174050248       -3.6715493232       24.0351828508  SOLV      6147            0.0000000000
     18561      6158  TIP3      H2              8.9677750248       -2.2447693232       23.5516828508  SOLV      6147            0.0000000000
     18562      6159  TIP3      OH2             5.4237150248       -5.8991993232       23.7556328508  SOLV      6148            0.0000000000
     18563      6159  TIP3      H1              4.7376450248       -5.5469493232       24.3226028508  SOLV      6148            0.0000000000
     18564      6159  TIP3      H2              5.9465050248       -5.1362393232       23.5090628508  SOLV      6148            0.0000000000
     18565      6160  TIP3      OH2            14.0397150248      -13.5846493232       25.1317628508  SOLV      6149            0.0000000000
     18566      6160  TIP3      H1             14.2595450248      -13.1131093232       24.3283028508  SOLV      6149            0.0000000000
     18567      6160  TIP3      H2             14.5981150248      -13.1903893232       25.8018228508  SOLV      6149            0.0000000000
     18568      6161  TIP3      OH2            11.7083250248       -1.4541693232       23.9945128508  SOLV      6150            0.0000000000
     18569      6161  TIP3      H1             10.8919350248       -0.9571993232       24.0469428508  SOLV      6150            0.0000000000
     18570      6161  TIP3      H2             12.2379550248       -0.9788193232       23.3543928508  SOLV      6150            0.0000000000
     18571      6162  TIP3      OH2            11.2397050248      -11.8567693232       25.9666028508  SOLV      6151            0.0000000000
     18572      6162  TIP3      H1             12.0519650248      -11.3524493232       26.0127728508  SOLV      6151            0.0000000000
     18573      6162  TIP3      H2             10.9950050248      -12.0017993232       26.8805628508  SOLV      6151            0.0000000000
     18574      6163  TIP3      OH2            11.7753450248      -10.8704993232       35.1512628508  SOLV      6152            0.0000000000
     18575      6163  TIP3      H1             11.8943750248      -10.2969593232       35.9083028508  SOLV      6152            0.0000000000
     18576      6163  TIP3      H2             12.4308050248      -11.5585593232       35.2660428508  SOLV      6152            0.0000000000
     18577      6164  TIP3      OH2            12.1233750248      -14.7754693232       26.9047128508  SOLV      6153            0.0000000000
     18578      6164  TIP3      H1             11.7767250248      -14.1584093232       27.5491428508  SOLV      6153            0.0000000000
     18579      6164  TIP3      H2             12.7820650248      -14.2748993232       26.4232628508  SOLV      6153            0.0000000000
     18580      6165  TIP3      OH2             9.0466350248       -0.4104493232       23.9762028508  SOLV      6154            0.0000000000
     18581      6165  TIP3      H1              9.2075050248        0.3893006768       23.4754628508  SOLV      6154            0.0000000000
     18582      6165  TIP3      H2              8.8494150248       -0.1038493232       24.8612628508  SOLV      6154            0.0000000000
     18583      6166  TIP3      OH2             7.7810750248      -13.7125293232       23.5919628508  SOLV      6155            0.0000000000
     18584      6166  TIP3      H1              7.6975550248      -12.8242193232       23.9386028508  SOLV      6155            0.0000000000
     18585      6166  TIP3      H2              8.6711050248      -13.9778593232       23.8236428508  SOLV      6155            0.0000000000
     18586      6167  TIP3      OH2            16.5820250248       -9.2133693232       30.0819628508  SOLV      6156            0.0000000000
     18587      6167  TIP3      H1             15.7844650248       -9.6283493232       29.7534628508  SOLV      6156            0.0000000000
     18588      6167  TIP3      H2             17.0271350248       -9.9039993232       30.5730128508  SOLV      6156            0.0000000000
     18589      6168  TIP3      OH2             6.0396050248       -3.2853093232       22.6524128508  SOLV      6157            0.0000000000
     18590      6168  TIP3      H1              6.6317550248       -2.5858293232       22.9286528508  SOLV      6157            0.0000000000
     18591      6168  TIP3      H2              6.4989050248       -3.7183593232       21.9328728508  SOLV      6157            0.0000000000
     18592      6169  TIP3      OH2             4.3555250248      -10.6210093232       21.7683528508  SOLV      6158            0.0000000000
     18593      6169  TIP3      H1              4.3107850248       -9.6816993232       21.9470528508  SOLV      6158            0.0000000000
     18594      6169  TIP3      H2              3.4678450248      -10.8565193232       21.4985628508  SOLV      6158            0.0000000000
     18595      6170  TIP3      OH2             5.1637250248      -15.8393493232       30.4414528508  SOLV      6159            0.0000000000
     18596      6170  TIP3      H1              4.9347050248      -15.7800993232       29.5139528508  SOLV      6159            0.0000000000
     18597      6170  TIP3      H2              4.7210650248      -16.6307993232       30.7478628508  SOLV      6159            0.0000000000
     18598      6171  TIP3      OH2             4.0940550248       -1.8986393232       26.6020328508  SOLV      6160            0.0000000000
     18599      6171  TIP3      H1              3.2619150248       -1.4263693232       26.6291728508  SOLV      6160            0.0000000000
     18600      6171  TIP3      H2              4.6398850248       -1.3888793232       26.0033428508  SOLV      6160            0.0000000000
     18601      6172  TIP3      OH2            12.0717250248       -0.8587693232       20.9274328508  SOLV      6161            0.0000000000
     18602      6172  TIP3      H1             11.4278250248       -1.4899093232       21.2488028508  SOLV      6161            0.0000000000
     18603      6172  TIP3      H2             12.8335550248       -1.3899693232       20.6957828508  SOLV      6161            0.0000000000
     18604      6173  TIP3      OH2            16.6760150248       -1.0417793232       21.1612328508  SOLV      6162            0.0000000000
     18605      6173  TIP3      H1             16.9590550248       -1.8362593232       21.6139228508  SOLV      6162            0.0000000000
     18606      6173  TIP3      H2             17.4158050248       -0.8086793232       20.6003428508  SOLV      6162            0.0000000000
     18607      6174  TIP3      OH2             7.6307450248       -5.1322893232       21.0187228508  SOLV      6163            0.0000000000
     18608      6174  TIP3      H1              7.6951550248       -5.9263293232       21.5493628508  SOLV      6163            0.0000000000
     18609      6174  TIP3      H2              8.2836650248       -5.2510093232       20.3289228508  SOLV      6163            0.0000000000
     18610      6175  TIP3      OH2            12.9830850248       -4.0851193232       20.7545228508  SOLV      6164            0.0000000000
     18611      6175  TIP3      H1             12.7144950248       -3.9049093232       21.6554128508  SOLV      6164            0.0000000000
     18612      6175  TIP3      H2             12.7766450248       -5.0104993232       20.6231028508  SOLV      6164            0.0000000000
     18613      6176  TIP3      OH2             8.7801250248       -7.1596693232       23.3245228508  SOLV      6165            0.0000000000
     18614      6176  TIP3      H1              8.3203250248       -7.6438393232       24.0103728508  SOLV      6165            0.0000000000
     18615      6176  TIP3      H2              9.0349950248       -7.8281293232       22.6885728508  SOLV      6165            0.0000000000
     18616      6177  TIP3      OH2             9.8511650248       -8.9164893232       21.5868428508  SOLV      6166            0.0000000000
     18617      6177  TIP3      H1              9.6706650248       -9.0713693232       20.6596728508  SOLV      6166            0.0000000000
     18618      6177  TIP3      H2             10.8012150248       -8.8086193232       21.6316328508  SOLV      6166            0.0000000000
     18619      6178  TIP3      OH2            19.2409950248       -6.5620693232       21.0326528508  SOLV      6167            0.0000000000
     18620      6178  TIP3      H1             18.9674750248       -6.9865193232       20.2194828508  SOLV      6167            0.0000000000
     18621      6178  TIP3      H2             19.2804050248       -5.6306193232       20.8156928508  SOLV      6167            0.0000000000
     18622      6179  TIP3      OH2             8.8209950248      -13.5422993232       34.2555328508  SOLV      6168            0.0000000000
     18623      6179  TIP3      H1              9.3567450248      -13.0906293232       33.6034628508  SOLV      6168            0.0000000000
     18624      6179  TIP3      H2              7.9689550248      -13.6503193232       33.8329428508  SOLV      6168            0.0000000000
     18625      6180  TIP3      OH2            10.4028350248       -8.1026793232       34.4950528508  SOLV      6169            0.0000000000
     18626      6180  TIP3      H1             11.1533150248       -8.2589293232       33.9218328508  SOLV      6169            0.0000000000
     18627      6180  TIP3      H2             10.0636650248       -7.2510193232       34.2196028508  SOLV      6169            0.0000000000
     18628      6181  TIP3      OH2             9.6265450248      -16.0857293232       34.6868928508  SOLV      6170            0.0000000000
     18629      6181  TIP3      H1              9.5285050248      -15.1394093232       34.5815128508  SOLV      6170            0.0000000000
     18630      6181  TIP3      H2              8.8841650248      -16.4583493232       34.2112428508  SOLV      6170            0.0000000000
     18631      6182  TIP3      OH2             9.7483350248        1.7738806768       22.5882028508  SOLV      6171            0.0000000000
     18632      6182  TIP3      H1             10.6814050248        1.9317506768       22.7320428508  SOLV      6171            0.0000000000
     18633      6182  TIP3      H2              9.4842150248        2.4491806768       21.9633528508  SOLV      6171            0.0000000000
     18634      6183  TIP3      OH2             3.3168250248       -3.5897393232       22.0710128508  SOLV      6172            0.0000000000
     18635      6183  TIP3      H1              4.2307450248       -3.5108493232       22.3444028508  SOLV      6172            0.0000000000
     18636      6183  TIP3      H2              3.3241350248       -4.2767793232       21.4045728508  SOLV      6172            0.0000000000
     18637      6184  TIP3      OH2             1.9658850248        1.8031106768       27.1484028508  SOLV      6173            0.0000000000
     18638      6184  TIP3      H1              1.3185950248        1.3412806768       26.6155228508  SOLV      6173            0.0000000000
     18639      6184  TIP3      H2              2.3203450248        1.1314406768       27.7310228508  SOLV      6173            0.0000000000
     18640      6185  TIP3      OH2             2.8358050248       -0.1161893232       28.9530228508  SOLV      6174            0.0000000000
     18641      6185  TIP3      H1              2.5014850248       -0.9964593232       29.1250428508  SOLV      6174            0.0000000000
     18642      6185  TIP3      H2              3.0580450248        0.2293106768       29.8175828508  SOLV      6174            0.0000000000
     18643      6186  TIP3      OH2            19.6992750248       -5.6932593232       25.0076928508  SOLV      6175            0.0000000000
     18644      6186  TIP3      H1             20.5494150248       -5.2721693232       25.1348528508  SOLV      6175            0.0000000000
     18645      6186  TIP3      H2             19.7047850248       -6.4332493232       25.6148328508  SOLV      6175            0.0000000000
     18646      6187  TIP3      OH2            20.0938350248       -7.6395193232       26.8312628508  SOLV      6176            0.0000000000
     18647      6187  TIP3      H1             19.3672950248       -8.1192593232       27.2290228508  SOLV      6176            0.0000000000
     18648      6187  TIP3      H2             20.6751650248       -7.4340493232       27.5634228508  SOLV      6176            0.0000000000
     18649      6188  TIP3      OH2            20.3621450248       -7.7386693232       23.2223928508  SOLV      6177            0.0000000000
     18650      6188  TIP3      H1             19.8402550248       -7.3822593232       22.5034828508  SOLV      6177            0.0000000000
     18651      6188  TIP3      H2             20.3290650248       -7.0638893232       23.9004828508  SOLV      6177            0.0000000000
     18652      6189  TIP3      OH2            18.7110450248      -10.4991093232       21.7731028508  SOLV      6178            0.0000000000
     18653      6189  TIP3      H1             18.8074850248       -9.8324093232       21.0930728508  SOLV      6178            0.0000000000
     18654      6189  TIP3      H2             18.5710050248      -11.3144793232       21.2916528508  SOLV      6178            0.0000000000
     18655      6190  TIP3      OH2            17.8805150248       -9.1188693232       27.3941328508  SOLV      6179            0.0000000000
     18656      6190  TIP3      H1             17.7303950248      -10.0640093232       27.3739128508  SOLV      6179            0.0000000000
     18657      6190  TIP3      H2             17.5269650248       -8.8377293232       28.2380428508  SOLV      6179            0.0000000000
     18658      6191  TIP3      OH2             2.9157550248       -7.0406493232       31.4045128508  SOLV      6180            0.0000000000
     18659      6191  TIP3      H1              3.1000450248       -7.1224793232       30.4688028508  SOLV      6180            0.0000000000
     18660      6191  TIP3      H2              3.7650450248       -7.1649493232       31.8281528508  SOLV      6180            0.0000000000
     18661      6192  TIP3      OH2            17.9584250248      -13.0911293232       20.8906528508  SOLV      6181            0.0000000000
     18662      6192  TIP3      H1             18.5690050248      -13.4624493232       21.5274728508  SOLV      6181            0.0000000000
     18663      6192  TIP3      H2             17.1215750248      -13.5124393232       21.0866528508  SOLV      6181            0.0000000000
     18664      6193  TIP3      OH2            17.5909950248      -11.5362893232       25.8566428508  SOLV      6182            0.0000000000
     18665      6193  TIP3      H1             17.8707050248      -12.4432493232       25.9808128508  SOLV      6182            0.0000000000
     18666      6193  TIP3      H2             18.3501650248      -11.1021393232       25.4675628508  SOLV      6182            0.0000000000
     18667      6194  TIP3      OH2            18.2028250248      -10.9545493232       31.2925328508  SOLV      6183            0.0000000000
     18668      6194  TIP3      H1             19.1356250248      -10.7425593232       31.2581328508  SOLV      6183            0.0000000000
     18669      6194  TIP3      H2             17.9675750248      -10.8533393232       32.2148328508  SOLV      6183            0.0000000000
     18670      6195  TIP3      OH2            18.2044750248      -14.2733593232       25.9048428508  SOLV      6184            0.0000000000
     18671      6195  TIP3      H1             18.3869750248      -14.7222093232       26.7303428508  SOLV      6184            0.0000000000
     18672      6195  TIP3      H2             17.6047650248      -14.8579193232       25.4413028508  SOLV      6184            0.0000000000
     18673      6196  TIP3      OH2             3.7344850248      -13.4579893232       30.4366828508  SOLV      6185            0.0000000000
     18674      6196  TIP3      H1              4.1796450248      -14.2497393232       30.7386528508  SOLV      6185            0.0000000000
     18675      6196  TIP3      H2              4.2007850248      -12.7414693232       30.8672428508  SOLV      6185            0.0000000000
     18676      6197  TIP3      OH2             2.0385150248      -10.4586893232       31.5057028508  SOLV      6186            0.0000000000
     18677      6197  TIP3      H1              2.5304950248      -10.6796393232       30.7149028508  SOLV      6186            0.0000000000
     18678      6197  TIP3      H2              2.4006050248       -9.6183493232       31.7866528508  SOLV      6186            0.0000000000
     18679      6198  TIP3      OH2            20.0710950248      -14.2055493232       22.4328728508  SOLV      6187            0.0000000000
     18680      6198  TIP3      H1             20.4833550248      -14.9269793232       21.9576728508  SOLV      6187            0.0000000000
     18681      6198  TIP3      H2             20.7527450248      -13.5360893232       22.4913028508  SOLV      6187            0.0000000000
     18682      6199  TIP3      OH2             2.3521650248      -14.2007793232       25.5599428508  SOLV      6188            0.0000000000
     18683      6199  TIP3      H1              1.4270050248      -13.9921193232       25.4304928508  SOLV      6188            0.0000000000
     18684      6199  TIP3      H2              2.8061550248      -13.7166993232       24.8701728508  SOLV      6188            0.0000000000
     18685      6200  TIP3      OH2            17.1228850248        0.7833906768       27.5056828508  SOLV      6189            0.0000000000
     18686      6200  TIP3      H1             17.7751750248        0.4356006768       26.8975928508  SOLV      6189            0.0000000000
     18687      6200  TIP3      H2             17.6332650248        1.2717106768       28.1516528508  SOLV      6189            0.0000000000
     18688      6201  TIP3      OH2             2.3157050248      -15.4628793232       33.9041928508  SOLV      6190            0.0000000000
     18689      6201  TIP3      H1              1.6507550248      -15.7088493232       34.5472828508  SOLV      6190            0.0000000000
     18690      6201  TIP3      H2              1.8728350248      -14.8408393232       33.3269928508  SOLV      6190            0.0000000000
     18691      6202  TIP3      OH2             7.4619250248       -1.3133493232       34.3071728508  SOLV      6191            0.0000000000
     18692      6202  TIP3      H1              7.0370350248       -0.5034993232       34.0246328508  SOLV      6191            0.0000000000
     18693      6202  TIP3      H2              8.3662050248       -1.2279393232       34.0051528508  SOLV      6191            0.0000000000
     18694      6203  TIP3      OH2             4.8635950248        1.9430406768       34.3547028508  SOLV      6192            0.0000000000
     18695      6203  TIP3      H1              4.1432350248        2.3831406768       33.9034728508  SOLV      6192            0.0000000000
     18696      6203  TIP3      H2              4.4979950248        1.6925106768       35.2031028508  SOLV      6192            0.0000000000
     18697      6204  TIP3      OH2             7.3308550248        1.5434306768       33.3844228508  SOLV      6193            0.0000000000
     18698      6204  TIP3      H1              6.4660750248        1.6152806768       33.7884328508  SOLV      6193            0.0000000000
     18699      6204  TIP3      H2              7.2757550248        2.0901606768       32.6006728508  SOLV      6193            0.0000000000
     18700      6205  TIP3      OH2             4.2784050248        0.5662906768       31.2648828508  SOLV      6194            0.0000000000
     18701      6205  TIP3      H1              4.2600050248        0.1408006768       32.1221128508  SOLV      6194            0.0000000000
     18702      6205  TIP3      H2              5.0831950248        0.2477906768       30.8561028508  SOLV      6194            0.0000000000
     18703      6206  TIP3      OH2             6.4197150248       -0.7238393232       29.9198728508  SOLV      6195            0.0000000000
     18704      6206  TIP3      H1              6.2007850248       -1.6400993232       30.0894728508  SOLV      6195            0.0000000000
     18705      6206  TIP3      H2              7.2439350248       -0.5837993232       30.3860128508  SOLV      6195            0.0000000000
     18706      6207  TIP3      OH2             8.9569650248       -0.2539093232       30.7686728508  SOLV      6196            0.0000000000
     18707      6207  TIP3      H1              9.1695350248       -1.1420093232       30.4817628508  SOLV      6196            0.0000000000
     18708      6207  TIP3      H2              9.0214750248       -0.2881393232       31.7230728508  SOLV      6196            0.0000000000
     18709      6208  TIP3      OH2            12.4653350248      -14.5898493232       29.9130028508  SOLV      6197            0.0000000000
     18710      6208  TIP3      H1             11.7910150248      -15.2192893232       30.1685828508  SOLV      6197            0.0000000000
     18711      6208  TIP3      H2             13.0292550248      -15.0739593232       29.3097928508  SOLV      6197            0.0000000000
     18712      6209  TIP3      OH2            17.6080550248      -16.4824493232       30.0257128508  SOLV      6198            0.0000000000
     18713      6209  TIP3      H1             18.2118150248      -15.9349093232       29.5238128508  SOLV      6198            0.0000000000
     18714      6209  TIP3      H2             16.7382550248      -16.1634093232       29.7851228508  SOLV      6198            0.0000000000
     18715      6210  TIP3      OH2            19.3350950248      -15.3435793232       28.3588028508  SOLV      6199            0.0000000000
     18716      6210  TIP3      H1             19.9468450248      -15.8580093232       27.8321628508  SOLV      6199            0.0000000000
     18717      6210  TIP3      H2             19.7174350248      -14.4663693232       28.3822428508  SOLV      6199            0.0000000000
     18718      6211  TIP3      OH2             4.7920850248      -15.9558193232       27.7349928508  SOLV      6200            0.0000000000
     18719      6211  TIP3      H1              4.0150650248      -16.1903293232       27.2275828508  SOLV      6200            0.0000000000
     18720      6211  TIP3      H2              5.3224450248      -16.7526093232       27.7437928508  SOLV      6200            0.0000000000
     18721      6212  TIP3      OH2             3.6284250248      -16.1580093232       23.5386028508  SOLV      6201            0.0000000000
     18722      6212  TIP3      H1              4.0674950248      -15.5469593232       22.9469528508  SOLV      6201            0.0000000000
     18723      6212  TIP3      H2              2.9946650248      -15.6195993232       24.0126028508  SOLV      6201            0.0000000000
     18724      6213  TIP3      OH2             9.3713450248      -16.0291093232       27.5483028508  SOLV      6202            0.0000000000
     18725      6213  TIP3      H1             10.2456850248      -15.6406793232       27.5187328508  SOLV      6202            0.0000000000
     18726      6213  TIP3      H2              9.2354250248      -16.2443293232       28.4710228508  SOLV      6202            0.0000000000
     18727      6214  TIP3      OH2            14.9281850248      -15.9991293232       29.1974728508  SOLV      6203            0.0000000000
     18728      6214  TIP3      H1             15.0043450248      -15.9039693232       28.2480728508  SOLV      6203            0.0000000000
     18729      6214  TIP3      H2             14.6531050248      -16.9068393232       29.3263828508  SOLV      6203            0.0000000000
     18730      6215  TIP3      OH2            16.2814450248      -15.9733493232       24.8899728508  SOLV      6204            0.0000000000
     18731      6215  TIP3      H1             15.5785550248      -15.3584293232       24.6801128508  SOLV      6204            0.0000000000
     18732      6215  TIP3      H2             15.8365850248      -16.8106793232       25.0210628508  SOLV      6204            0.0000000000
     18733      6216  TIP3      OH2             3.5293750248       -0.2097893232       24.4361128508  SOLV      6205            0.0000000000
     18734      6216  TIP3      H1              2.8443650248       -0.2478993232       23.7686228508  SOLV      6205            0.0000000000
     18735      6216  TIP3      H2              3.5330950248        0.7029706768       24.7243228508  SOLV      6205            0.0000000000
     18736      6217  TIP3      OH2             5.4893350248      -14.2418593232       21.9810128508  SOLV      6206            0.0000000000
     18737      6217  TIP3      H1              5.9806750248      -14.8716193232       21.4535628508  SOLV      6206            0.0000000000
     18738      6217  TIP3      H2              6.1129650248      -13.9459193232       22.6441328508  SOLV      6206            0.0000000000
     18739      6218  TIP3      OH2            10.5153450248      -13.9487093232       24.4380628508  SOLV      6207            0.0000000000
     18740      6218  TIP3      H1             10.6934750248      -14.5953893232       25.1209228508  SOLV      6207            0.0000000000
     18741      6218  TIP3      H2             10.4619650248      -13.1149393232       24.9051728508  SOLV      6207            0.0000000000
     18742      6219  TIP3      OH2            12.3937250248        0.9997006768       22.8337328508  SOLV      6208            0.0000000000
     18743      6219  TIP3      H1             13.2597450248        1.3664406768       22.6555528508  SOLV      6208            0.0000000000
     18744      6219  TIP3      H2             12.1470050248        0.5605006768       22.0198128508  SOLV      6208            0.0000000000
     18745      6220  TIP3      OH2            19.1026850248        0.5627306768       25.5128428508  SOLV      6209            0.0000000000
     18746      6220  TIP3      H1             18.9083950248       -0.1850593232       24.9478028508  SOLV      6209            0.0000000000
     18747      6220  TIP3      H2             19.0636950248        1.3207406768       24.9296328508  SOLV      6209            0.0000000000
     18748      6221  TIP3      OH2             5.3474950248        0.7102906768       21.4613228508  SOLV      6210            0.0000000000
     18749      6221  TIP3      H1              5.0799550248        0.9965806768       22.3346328508  SOLV      6210            0.0000000000
     18750      6221  TIP3      H2              6.1187550248        0.1642106768       21.6135728508  SOLV      6210            0.0000000000
     18751      6222  TIP3      OH2            21.5613350248       -9.8201593232       26.6333428508  SOLV      6211            0.0000000000
     18752      6222  TIP3      H1             21.1136750248       -8.9742893232       26.6149928508  SOLV      6211            0.0000000000
     18753      6222  TIP3      H2             21.0004550248      -10.3997393232       26.1178528508  SOLV      6211            0.0000000000
     18754      6223  TIP3      OH2            22.2719450248       -7.6581993232       28.7591428508  SOLV      6212            0.0000000000
     18755      6223  TIP3      H1             22.4852950248       -8.4280393232       29.2864428508  SOLV      6212            0.0000000000
     18756      6223  TIP3      H2             23.0097050248       -7.5685293232       28.1559028508  SOLV      6212            0.0000000000
     18757      6224  TIP3      OH2            22.9645950248      -10.2199193232       29.8807628508  SOLV      6213            0.0000000000
     18758      6224  TIP3      H1             23.6182550248      -10.7697493232       30.3127728508  SOLV      6213            0.0000000000
     18759      6224  TIP3      H2             22.9885250248      -10.4940193232       28.9639628508  SOLV      6213            0.0000000000
     18760      6225  TIP3      OH2            22.2522950248       -4.3879993232       25.0491528508  SOLV      6214            0.0000000000
     18761      6225  TIP3      H1             21.9803850248       -4.1588993232       24.1604428508  SOLV      6214            0.0000000000
     18762      6225  TIP3      H2             22.2978650248       -3.5501193232       25.5096828508  SOLV      6214            0.0000000000
     18763      6226  TIP3      OH2            25.4890050248       -7.6462093232       25.5691428508  SOLV      6215            0.0000000000
     18764      6226  TIP3      H1             25.1971350248       -6.8780393232       25.0782728508  SOLV      6215            0.0000000000
     18765      6226  TIP3      H2             24.8145250248       -8.3055893232       25.4062828508  SOLV      6215            0.0000000000
     18766      6227  TIP3      OH2            26.5377850248      -10.3032393232       27.4298428508  SOLV      6216            0.0000000000
     18767      6227  TIP3      H1             25.6450750248      -10.6436293232       27.3712228508  SOLV      6216            0.0000000000
     18768      6227  TIP3      H2             26.9884450248      -10.6801493232       26.6741628508  SOLV      6216            0.0000000000
     18769      6228  TIP3      OH2            27.6566650248      -12.8296693232       21.1836428508  SOLV      6217            0.0000000000
     18770      6228  TIP3      H1             27.2257350248      -13.2746593232       21.9133828508  SOLV      6217            0.0000000000
     18771      6228  TIP3      H2             26.9385350248      -12.4580393232       20.6713928508  SOLV      6217            0.0000000000
     18772      6229  TIP3      OH2            20.8990050248      -13.0877193232       28.2355128508  SOLV      6218            0.0000000000
     18773      6229  TIP3      H1             21.5297750248      -13.1165093232       28.9549028508  SOLV      6218            0.0000000000
     18774      6229  TIP3      H2             21.3484350248      -13.5128493232       27.5051028508  SOLV      6218            0.0000000000
     18775      6230  TIP3      OH2            22.1732150248      -12.3415193232       23.6595528508  SOLV      6219            0.0000000000
     18776      6230  TIP3      H1             22.6473850248      -11.7505293232       23.0746428508  SOLV      6219            0.0000000000
     18777      6230  TIP3      H2             21.4558550248      -11.8112293232       24.0065628508  SOLV      6219            0.0000000000
     18778      6231  TIP3      OH2            23.9476550248      -11.2468593232       27.3430128508  SOLV      6220            0.0000000000
     18779      6231  TIP3      H1             23.0584550248      -11.1473093232       27.0029728508  SOLV      6220            0.0000000000
     18780      6231  TIP3      H2             24.2441450248      -12.0885593232       26.9968028508  SOLV      6220            0.0000000000
     18781      6232  TIP3      OH2            27.6008350248      -11.2465993232       24.9994728508  SOLV      6221            0.0000000000
     18782      6232  TIP3      H1             28.5323850248      -11.1175993232       25.1777828508  SOLV      6221            0.0000000000
     18783      6232  TIP3      H2             27.3858650248      -10.5771693232       24.3499428508  SOLV      6221            0.0000000000
     18784      6233  TIP3      OH2            26.2748550248      -10.0523793232       22.5660828508  SOLV      6222            0.0000000000
     18785      6233  TIP3      H1             25.7323650248      -10.4319993232       21.8748428508  SOLV      6222            0.0000000000
     18786      6233  TIP3      H2             27.1083450248       -9.8579093232       22.1374928508  SOLV      6222            0.0000000000
     18787      6234  TIP3      OH2            29.6101350248       -5.4868093232       24.5018928508  SOLV      6223            0.0000000000
     18788      6234  TIP3      H1             28.8652350248       -5.9942793232       24.1796828508  SOLV      6223            0.0000000000
     18789      6234  TIP3      H2             29.4758550248       -5.4380093232       25.4483728508  SOLV      6223            0.0000000000
     18790      6235  TIP3      OH2            22.8646750248       -7.8115793232       22.2630728508  SOLV      6224            0.0000000000
     18791      6235  TIP3      H1             23.4806650248       -7.1848593232       22.6425528508  SOLV      6224            0.0000000000
     18792      6235  TIP3      H2             22.0029350248       -7.4955993232       22.5347228508  SOLV      6224            0.0000000000
     18793      6236  TIP3      OH2            28.8895450248       -2.7219093232       20.7888328508  SOLV      6225            0.0000000000
     18794      6236  TIP3      H1             29.1285250248       -3.4700993232       20.2417228508  SOLV      6225            0.0000000000
     18795      6236  TIP3      H2             28.6206750248       -3.1097393232       21.6216128508  SOLV      6225            0.0000000000
     18796      6237  TIP3      OH2            27.8266050248       -3.1515293232       23.2450928508  SOLV      6226            0.0000000000
     18797      6237  TIP3      H1             27.9734050248       -3.6715493232       24.0351828508  SOLV      6226            0.0000000000
     18798      6237  TIP3      H2             27.8237750248       -2.2447693232       23.5516828508  SOLV      6226            0.0000000000
     18799      6238  TIP3      OH2            24.2797150248       -5.8991993232       23.7556328508  SOLV      6227            0.0000000000
     18800      6238  TIP3      H1             23.5936450248       -5.5469493232       24.3226028508  SOLV      6227            0.0000000000
     18801      6238  TIP3      H2             24.8025050248       -5.1362393232       23.5090628508  SOLV      6227            0.0000000000
     18802      6239  TIP3      OH2            26.6370750248      -13.7125293232       23.5919628508  SOLV      6228            0.0000000000
     18803      6239  TIP3      H1             26.5535550248      -12.8242193232       23.9386028508  SOLV      6228            0.0000000000
     18804      6239  TIP3      H2             27.5271050248      -13.9778593232       23.8236428508  SOLV      6228            0.0000000000
     18805      6240  TIP3      OH2            24.8956050248       -3.2853093232       22.6524128508  SOLV      6229            0.0000000000
     18806      6240  TIP3      H1             25.4877550248       -2.5858293232       22.9286528508  SOLV      6229            0.0000000000
     18807      6240  TIP3      H2             25.3549050248       -3.7183593232       21.9328728508  SOLV      6229            0.0000000000
     18808      6241  TIP3      OH2            23.2115250248      -10.6210093232       21.7683528508  SOLV      6230            0.0000000000
     18809      6241  TIP3      H1             23.1667850248       -9.6816993232       21.9470528508  SOLV      6230            0.0000000000
     18810      6241  TIP3      H2             22.3238450248      -10.8565193232       21.4985628508  SOLV      6230            0.0000000000
     18811      6242  TIP3      OH2            22.9500550248       -1.8986393232       26.6020328508  SOLV      6231            0.0000000000
     18812      6242  TIP3      H1             22.1179150248       -1.4263693232       26.6291728508  SOLV      6231            0.0000000000
     18813      6242  TIP3      H2             23.4958850248       -1.3888793232       26.0033428508  SOLV      6231            0.0000000000
     18814      6243  TIP3      OH2            30.9277250248       -0.8587693232       20.9274328508  SOLV      6232            0.0000000000
     18815      6243  TIP3      H1             30.2838250248       -1.4899093232       21.2488028508  SOLV      6232            0.0000000000
     18816      6243  TIP3      H2             31.6895550248       -1.3899693232       20.6957828508  SOLV      6232            0.0000000000
     18817      6244  TIP3      OH2            26.4867450248       -5.1322893232       21.0187228508  SOLV      6233            0.0000000000
     18818      6244  TIP3      H1             26.5511550248       -5.9263293232       21.5493628508  SOLV      6233            0.0000000000
     18819      6244  TIP3      H2             27.1396650248       -5.2510093232       20.3289228508  SOLV      6233            0.0000000000
     18820      6245  TIP3      OH2            31.8390850248       -4.0851193232       20.7545228508  SOLV      6234            0.0000000000
     18821      6245  TIP3      H1             31.5704950248       -3.9049093232       21.6554128508  SOLV      6234            0.0000000000
     18822      6245  TIP3      H2             31.6326450248       -5.0104993232       20.6231028508  SOLV      6234            0.0000000000
     18823      6246  TIP3      OH2            27.6361250248       -7.1596693232       23.3245228508  SOLV      6235            0.0000000000
     18824      6246  TIP3      H1             27.1763250248       -7.6438393232       24.0103728508  SOLV      6235            0.0000000000
     18825      6246  TIP3      H2             27.8909950248       -7.8281293232       22.6885728508  SOLV      6235            0.0000000000
     18826      6247  TIP3      OH2            28.7071650248       -8.9164893232       21.5868428508  SOLV      6236            0.0000000000
     18827      6247  TIP3      H1             28.5266650248       -9.0713693232       20.6596728508  SOLV      6236            0.0000000000
     18828      6247  TIP3      H2             29.6572150248       -8.8086193232       21.6316328508  SOLV      6236            0.0000000000
     18829      6248  TIP3      OH2            22.1728250248       -3.5897393232       22.0710128508  SOLV      6237            0.0000000000
     18830      6248  TIP3      H1             23.0867450248       -3.5108493232       22.3444028508  SOLV      6237            0.0000000000
     18831      6248  TIP3      H2             22.1801350248       -4.2767793232       21.4045728508  SOLV      6237            0.0000000000
     18832      6249  TIP3      OH2            20.8218850248        1.8031106768       27.1484028508  SOLV      6238            0.0000000000
     18833      6249  TIP3      H1             20.1745950248        1.3412806768       26.6155228508  SOLV      6238            0.0000000000
     18834      6249  TIP3      H2             21.1763450248        1.1314406768       27.7310228508  SOLV      6238            0.0000000000
     18835      6250  TIP3      OH2            20.8945150248      -10.4586893232       31.5057028508  SOLV      6239            0.0000000000
     18836      6250  TIP3      H1             21.3864950248      -10.6796393232       30.7149028508  SOLV      6239            0.0000000000
     18837      6250  TIP3      H2             21.2566050248       -9.6183493232       31.7866528508  SOLV      6239            0.0000000000
     18838      6251  TIP3      OH2            21.2081650248      -14.2007793232       25.5599428508  SOLV      6240            0.0000000000
     18839      6251  TIP3      H1             20.2830050248      -13.9921193232       25.4304928508  SOLV      6240            0.0000000000
     18840      6251  TIP3      H2             21.6621550248      -13.7166993232       24.8701728508  SOLV      6240            0.0000000000
     18841      6252  TIP3      OH2            22.4844250248      -16.1580093232       23.5386028508  SOLV      6241            0.0000000000
     18842      6252  TIP3      H1             22.9234950248      -15.5469593232       22.9469528508  SOLV      6241            0.0000000000
     18843      6252  TIP3      H2             21.8506650248      -15.6195993232       24.0126028508  SOLV      6241            0.0000000000
     18844      6253  TIP3      OH2            22.3853750248       -0.2097893232       24.4361128508  SOLV      6242            0.0000000000
     18845      6253  TIP3      H1             21.7003650248       -0.2478993232       23.7686228508  SOLV      6242            0.0000000000
     18846      6253  TIP3      H2             22.3890950248        0.7029706768       24.7243228508  SOLV      6242            0.0000000000
     18847      6254  TIP3      OH2            24.3453350248      -14.2418593232       21.9810128508  SOLV      6243            0.0000000000
     18848      6254  TIP3      H1             24.8366750248      -14.8716193232       21.4535628508  SOLV      6243            0.0000000000
     18849      6254  TIP3      H2             24.9689650248      -13.9459193232       22.6441328508  SOLV      6243            0.0000000000
     18850      6255  TIP3      OH2            24.2034950248        0.7102906768       21.4613228508  SOLV      6244            0.0000000000
     18851      6255  TIP3      H1             23.9359550248        0.9965806768       22.3346328508  SOLV      6244            0.0000000000
     18852      6255  TIP3      H2             24.9747550248        0.1642106768       21.6135728508  SOLV      6244            0.0000000000
     18853      6256  TIP3      OH2           -23.8416549752       12.0564106768       27.6937428508  SOLV      6245            0.0000000000
     18854      6256  TIP3      H1            -23.7525449752       13.0002306768       27.5614528508  SOLV      6245            0.0000000000
     18855      6256  TIP3      H2            -24.4798949752       11.7810506768       27.0356828508  SOLV      6245            0.0000000000
     18856      6257  TIP3      OH2           -22.5012849752        6.3700606768       27.5194528508  SOLV      6246            0.0000000000
     18857      6257  TIP3      H1            -21.8548549752        6.0413806768       28.1442128508  SOLV      6246            0.0000000000
     18858      6257  TIP3      H2            -21.9913449752        6.8879606768       26.8965928508  SOLV      6246            0.0000000000
     18859      6258  TIP3      OH2           -24.0443849752       14.6574506768       26.7366128508  SOLV      6247            0.0000000000
     18860      6258  TIP3      H1            -24.3398749752       14.3346806768       25.8853028508  SOLV      6247            0.0000000000
     18861      6258  TIP3      H2            -24.3686049752       15.5571206768       26.7778728508  SOLV      6247            0.0000000000
     18862      6259  TIP3      OH2           -20.7374449752        5.6609906768       29.5000428508  SOLV      6248            0.0000000000
     18863      6259  TIP3      H1            -20.9526449752        4.8953306768       30.0326428508  SOLV      6248            0.0000000000
     18864      6259  TIP3      H2            -20.0817049752        6.1334506768       30.0128928508  SOLV      6248            0.0000000000
     18865      6260  TIP3      OH2           -21.2789649752       15.7717906768       26.8958228508  SOLV      6249            0.0000000000
     18866      6260  TIP3      H1            -21.5364849752       15.0818006768       26.2844128508  SOLV      6249            0.0000000000
     18867      6260  TIP3      H2            -21.2078849752       15.3289106768       27.7414128508  SOLV      6249            0.0000000000
     18868      6261  TIP3      OH2           -17.7510149752       10.6782606768       33.4392128508  SOLV      6250            0.0000000000
     18869      6261  TIP3      H1            -18.4036049752       11.3728206768       33.5283028508  SOLV      6250            0.0000000000
     18870      6261  TIP3      H2            -17.2859849752       10.8883506768       32.6293728508  SOLV      6250            0.0000000000
     18871      6262  TIP3      OH2           -21.7146349752       11.5097406768       26.0973628508  SOLV      6251            0.0000000000
     18872      6262  TIP3      H1            -22.4465349752       11.7381106768       26.6704228508  SOLV      6251            0.0000000000
     18873      6262  TIP3      H2            -21.2674149752       10.7960106768       26.5521128508  SOLV      6251            0.0000000000
     18874      6263  TIP3      OH2           -19.1448449752        2.4220706768       23.5954528508  SOLV      6252            0.0000000000
     18875      6263  TIP3      H1            -20.0447749752        2.5609706768       23.8905128508  SOLV      6252            0.0000000000
     18876      6263  TIP3      H2            -18.8930049752        3.2535306768       23.1936228508  SOLV      6252            0.0000000000
     18877      6264  TIP3      OH2           -17.9557049752       16.7883106768       21.9718428508  SOLV      6253            0.0000000000
     18878      6264  TIP3      H1            -17.8823549752       17.7273306768       22.1423728508  SOLV      6253            0.0000000000
     18879      6264  TIP3      H2            -17.0501949752       16.4831706768       21.9155728508  SOLV      6253            0.0000000000
     18880      6265  TIP3      OH2           -22.5432849752       19.5193706768       22.6349528508  SOLV      6254            0.0000000000
     18881      6265  TIP3      H1            -22.1684449752       18.7749806768       22.1642128508  SOLV      6254            0.0000000000
     18882      6265  TIP3      H2            -22.5389149752       19.2494306768       23.5532828508  SOLV      6254            0.0000000000
     18883      6266  TIP3      OH2           -21.3663749752       11.7048606768       21.4122728508  SOLV      6255            0.0000000000
     18884      6266  TIP3      H1            -21.3242949752       11.4822506768       20.4822728508  SOLV      6255            0.0000000000
     18885      6266  TIP3      H2            -20.5171649752       12.1035706768       21.6022628508  SOLV      6255            0.0000000000
     18886      6267  TIP3      OH2           -25.7936249752        5.5806806768       22.0826028508  SOLV      6256            0.0000000000
     18887      6267  TIP3      H1            -26.0471449752        5.5998406768       23.0054128508  SOLV      6256            0.0000000000
     18888      6267  TIP3      H2            -26.0504149752        4.7092206768       21.7812228508  SOLV      6256            0.0000000000
     18889      6268  TIP3      OH2           -24.4946649752        8.9687906768       26.2469228508  SOLV      6257            0.0000000000
     18890      6268  TIP3      H1            -24.9036349752        9.7836506768       25.9554028508  SOLV      6257            0.0000000000
     18891      6268  TIP3      H2            -23.7740449752        8.8288006768       25.6326328508  SOLV      6257            0.0000000000
     18892      6269  TIP3      OH2           -23.4898949752        8.4148306768       29.0608928508  SOLV      6258            0.0000000000
     18893      6269  TIP3      H1            -23.6854449752        9.0205106768       28.3459528508  SOLV      6258            0.0000000000
     18894      6269  TIP3      H2            -23.3086349752        7.5813506768       28.6265228508  SOLV      6258            0.0000000000
     18895      6270  TIP3      OH2           -28.9113349752        6.0263306768       21.1836428508  SOLV      6259            0.0000000000
     18896      6270  TIP3      H1            -29.3422649752        5.5813406768       21.9133828508  SOLV      6259            0.0000000000
     18897      6270  TIP3      H2            -29.6294649752        6.3979606768       20.6713928508  SOLV      6259            0.0000000000
     18898      6271  TIP3      OH2           -28.9671649752        7.6094006768       24.9994728508  SOLV      6260            0.0000000000
     18899      6271  TIP3      H1            -28.0356149752        7.7384006768       25.1777828508  SOLV      6260            0.0000000000
     18900      6271  TIP3      H2            -29.1821349752        8.2788306768       24.3499428508  SOLV      6260            0.0000000000
     18901      6272  TIP3      OH2           -30.2931449752        8.8036206768       22.5660828508  SOLV      6261            0.0000000000
     18902      6272  TIP3      H1            -30.8356349752        8.4240006768       21.8748428508  SOLV      6261            0.0000000000
     18903      6272  TIP3      H2            -29.4596549752        8.9980906768       22.1374928508  SOLV      6261            0.0000000000
     18904      6273  TIP3      OH2           -26.9578649752       13.3691906768       24.5018928508  SOLV      6262            0.0000000000
     18905      6273  TIP3      H1            -27.7027649752       12.8617206768       24.1796828508  SOLV      6262            0.0000000000
     18906      6273  TIP3      H2            -27.0921449752       13.4179906768       25.4483728508  SOLV      6262            0.0000000000
     18907      6274  TIP3      OH2           -23.0601849752        6.1831806768       22.7011528508  SOLV      6263            0.0000000000
     18908      6274  TIP3      H1            -23.9987649752        6.2947406768       22.5500328508  SOLV      6263            0.0000000000
     18909      6274  TIP3      H2            -22.7629749752        7.0398706768       23.0077228508  SOLV      6263            0.0000000000
     18910      6275  TIP3      OH2           -22.3418349752        8.0504506768       24.3618928508  SOLV      6264            0.0000000000
     18911      6275  TIP3      H1            -21.4499349752        7.9129506768       24.6810128508  SOLV      6264            0.0000000000
     18912      6275  TIP3      H2            -22.2854749752        8.8410606768       23.8252428508  SOLV      6264            0.0000000000
     18913      6276  TIP3      OH2           -24.8324549752       14.8276206768       23.5273528508  SOLV      6265            0.0000000000
     18914      6276  TIP3      H1            -25.1276149752       15.6544106768       23.9088328508  SOLV      6265            0.0000000000
     18915      6276  TIP3      H2            -25.5354549752       14.2083106768       23.7234928508  SOLV      6265            0.0000000000
     18916      6277  TIP3      OH2           -17.4569649752        8.2598606768       24.0565628508  SOLV      6266            0.0000000000
     18917      6277  TIP3      H1            -18.0113349752        7.8636606768       23.3843128508  SOLV      6266            0.0000000000
     18918      6277  TIP3      H2            -17.3566049752        9.1703806768       23.7788928508  SOLV      6266            0.0000000000
     18919      6278  TIP3      OH2           -19.1617949752       17.0459006768       24.5217728508  SOLV      6267            0.0000000000
     18920      6278  TIP3      H1            -19.5346849752       16.2202806768       24.8308328508  SOLV      6267            0.0000000000
     18921      6278  TIP3      H2            -18.8844449752       16.8628406768       23.6241128508  SOLV      6267            0.0000000000
     18922      6279  TIP3      OH2           -21.7692349752       15.0224806768       22.3418328508  SOLV      6268            0.0000000000
     18923      6279  TIP3      H1            -21.4159249752       14.6424606768       23.1461828508  SOLV      6268            0.0000000000
     18924      6279  TIP3      H2            -22.7178849752       14.9289606768       22.4287628508  SOLV      6268            0.0000000000
     18925      6280  TIP3      OH2           -17.2657949752       19.5017306768       22.5428528508  SOLV      6269            0.0000000000
     18926      6280  TIP3      H1            -16.5220049752       20.0877806768       22.4030128508  SOLV      6269            0.0000000000
     18927      6280  TIP3      H2            -17.9599849752       20.0703106768       22.8760928508  SOLV      6269            0.0000000000
     18928      6281  TIP3      OH2           -20.9033049752       13.6946806768       24.5686228508  SOLV      6270            0.0000000000
     18929      6281  TIP3      H1            -21.1805449752       12.9666106768       25.1247328508  SOLV      6270            0.0000000000
     18930      6281  TIP3      H2            -19.9760049752       13.8138806768       24.7738828508  SOLV      6270            0.0000000000
     18931      6282  TIP3      OH2           -27.6784549752       16.1340906768       20.7888328508  SOLV      6271            0.0000000000
     18932      6282  TIP3      H1            -27.4394749752       15.3859006768       20.2417228508  SOLV      6271            0.0000000000
     18933      6282  TIP3      H2            -27.9473249752       15.7462606768       21.6216128508  SOLV      6271            0.0000000000
     18934      6283  TIP3      OH2           -23.6722849752        5.2713506768       25.1317628508  SOLV      6272            0.0000000000
     18935      6283  TIP3      H1            -23.4524549752        5.7428906768       24.3283028508  SOLV      6272            0.0000000000
     18936      6283  TIP3      H2            -23.1138849752        5.6656106768       25.8018228508  SOLV      6272            0.0000000000
     18937      6284  TIP3      OH2           -26.4722949752        6.9992306768       25.9666028508  SOLV      6273            0.0000000000
     18938      6284  TIP3      H1            -25.6600349752        7.5035506768       26.0127728508  SOLV      6273            0.0000000000
     18939      6284  TIP3      H2            -26.7169949752        6.8542006768       26.8805628508  SOLV      6273            0.0000000000
     18940      6285  TIP3      OH2           -29.9309249752        5.1434706768       23.5919628508  SOLV      6274            0.0000000000
     18941      6285  TIP3      H1            -30.0144449752        6.0317806768       23.9386028508  SOLV      6274            0.0000000000
     18942      6285  TIP3      H2            -29.0408949752        4.8781406768       23.8236428508  SOLV      6274            0.0000000000
     18943      6286  TIP3      OH2           -21.1299749752        9.6426306768       30.0819628508  SOLV      6275            0.0000000000
     18944      6286  TIP3      H1            -21.9275349752        9.2276506768       29.7534628508  SOLV      6275            0.0000000000
     18945      6286  TIP3      H2            -20.6848649752        8.9520006768       30.5730128508  SOLV      6275            0.0000000000
     18946      6287  TIP3      OH2           -25.6402749752       17.9972306768       20.9274328508  SOLV      6276            0.0000000000
     18947      6287  TIP3      H1            -26.2841749752       17.3660906768       21.2488028508  SOLV      6276            0.0000000000
     18948      6287  TIP3      H2            -24.8784449752       17.4660306768       20.6957828508  SOLV      6276            0.0000000000
     18949      6288  TIP3      OH2           -21.0359849752       17.8142206768       21.1612328508  SOLV      6277            0.0000000000
     18950      6288  TIP3      H1            -20.7529449752       17.0197406768       21.6139228508  SOLV      6277            0.0000000000
     18951      6288  TIP3      H2            -20.2961949752       18.0473206768       20.6003428508  SOLV      6277            0.0000000000
     18952      6289  TIP3      OH2           -24.7289149752       14.7708806768       20.7545228508  SOLV      6278            0.0000000000
     18953      6289  TIP3      H1            -24.9975049752       14.9510906768       21.6554128508  SOLV      6278            0.0000000000
     18954      6289  TIP3      H2            -24.9353549752       13.8455006768       20.6231028508  SOLV      6278            0.0000000000
     18955      6290  TIP3      OH2           -28.9318749752       11.6963306768       23.3245228508  SOLV      6279            0.0000000000
     18956      6290  TIP3      H1            -29.3916749752       11.2121606768       24.0103728508  SOLV      6279            0.0000000000
     18957      6290  TIP3      H2            -28.6770049752       11.0278706768       22.6885728508  SOLV      6279            0.0000000000
     18958      6291  TIP3      OH2           -27.8608349752        9.9395106768       21.5868428508  SOLV      6280            0.0000000000
     18959      6291  TIP3      H1            -28.0413349752        9.7846306768       20.6596728508  SOLV      6280            0.0000000000
     18960      6291  TIP3      H2            -26.9107849752       10.0473806768       21.6316328508  SOLV      6280            0.0000000000
     18961      6292  TIP3      OH2           -18.4710049752       12.2939306768       21.0326528508  SOLV      6281            0.0000000000
     18962      6292  TIP3      H1            -18.7445249752       11.8694806768       20.2194828508  SOLV      6281            0.0000000000
     18963      6292  TIP3      H2            -18.4315949752       13.2253806768       20.8156928508  SOLV      6281            0.0000000000
     18964      6293  TIP3      OH2           -18.0127249752       13.1627406768       25.0076928508  SOLV      6282            0.0000000000
     18965      6293  TIP3      H1            -17.1625849752       13.5838306768       25.1348528508  SOLV      6282            0.0000000000
     18966      6293  TIP3      H2            -18.0072149752       12.4227506768       25.6148328508  SOLV      6282            0.0000000000
     18967      6294  TIP3      OH2           -17.6181649752       11.2164806768       26.8312628508  SOLV      6283            0.0000000000
     18968      6294  TIP3      H1            -18.3447049752       10.7367406768       27.2290228508  SOLV      6283            0.0000000000
     18969      6294  TIP3      H2            -17.0368349752       11.4219506768       27.5634228508  SOLV      6283            0.0000000000
     18970      6295  TIP3      OH2           -17.3498549752       11.1173306768       23.2223928508  SOLV      6284            0.0000000000
     18971      6295  TIP3      H1            -17.8717449752       11.4737406768       22.5034828508  SOLV      6284            0.0000000000
     18972      6295  TIP3      H2            -17.3829349752       11.7921106768       23.9004828508  SOLV      6284            0.0000000000
     18973      6296  TIP3      OH2           -19.0009549752        8.3568906768       21.7731028508  SOLV      6285            0.0000000000
     18974      6296  TIP3      H1            -18.9045149752        9.0235906768       21.0930728508  SOLV      6285            0.0000000000
     18975      6296  TIP3      H2            -19.1409949752        7.5415206768       21.2916528508  SOLV      6285            0.0000000000
     18976      6297  TIP3      OH2           -19.8314849752        9.7371306768       27.3941328508  SOLV      6286            0.0000000000
     18977      6297  TIP3      H1            -19.9816049752        8.7919906768       27.3739128508  SOLV      6286            0.0000000000
     18978      6297  TIP3      H2            -20.1850349752       10.0182706768       28.2380428508  SOLV      6286            0.0000000000
     18979      6298  TIP3      OH2           -19.7535749752        5.7648706768       20.8906528508  SOLV      6287            0.0000000000
     18980      6298  TIP3      H1            -19.1429949752        5.3935506768       21.5274728508  SOLV      6287            0.0000000000
     18981      6298  TIP3      H2            -20.5904249752        5.3435606768       21.0866528508  SOLV      6287            0.0000000000
     18982      6299  TIP3      OH2           -20.1210049752        7.3197106768       25.8566428508  SOLV      6288            0.0000000000
     18983      6299  TIP3      H1            -19.8412949752        6.4127506768       25.9808128508  SOLV      6288            0.0000000000
     18984      6299  TIP3      H2            -19.3618349752        7.7538606768       25.4675628508  SOLV      6288            0.0000000000
     18985      6300  TIP3      OH2           -19.5091749752        7.9014506768       31.2925328508  SOLV      6289            0.0000000000
     18986      6300  TIP3      H1            -18.5763749752        8.1134406768       31.2581328508  SOLV      6289            0.0000000000
     18987      6300  TIP3      H2            -19.7444249752        8.0026606768       32.2148328508  SOLV      6289            0.0000000000
     18988      6301  TIP3      OH2           -19.5075249752        4.5826406768       25.9048428508  SOLV      6290            0.0000000000
     18989      6301  TIP3      H1            -19.3250249752        4.1337906768       26.7303428508  SOLV      6290            0.0000000000
     18990      6301  TIP3      H2            -20.1072349752        3.9980806768       25.4413028508  SOLV      6290            0.0000000000
     18991      6302  TIP3      OH2           -17.6409049752        4.6504506768       22.4328728508  SOLV      6291            0.0000000000
     18992      6302  TIP3      H1            -17.2286449752        3.9290206768       21.9576728508  SOLV      6291            0.0000000000
     18993      6302  TIP3      H2            -16.9592549752        5.3199106768       22.4913028508  SOLV      6291            0.0000000000
     18994      6303  TIP3      OH2           -18.3769049752        3.5124206768       28.3588028508  SOLV      6292            0.0000000000
     18995      6303  TIP3      H1            -17.7651549752        2.9979906768       27.8321628508  SOLV      6292            0.0000000000
     18996      6303  TIP3      H2            -17.9945649752        4.3896306768       28.3822428508  SOLV      6292            0.0000000000
     18997      6304  TIP3      OH2           -21.4305549752        2.8826506768       24.8899728508  SOLV      6293            0.0000000000
     18998      6304  TIP3      H1            -22.1334449752        3.4975706768       24.6801128508  SOLV      6293            0.0000000000
     18999      6304  TIP3      H2            -21.8754149752        2.0453206768       25.0210628508  SOLV      6293            0.0000000000
     19000      6305  TIP3      OH2           -32.2226649752        4.6141406768       21.9810128508  SOLV      6294            0.0000000000
     19001      6305  TIP3      H1            -31.7313249752        3.9843806768       21.4535628508  SOLV      6294            0.0000000000
     19002      6305  TIP3      H2            -31.5990349752        4.9100806768       22.6441328508  SOLV      6294            0.0000000000
     19003      6306  TIP3      OH2           -27.1966549752        4.9072906768       24.4380628508  SOLV      6295            0.0000000000
     19004      6306  TIP3      H1            -27.0185249752        4.2606106768       25.1209228508  SOLV      6295            0.0000000000
     19005      6306  TIP3      H2            -27.2500349752        5.7410606768       24.9051728508  SOLV      6295            0.0000000000
     19006      6307  TIP3      OH2           -18.6093149752       19.4187306768       25.5128428508  SOLV      6296            0.0000000000
     19007      6307  TIP3      H1            -18.8036049752       18.6709406768       24.9478028508  SOLV      6296            0.0000000000
     19008      6307  TIP3      H2            -18.6483049752       20.1767406768       24.9296328508  SOLV      6296            0.0000000000
     19009      6308  TIP3      OH2            -4.9856549752       12.0564106768       27.6937428508  SOLV      6297            0.0000000000
     19010      6308  TIP3      H1             -4.8965449752       13.0002306768       27.5614528508  SOLV      6297            0.0000000000
     19011      6308  TIP3      H2             -5.6238949752       11.7810506768       27.0356828508  SOLV      6297            0.0000000000
     19012      6309  TIP3      OH2            -6.0525249752       11.3114806768       31.1125628508  SOLV      6298            0.0000000000
     19013      6309  TIP3      H1             -6.0907749752       10.6651106768       31.8175228508  SOLV      6298            0.0000000000
     19014      6309  TIP3      H2             -6.3748749752       10.8449206768       30.3414328508  SOLV      6298            0.0000000000
     19015      6310  TIP3      OH2           -13.6840249752       10.9256906768       32.7055528508  SOLV      6299            0.0000000000
     19016      6310  TIP3      H1            -13.6428149752       10.3000206768       33.4287928508  SOLV      6299            0.0000000000
     19017      6310  TIP3      H2            -12.9812549752       11.5495506768       32.8875928508  SOLV      6299            0.0000000000
     19018      6311  TIP3      OH2            -2.3465049752       14.2505206768       29.4140728508  SOLV      6300            0.0000000000
     19019      6311  TIP3      H1             -2.7872349752       13.5301206768       29.8646328508  SOLV      6300            0.0000000000
     19020      6311  TIP3      H2             -2.3595349752       14.9712406768       30.0438428508  SOLV      6300            0.0000000000
     19021      6312  TIP3      OH2           -12.7607149752       15.3755806768       31.2404628508  SOLV      6301            0.0000000000
     19022      6312  TIP3      H1            -13.1301949752       14.5736306768       30.8708928508  SOLV      6301            0.0000000000
     19023      6312  TIP3      H2            -11.8196049752       15.2070706768       31.2868028508  SOLV      6301            0.0000000000
     19024      6313  TIP3      OH2           -16.1506649752        9.0358406768       26.6333428508  SOLV      6302            0.0000000000
     19025      6313  TIP3      H1            -16.5983249752        9.8817106768       26.6149928508  SOLV      6302            0.0000000000
     19026      6313  TIP3      H2            -16.7115449752        8.4562606768       26.1178528508  SOLV      6302            0.0000000000
     19027      6314  TIP3      OH2           -15.4400549752       11.1978006768       28.7591428508  SOLV      6303            0.0000000000
     19028      6314  TIP3      H1            -15.2267049752       10.4279606768       29.2864428508  SOLV      6303            0.0000000000
     19029      6314  TIP3      H2            -14.7022949752       11.2874706768       28.1559028508  SOLV      6303            0.0000000000
     19030      6315  TIP3      OH2            -5.2349549752       19.3546906768       29.6261128508  SOLV      6304            0.0000000000
     19031      6315  TIP3      H1             -4.6153149752       18.6781606768       29.3530328508  SOLV      6304            0.0000000000
     19032      6315  TIP3      H2             -5.4432149752       19.1367706768       30.5346028508  SOLV      6304            0.0000000000
     19033      6316  TIP3      OH2            -7.6630849752       13.7436206768       31.5186628508  SOLV      6305            0.0000000000
     19034      6316  TIP3      H1             -7.3592949752       13.0577606768       30.9240728508  SOLV      6305            0.0000000000
     19035      6316  TIP3      H2             -6.9416849752       13.8624906768       32.1364628508  SOLV      6305            0.0000000000
     19036      6317  TIP3      OH2             0.9998950248        5.3451506768       32.3792828508  SOLV      6306            0.0000000000
     19037      6317  TIP3      H1              1.0491150248        5.9552706768       33.1151928508  SOLV      6306            0.0000000000
     19038      6317  TIP3      H2              1.4254050248        5.8062406768       31.6563928508  SOLV      6306            0.0000000000
     19039      6318  TIP3      OH2            -4.5223849752        8.1378606768       31.8461428508  SOLV      6307            0.0000000000
     19040      6318  TIP3      H1             -4.3797949752        7.1915606768       31.8663028508  SOLV      6307            0.0000000000
     19041      6318  TIP3      H2             -4.6284849752        8.3448406768       30.9176328508  SOLV      6307            0.0000000000
     19042      6319  TIP3      OH2           -11.3675549752        6.2395006768       29.1186228508  SOLV      6308            0.0000000000
     19043      6319  TIP3      H1            -11.3244449752        7.0993506768       28.7002528508  SOLV      6308            0.0000000000
     19044      6319  TIP3      H2            -11.8251449752        5.6869706768       28.4849428508  SOLV      6308            0.0000000000
     19045      6320  TIP3      OH2            -3.6452849752        6.3700606768       27.5194528508  SOLV      6309            0.0000000000
     19046      6320  TIP3      H1             -2.9988549752        6.0413806768       28.1442128508  SOLV      6309            0.0000000000
     19047      6320  TIP3      H2             -3.1353449752        6.8879606768       26.8965928508  SOLV      6309            0.0000000000
     19048      6321  TIP3      OH2           -14.7474049752        8.6360806768       29.8807628508  SOLV      6310            0.0000000000
     19049      6321  TIP3      H1            -14.0937449752        8.0862506768       30.3127728508  SOLV      6310            0.0000000000
     19050      6321  TIP3      H2            -14.7234749752        8.3619806768       28.9639628508  SOLV      6310            0.0000000000
     19051      6322  TIP3      OH2            -9.5909549752       10.1862106768       29.0959128508  SOLV      6311            0.0000000000
     19052      6322  TIP3      H1             -8.9748549752        9.6597506768       29.6053128508  SOLV      6311            0.0000000000
     19053      6322  TIP3      H2            -10.1770749752        9.5460806768       28.6922728508  SOLV      6311            0.0000000000
     19054      6323  TIP3      OH2             1.3913550248        6.8230706768       34.6152628508  SOLV      6312            0.0000000000
     19055      6323  TIP3      H1              0.7028150248        7.4811406768       34.5199228508  SOLV      6312            0.0000000000
     19056      6323  TIP3      H2              1.4068150248        6.6258606768       35.5518028508  SOLV      6312            0.0000000000
     19057      6324  TIP3      OH2           -12.5573649752        5.1573406768       33.1927028508  SOLV      6313            0.0000000000
     19058      6324  TIP3      H1            -12.7761949752        5.6874006768       32.4263028508  SOLV      6313            0.0000000000
     19059      6324  TIP3      H2            -13.2252749752        5.3838906768       33.8398428508  SOLV      6313            0.0000000000
     19060      6325  TIP3      OH2            -5.1883849752       14.6574506768       26.7366128508  SOLV      6314            0.0000000000
     19061      6325  TIP3      H1             -5.4838749752       14.3346806768       25.8853028508  SOLV      6314            0.0000000000
     19062      6325  TIP3      H2             -5.5126049752       15.5571206768       26.7778728508  SOLV      6314            0.0000000000
     19063      6326  TIP3      OH2            -9.9882249752       12.8329106768       33.4800728508  SOLV      6315            0.0000000000
     19064      6326  TIP3      H1            -10.7283149752       13.4310606768       33.5835928508  SOLV      6315            0.0000000000
     19065      6326  TIP3      H2             -9.2742749752       13.3868706768       33.1644328508  SOLV      6315            0.0000000000
     19066      6327  TIP3      OH2            -1.8814449752        5.6609906768       29.5000428508  SOLV      6316            0.0000000000
     19067      6327  TIP3      H1             -2.0966449752        4.8953306768       30.0326428508  SOLV      6316            0.0000000000
     19068      6327  TIP3      H2             -1.2257049752        6.1334506768       30.0128928508  SOLV      6316            0.0000000000
     19069      6328  TIP3      OH2           -12.9636349752        7.0495206768       31.1449228508  SOLV      6317            0.0000000000
     19070      6328  TIP3      H1            -12.3500049752        7.6822806768       31.5181628508  SOLV      6317            0.0000000000
     19071      6328  TIP3      H2            -12.4515649752        6.5770206768       30.4886128508  SOLV      6317            0.0000000000
     19072      6329  TIP3      OH2           -15.4597049752       14.4680006768       25.0491528508  SOLV      6318            0.0000000000
     19073      6329  TIP3      H1            -15.7316149752       14.6971006768       24.1604428508  SOLV      6318            0.0000000000
     19074      6329  TIP3      H2            -15.4141349752       15.3058806768       25.5096828508  SOLV      6318            0.0000000000
     19075      6330  TIP3      OH2            -1.8347349752       16.0895906768       31.7620028508  SOLV      6319            0.0000000000
     19076      6330  TIP3      H1             -2.7763649752       16.1479806768       31.9236928508  SOLV      6319            0.0000000000
     19077      6330  TIP3      H2             -1.5581249752       16.9956406768       31.6249728508  SOLV      6319            0.0000000000
     19078      6331  TIP3      OH2            -1.5340349752        4.3761206768       33.1793928508  SOLV      6320            0.0000000000
     19079      6331  TIP3      H1             -2.2701149752        4.9868306768       33.1415228508  SOLV      6320            0.0000000000
     19080      6331  TIP3      H2             -0.8506349752        4.7910206768       32.6530328508  SOLV      6320            0.0000000000
     19081      6332  TIP3      OH2            -8.5308949752        2.4628506768       30.6451928508  SOLV      6321            0.0000000000
     19082      6332  TIP3      H1             -8.6484749752        1.5144506768       30.5910228508  SOLV      6321            0.0000000000
     19083      6332  TIP3      H2             -9.3858849752        2.7954606768       30.9183028508  SOLV      6321            0.0000000000
     19084      6333  TIP3      OH2            -3.5826149752       17.8709406768       28.3871628508  SOLV      6322            0.0000000000
     19085      6333  TIP3      H1             -3.1573849752       17.1637306768       27.9021228508  SOLV      6322            0.0000000000
     19086      6333  TIP3      H2             -3.2656149752       18.6722106768       27.9703828508  SOLV      6322            0.0000000000
     19087      6334  TIP3      OH2            -2.4229649752       15.7717906768       26.8958228508  SOLV      6323            0.0000000000
     19088      6334  TIP3      H1             -2.6804849752       15.0818006768       26.2844128508  SOLV      6323            0.0000000000
     19089      6334  TIP3      H2             -2.3518849752       15.3289106768       27.7414128508  SOLV      6323            0.0000000000
     19090      6335  TIP3      OH2            -6.2644049752       11.3004106768       25.1457728508  SOLV      6324            0.0000000000
     19091      6335  TIP3      H1             -6.9758549752       11.8353806768       24.7938228508  SOLV      6324            0.0000000000
     19092      6335  TIP3      H2             -5.5734449752       11.3556206768       24.4856628508  SOLV      6324            0.0000000000
     19093      6336  TIP3      OH2            -6.2104849752        9.7578406768       22.1842728508  SOLV      6325            0.0000000000
     19094      6336  TIP3      H1             -5.5094949752        9.7805306768       22.8356728508  SOLV      6325            0.0000000000
     19095      6336  TIP3      H2             -5.9081949752        9.1298106768       21.5282028508  SOLV      6325            0.0000000000
     19096      6337  TIP3      OH2             1.1049850248       10.6782606768       33.4392128508  SOLV      6326            0.0000000000
     19097      6337  TIP3      H1              0.4523950248       11.3728206768       33.5283028508  SOLV      6326            0.0000000000
     19098      6337  TIP3      H2              1.5700150248       10.8883506768       32.6293728508  SOLV      6326            0.0000000000
     19099      6338  TIP3      OH2            -2.8586349752       11.5097406768       26.0973628508  SOLV      6327            0.0000000000
     19100      6338  TIP3      H1             -3.5905349752       11.7381106768       26.6704228508  SOLV      6327            0.0000000000
     19101      6338  TIP3      H2             -2.4114149752       10.7960106768       26.5521128508  SOLV      6327            0.0000000000
     19102      6339  TIP3      OH2            -2.9612849752        9.6840006768       35.1650628508  SOLV      6328            0.0000000000
     19103      6339  TIP3      H1             -2.8813749752       10.4474406768       35.7369128508  SOLV      6328            0.0000000000
     19104      6339  TIP3      H2             -3.5625149752        9.9632406768       34.4745728508  SOLV      6328            0.0000000000
     19105      6340  TIP3      OH2           -11.2132649752       12.1403606768       27.9798628508  SOLV      6329            0.0000000000
     19106      6340  TIP3      H1            -11.5437449752       11.7697006768       27.1615628508  SOLV      6329            0.0000000000
     19107      6340  TIP3      H2            -10.6248549752       11.4697606768       28.3266928508  SOLV      6329            0.0000000000
     19108      6341  TIP3      OH2            -9.8465149752       15.5684206768       30.6610828508  SOLV      6330            0.0000000000
     19109      6341  TIP3      H1             -9.9413849752       14.9897306768       29.9045428508  SOLV      6330            0.0000000000
     19110      6341  TIP3      H2             -9.1171549752       15.1969906768       31.1573628508  SOLV      6330            0.0000000000
     19111      6342  TIP3      OH2           -10.8467149752       10.9089206768       31.6133628508  SOLV      6331            0.0000000000
     19112      6342  TIP3      H1            -10.2814649752       11.0303406768       30.8504828508  SOLV      6331            0.0000000000
     19113      6342  TIP3      H2            -10.5278249752       11.5464206768       32.2522128508  SOLV      6331            0.0000000000
     19114      6343  TIP3      OH2            -4.5374949752       16.4121106768       32.3474128508  SOLV      6332            0.0000000000
     19115      6343  TIP3      H1             -4.7778349752       17.0744206768       32.9953328508  SOLV      6332            0.0000000000
     19116      6343  TIP3      H2             -4.7356749752       15.5776306768       32.7723728508  SOLV      6332            0.0000000000
     19117      6344  TIP3      OH2            -3.9876849752       10.6720306768       23.7824828508  SOLV      6333            0.0000000000
     19118      6344  TIP3      H1             -3.4081349752       10.8220606768       24.5293728508  SOLV      6333            0.0000000000
     19119      6344  TIP3      H2             -3.5736849752       11.1427706768       23.0591228508  SOLV      6333            0.0000000000
     19120      6345  TIP3      OH2            -6.2611949752       17.4088806768       27.2177928508  SOLV      6334            0.0000000000
     19121      6345  TIP3      H1             -5.7874349752       17.7045106768       27.9952128508  SOLV      6334            0.0000000000
     19122      6345  TIP3      H2             -6.8242649752       18.1470406768       26.9847528508  SOLV      6334            0.0000000000
     19123      6346  TIP3      OH2            -0.2888449752        2.4220706768       23.5954528508  SOLV      6335            0.0000000000
     19124      6346  TIP3      H1             -1.1887749752        2.5609706768       23.8905128508  SOLV      6335            0.0000000000
     19125      6346  TIP3      H2             -0.0370049752        3.2535306768       23.1936228508  SOLV      6335            0.0000000000
     19126      6347  TIP3      OH2           -12.2229949752       11.2097906768       25.5691428508  SOLV      6336            0.0000000000
     19127      6347  TIP3      H1            -12.5148649752       11.9779606768       25.0782728508  SOLV      6336            0.0000000000
     19128      6347  TIP3      H2            -12.8974749752       10.5504106768       25.4062828508  SOLV      6336            0.0000000000
     19129      6348  TIP3      OH2             0.9002950248       16.7883106768       21.9718428508  SOLV      6337            0.0000000000
     19130      6348  TIP3      H1              0.9736450248       17.7273306768       22.1423728508  SOLV      6337            0.0000000000
     19131      6348  TIP3      H2              1.8058050248       16.4831706768       21.9155728508  SOLV      6337            0.0000000000
     19132      6349  TIP3      OH2            -6.7888849752       20.3653506768       25.6327128508  SOLV      6338            0.0000000000
     19133      6349  TIP3      H1             -6.8642849752       20.2440706768       24.6862328508  SOLV      6338            0.0000000000
     19134      6349  TIP3      H2             -6.7560149752       21.3146206768       25.7511728508  SOLV      6338            0.0000000000
     19135      6350  TIP3      OH2           -13.1355049752       19.1540506768       27.4136128508  SOLV      6339            0.0000000000
     19136      6350  TIP3      H1            -12.9834649752       18.8060906768       28.2922628508  SOLV      6339            0.0000000000
     19137      6350  TIP3      H2            -13.9864649752       18.7977806768       27.1583328508  SOLV      6339            0.0000000000
     19138      6351  TIP3      OH2            -3.6872849752       19.5193706768       22.6349528508  SOLV      6340            0.0000000000
     19139      6351  TIP3      H1             -3.3124449752       18.7749806768       22.1642128508  SOLV      6340            0.0000000000
     19140      6351  TIP3      H2             -3.6829149752       19.2494306768       23.5532828508  SOLV      6340            0.0000000000
     19141      6352  TIP3      OH2            -4.0184749752       19.4450806768       25.3841728508  SOLV      6341            0.0000000000
     19142      6352  TIP3      H1             -4.9534949752       19.5452706768       25.5628728508  SOLV      6341            0.0000000000
     19143      6352  TIP3      H2             -3.7382849752       18.7356806768       25.9624928508  SOLV      6341            0.0000000000
     19144      6353  TIP3      OH2           -11.2621349752        3.3663006768       31.4228228508  SOLV      6342            0.0000000000
     19145      6353  TIP3      H1            -12.1237649752        3.2791206768       31.0151128508  SOLV      6342            0.0000000000
     19146      6353  TIP3      H2            -11.2845649752        4.2223106768       31.8505828508  SOLV      6342            0.0000000000
     19147      6354  TIP3      OH2            -6.5993549752        3.0883406768       34.7975228508  SOLV      6343            0.0000000000
     19148      6354  TIP3      H1             -6.1790449752        2.6730506768       35.5505828508  SOLV      6343            0.0000000000
     19149      6354  TIP3      H2             -7.5323949752        2.9096706768       34.9147228508  SOLV      6343            0.0000000000
     19150      6355  TIP3      OH2            -3.2728649752        6.8438606768       35.6509728508  SOLV      6344            0.0000000000
     19151      6355  TIP3      H1             -3.7869149752        6.7180806768       36.4485728508  SOLV      6344            0.0000000000
     19152      6355  TIP3      H2             -3.4283949752        7.7561706768       35.4065928508  SOLV      6344            0.0000000000
     19153      6356  TIP3      OH2            -2.5103749752       11.7048606768       21.4122728508  SOLV      6345            0.0000000000
     19154      6356  TIP3      H1             -2.4682949752       11.4822506768       20.4822728508  SOLV      6345            0.0000000000
     19155      6356  TIP3      H2             -1.6611649752       12.1035706768       21.6022628508  SOLV      6345            0.0000000000
     19156      6357  TIP3      OH2            -6.9376249752        5.5806806768       22.0826028508  SOLV      6346            0.0000000000
     19157      6357  TIP3      H1             -7.1911449752        5.5998406768       23.0054128508  SOLV      6346            0.0000000000
     19158      6357  TIP3      H2             -7.1944149752        4.7092206768       21.7812228508  SOLV      6346            0.0000000000
     19159      6358  TIP3      OH2           -11.1711249752        8.3317506768       32.5178428508  SOLV      6347            0.0000000000
     19160      6358  TIP3      H1            -11.8129149752        8.2914806768       33.2268528508  SOLV      6347            0.0000000000
     19161      6358  TIP3      H2            -11.1339249752        9.2582206768       32.2801428508  SOLV      6347            0.0000000000
     19162      6359  TIP3      OH2           -11.1742149752        8.5527606768       27.4298428508  SOLV      6348            0.0000000000
     19163      6359  TIP3      H1            -12.0669249752        8.2123706768       27.3712228508  SOLV      6348            0.0000000000
     19164      6359  TIP3      H2            -10.7235549752        8.1758506768       26.6741628508  SOLV      6348            0.0000000000
     19165      6360  TIP3      OH2            -5.6386649752        8.9687906768       26.2469228508  SOLV      6349            0.0000000000
     19166      6360  TIP3      H1             -6.0476349752        9.7836506768       25.9554028508  SOLV      6349            0.0000000000
     19167      6360  TIP3      H2             -4.9180449752        8.8288006768       25.6326328508  SOLV      6349            0.0000000000
     19168      6361  TIP3      OH2            -4.6338949752        8.4148306768       29.0608928508  SOLV      6350            0.0000000000
     19169      6361  TIP3      H1             -4.8294449752        9.0205106768       28.3459528508  SOLV      6350            0.0000000000
     19170      6361  TIP3      H2             -4.4526349752        7.5813506768       28.6265228508  SOLV      6350            0.0000000000
     19171      6362  TIP3      OH2           -13.4210749752        8.6521006768       34.3850428508  SOLV      6351            0.0000000000
     19172      6362  TIP3      H1            -13.4591349752        9.0522606768       35.2537528508  SOLV      6351            0.0000000000
     19173      6362  TIP3      H2            -13.9119649752        7.8353406768       34.4753328508  SOLV      6351            0.0000000000
     19174      6363  TIP3      OH2           -10.0553349752        6.0263306768       21.1836428508  SOLV      6352            0.0000000000
     19175      6363  TIP3      H1            -10.4862649752        5.5813406768       21.9133828508  SOLV      6352            0.0000000000
     19176      6363  TIP3      H2            -10.7734649752        6.3979606768       20.6713928508  SOLV      6352            0.0000000000
     19177      6364  TIP3      OH2           -16.8129949752        5.7682806768       28.2355128508  SOLV      6353            0.0000000000
     19178      6364  TIP3      H1            -16.1822249752        5.7394906768       28.9549028508  SOLV      6353            0.0000000000
     19179      6364  TIP3      H2            -16.3635649752        5.3431506768       27.5051028508  SOLV      6353            0.0000000000
     19180      6365  TIP3      OH2           -15.5387849752        6.5144806768       23.6595528508  SOLV      6354            0.0000000000
     19181      6365  TIP3      H1            -15.0646149752        7.1054706768       23.0746428508  SOLV      6354            0.0000000000
     19182      6365  TIP3      H2            -16.2561449752        7.0447706768       24.0065628508  SOLV      6354            0.0000000000
     19183      6366  TIP3      OH2            -5.3699749752       10.0529606768       33.7321328508  SOLV      6355            0.0000000000
     19184      6366  TIP3      H1             -5.0464949752        9.4219306768       33.0891828508  SOLV      6355            0.0000000000
     19185      6366  TIP3      H2             -5.8100449752        9.5181806768       34.3928728508  SOLV      6355            0.0000000000
     19186      6367  TIP3      OH2            -8.5926849752        5.9805106768       28.5162528508  SOLV      6356            0.0000000000
     19187      6367  TIP3      H1             -9.5035749752        6.0371906768       28.8048528508  SOLV      6356            0.0000000000
     19188      6367  TIP3      H2             -8.0873949752        5.9200606768       29.3269728508  SOLV      6356            0.0000000000
     19189      6368  TIP3      OH2           -13.7643449752        7.6091406768       27.3430128508  SOLV      6357            0.0000000000
     19190      6368  TIP3      H1            -14.6535449752        7.7086906768       27.0029728508  SOLV      6357            0.0000000000
     19191      6368  TIP3      H2            -13.4678549752        6.7674406768       26.9968028508  SOLV      6357            0.0000000000
     19192      6369  TIP3      OH2           -10.1111649752        7.6094006768       24.9994728508  SOLV      6358            0.0000000000
     19193      6369  TIP3      H1             -9.1796149752        7.7384006768       25.1777828508  SOLV      6358            0.0000000000
     19194      6369  TIP3      H2            -10.3261349752        8.2788306768       24.3499428508  SOLV      6358            0.0000000000
     19195      6370  TIP3      OH2            -4.1874949752        5.2151406768       31.7804328508  SOLV      6359            0.0000000000
     19196      6370  TIP3      H1             -4.8643349752        5.3464506768       32.4444028508  SOLV      6359            0.0000000000
     19197      6370  TIP3      H2             -4.6730049752        5.0600906768       30.9702028508  SOLV      6359            0.0000000000
     19198      6371  TIP3      OH2           -11.4371449752        8.8036206768       22.5660828508  SOLV      6360            0.0000000000
     19199      6371  TIP3      H1            -11.9796349752        8.4240006768       21.8748428508  SOLV      6360            0.0000000000
     19200      6371  TIP3      H2            -10.6036549752        8.9980906768       22.1374928508  SOLV      6360            0.0000000000
     19201      6372  TIP3      OH2            -7.2727149752        8.7678106768       30.4032128508  SOLV      6361            0.0000000000
     19202      6372  TIP3      H1             -6.7083749752        8.2214706768       29.8561728508  SOLV      6361            0.0000000000
     19203      6372  TIP3      H2             -7.4203749752        8.2460006768       31.1919728508  SOLV      6361            0.0000000000
     19204      6373  TIP3      OH2           -12.2707449752        4.9044206768       26.8216928508  SOLV      6362            0.0000000000
     19205      6373  TIP3      H1            -12.5877949752        4.0019506768       26.7862328508  SOLV      6362            0.0000000000
     19206      6373  TIP3      H2            -11.4893349752        4.9061606768       26.2688528508  SOLV      6362            0.0000000000
     19207      6374  TIP3      OH2            -8.6461249752        7.1564206768       32.8172528508  SOLV      6363            0.0000000000
     19208      6374  TIP3      H1             -9.4815949752        7.6103706768       32.9274928508  SOLV      6363            0.0000000000
     19209      6374  TIP3      H2             -8.1220649752        7.4322706768       33.5692428508  SOLV      6363            0.0000000000
     19210      6375  TIP3      OH2            -8.1018649752       13.3691906768       24.5018928508  SOLV      6364            0.0000000000
     19211      6375  TIP3      H1             -8.8467649752       12.8617206768       24.1796828508  SOLV      6364            0.0000000000
     19212      6375  TIP3      H2             -8.2361449752       13.4179906768       25.4483728508  SOLV      6364            0.0000000000
     19213      6376  TIP3      OH2            -0.9519749752       12.5020106768       33.2886528508  SOLV      6365            0.0000000000
     19214      6376  TIP3      H1             -0.3100949752       12.9586406768       32.7448728508  SOLV      6365            0.0000000000
     19215      6376  TIP3      H2             -1.7822849752       12.6152506768       32.8260628508  SOLV      6365            0.0000000000
     19216      6377  TIP3      OH2            -4.2041849752        6.1831806768       22.7011528508  SOLV      6366            0.0000000000
     19217      6377  TIP3      H1             -5.1427649752        6.2947406768       22.5500328508  SOLV      6366            0.0000000000
     19218      6377  TIP3      H2             -3.9069749752        7.0398706768       23.0077228508  SOLV      6366            0.0000000000
     19219      6378  TIP3      OH2            -3.4858349752        8.0504506768       24.3618928508  SOLV      6367            0.0000000000
     19220      6378  TIP3      H1             -2.5939349752        7.9129506768       24.6810128508  SOLV      6367            0.0000000000
     19221      6378  TIP3      H2             -3.4294749752        8.8410606768       23.8252428508  SOLV      6367            0.0000000000
     19222      6379  TIP3      OH2           -12.9770349752       12.6641906768       30.2716828508  SOLV      6368            0.0000000000
     19223      6379  TIP3      H1            -12.2323149752       12.6617606768       29.6703328508  SOLV      6368            0.0000000000
     19224      6379  TIP3      H2            -12.8993749752       11.8405706768       30.7531928508  SOLV      6368            0.0000000000
     19225      6380  TIP3      OH2            -5.9764549752       14.8276206768       23.5273528508  SOLV      6369            0.0000000000
     19226      6380  TIP3      H1             -6.2716149752       15.6544106768       23.9088328508  SOLV      6369            0.0000000000
     19227      6380  TIP3      H2             -6.6794549752       14.2083106768       23.7234928508  SOLV      6369            0.0000000000
     19228      6381  TIP3      OH2             1.3990350248        8.2598606768       24.0565628508  SOLV      6370            0.0000000000
     19229      6381  TIP3      H1              0.8446650248        7.8636606768       23.3843128508  SOLV      6370            0.0000000000
     19230      6381  TIP3      H2              1.4993950248        9.1703806768       23.7788928508  SOLV      6370            0.0000000000
     19231      6382  TIP3      OH2            -0.3057949752       17.0459006768       24.5217728508  SOLV      6371            0.0000000000
     19232      6382  TIP3      H1             -0.6786849752       16.2202806768       24.8308328508  SOLV      6371            0.0000000000
     19233      6382  TIP3      H2             -0.0284449752       16.8628406768       23.6241128508  SOLV      6371            0.0000000000
     19234      6383  TIP3      OH2            -3.1454049752       11.8538506768       31.5429628508  SOLV      6372            0.0000000000
     19235      6383  TIP3      H1             -4.0737149752       11.6220406768       31.5158928508  SOLV      6372            0.0000000000
     19236      6383  TIP3      H2             -2.6942949752       11.0768306768       31.2128428508  SOLV      6372            0.0000000000
     19237      6384  TIP3      OH2           -10.6020949752       16.1820106768       27.6758328508  SOLV      6373            0.0000000000
     19238      6384  TIP3      H1            -10.0748749752       16.9554506768       27.4757128508  SOLV      6373            0.0000000000
     19239      6384  TIP3      H2            -11.4822449752       16.4069306768       27.3742328508  SOLV      6373            0.0000000000
     19240      6385  TIP3      OH2           -14.8473249752       11.0444206768       22.2630728508  SOLV      6374            0.0000000000
     19241      6385  TIP3      H1            -14.2313349752       11.6711406768       22.6425528508  SOLV      6374            0.0000000000
     19242      6385  TIP3      H2            -15.7090649752       11.3604006768       22.5347228508  SOLV      6374            0.0000000000
     19243      6386  TIP3      OH2            -9.1748649752       13.8450006768       27.2522628508  SOLV      6375            0.0000000000
     19244      6386  TIP3      H1             -9.4158649752       14.7704406768       27.2937928508  SOLV      6375            0.0000000000
     19245      6386  TIP3      H2             -9.9155049752       13.3861306768       27.6486528508  SOLV      6375            0.0000000000
     19246      6387  TIP3      OH2           -10.4917849752       18.8667606768       26.7974828508  SOLV      6376            0.0000000000
     19247      6387  TIP3      H1            -11.4417349752       18.9725006768       26.8488128508  SOLV      6376            0.0000000000
     19248      6387  TIP3      H2            -10.1399749752       19.6875006768       27.1422328508  SOLV      6376            0.0000000000
     19249      6388  TIP3      OH2            -5.1161249752       14.0934306768       33.2679328508  SOLV      6377            0.0000000000
     19250      6388  TIP3      H1             -5.5419949752       13.8656006768       34.0943328508  SOLV      6377            0.0000000000
     19251      6388  TIP3      H2             -4.5355449752       13.3546106768       33.0854628508  SOLV      6377            0.0000000000
     19252      6389  TIP3      OH2            -2.9132349752       15.0224806768       22.3418328508  SOLV      6378            0.0000000000
     19253      6389  TIP3      H1             -2.5599249752       14.6424606768       23.1461828508  SOLV      6378            0.0000000000
     19254      6389  TIP3      H2             -3.8618849752       14.9289606768       22.4287628508  SOLV      6378            0.0000000000
     19255      6390  TIP3      OH2             1.5902050248       19.5017306768       22.5428528508  SOLV      6379            0.0000000000
     19256      6390  TIP3      H1              2.3339950248       20.0877806768       22.4030128508  SOLV      6379            0.0000000000
     19257      6390  TIP3      H2              0.8960150248       20.0703106768       22.8760928508  SOLV      6379            0.0000000000
     19258      6391  TIP3      OH2            -2.0473049752       13.6946806768       24.5686228508  SOLV      6380            0.0000000000
     19259      6391  TIP3      H1             -2.3245449752       12.9666106768       25.1247328508  SOLV      6380            0.0000000000
     19260      6391  TIP3      H2             -1.1200049752       13.8138806768       24.7738828508  SOLV      6380            0.0000000000
     19261      6392  TIP3      OH2            -8.8224549752       16.1340906768       20.7888328508  SOLV      6381            0.0000000000
     19262      6392  TIP3      H1             -8.5834749752       15.3859006768       20.2417228508  SOLV      6381            0.0000000000
     19263      6392  TIP3      H2             -9.0913249752       15.7462606768       21.6216128508  SOLV      6381            0.0000000000
     19264      6393  TIP3      OH2            -9.8853949752       15.7044706768       23.2450928508  SOLV      6382            0.0000000000
     19265      6393  TIP3      H1             -9.7385949752       15.1844506768       24.0351828508  SOLV      6382            0.0000000000
     19266      6393  TIP3      H2             -9.8882249752       16.6112306768       23.5516828508  SOLV      6382            0.0000000000
     19267      6394  TIP3      OH2           -13.4322849752       12.9568006768       23.7556328508  SOLV      6383            0.0000000000
     19268      6394  TIP3      H1            -14.1183549752       13.3090506768       24.3226028508  SOLV      6383            0.0000000000
     19269      6394  TIP3      H2            -12.9094949752       13.7197606768       23.5090628508  SOLV      6383            0.0000000000
     19270      6395  TIP3      OH2            -5.6007749752        5.6191806768       34.0345328508  SOLV      6384            0.0000000000
     19271      6395  TIP3      H1             -4.9019849752        5.6930506768       34.6845028508  SOLV      6384            0.0000000000
     19272      6395  TIP3      H2             -5.9816349752        4.7546806768       34.1888228508  SOLV      6384            0.0000000000
     19273      6396  TIP3      OH2            -4.8162849752        5.2713506768       25.1317628508  SOLV      6385            0.0000000000
     19274      6396  TIP3      H1             -4.5964549752        5.7428906768       24.3283028508  SOLV      6385            0.0000000000
     19275      6396  TIP3      H2             -4.2578849752        5.6656106768       25.8018228508  SOLV      6385            0.0000000000
     19276      6397  TIP3      OH2            -7.1476749752       17.4018306768       23.9945128508  SOLV      6386            0.0000000000
     19277      6397  TIP3      H1             -7.9640649752       17.8988006768       24.0469428508  SOLV      6386            0.0000000000
     19278      6397  TIP3      H2             -6.6180449752       17.8771806768       23.3543928508  SOLV      6386            0.0000000000
     19279      6398  TIP3      OH2            -7.6162949752        6.9992306768       25.9666028508  SOLV      6387            0.0000000000
     19280      6398  TIP3      H1             -6.8040349752        7.5035506768       26.0127728508  SOLV      6387            0.0000000000
     19281      6398  TIP3      H2             -7.8609949752        6.8542006768       26.8805628508  SOLV      6387            0.0000000000
     19282      6399  TIP3      OH2            -7.0806549752        7.9855006768       35.1512628508  SOLV      6388            0.0000000000
     19283      6399  TIP3      H1             -6.9616249752        8.5590406768       35.9083028508  SOLV      6388            0.0000000000
     19284      6399  TIP3      H2             -6.4251949752        7.2974406768       35.2660428508  SOLV      6388            0.0000000000
     19285      6400  TIP3      OH2            -6.7326249752        4.0805306768       26.9047128508  SOLV      6389            0.0000000000
     19286      6400  TIP3      H1             -7.0792749752        4.6975906768       27.5491428508  SOLV      6389            0.0000000000
     19287      6400  TIP3      H2             -6.0739349752        4.5811006768       26.4232628508  SOLV      6389            0.0000000000
     19288      6401  TIP3      OH2            -9.8093649752       18.4455506768       23.9762028508  SOLV      6390            0.0000000000
     19289      6401  TIP3      H1             -9.6484949752       19.2453006768       23.4754628508  SOLV      6390            0.0000000000
     19290      6401  TIP3      H2            -10.0065849752       18.7521506768       24.8612628508  SOLV      6390            0.0000000000
     19291      6402  TIP3      OH2           -11.0749249752        5.1434706768       23.5919628508  SOLV      6391            0.0000000000
     19292      6402  TIP3      H1            -11.1584449752        6.0317806768       23.9386028508  SOLV      6391            0.0000000000
     19293      6402  TIP3      H2            -10.1848949752        4.8781406768       23.8236428508  SOLV      6391            0.0000000000
     19294      6403  TIP3      OH2            -2.2739749752        9.6426306768       30.0819628508  SOLV      6392            0.0000000000
     19295      6403  TIP3      H1             -3.0715349752        9.2276506768       29.7534628508  SOLV      6392            0.0000000000
     19296      6403  TIP3      H2             -1.8288649752        8.9520006768       30.5730128508  SOLV      6392            0.0000000000
     19297      6404  TIP3      OH2           -12.8163949752       15.5706906768       22.6524128508  SOLV      6393            0.0000000000
     19298      6404  TIP3      H1            -12.2242449752       16.2701706768       22.9286528508  SOLV      6393            0.0000000000
     19299      6404  TIP3      H2            -12.3570949752       15.1376406768       21.9328728508  SOLV      6393            0.0000000000
     19300      6405  TIP3      OH2           -14.5004749752        8.2349906768       21.7683528508  SOLV      6394            0.0000000000
     19301      6405  TIP3      H1            -14.5452149752        9.1743006768       21.9470528508  SOLV      6394            0.0000000000
     19302      6405  TIP3      H2            -15.3881549752        7.9994806768       21.4985628508  SOLV      6394            0.0000000000
     19303      6406  TIP3      OH2            -1.1875149752       18.8988806768       31.7043128508  SOLV      6395            0.0000000000
     19304      6406  TIP3      H1             -1.3430849752       19.5773206768       31.0472428508  SOLV      6395            0.0000000000
     19305      6406  TIP3      H2             -0.2548749752       18.9708106768       31.9073728508  SOLV      6395            0.0000000000
     19306      6407  TIP3      OH2           -13.6922749752        3.0166506768       30.4414528508  SOLV      6396            0.0000000000
     19307      6407  TIP3      H1            -13.9212949752        3.0759006768       29.5139528508  SOLV      6396            0.0000000000
     19308      6407  TIP3      H2            -14.1349349752        2.2252006768       30.7478628508  SOLV      6396            0.0000000000
     19309      6408  TIP3      OH2           -14.7619449752       16.9573606768       26.6020328508  SOLV      6397            0.0000000000
     19310      6408  TIP3      H1            -15.5940849752       17.4296306768       26.6291728508  SOLV      6397            0.0000000000
     19311      6408  TIP3      H2            -14.2161149752       17.4671206768       26.0033428508  SOLV      6397            0.0000000000
     19312      6409  TIP3      OH2            -6.7842749752       17.9972306768       20.9274328508  SOLV      6398            0.0000000000
     19313      6409  TIP3      H1             -7.4281749752       17.3660906768       21.2488028508  SOLV      6398            0.0000000000
     19314      6409  TIP3      H2             -6.0224449752       17.4660306768       20.6957828508  SOLV      6398            0.0000000000
     19315      6410  TIP3      OH2            -2.1799849752       17.8142206768       21.1612328508  SOLV      6399            0.0000000000
     19316      6410  TIP3      H1             -1.8969449752       17.0197406768       21.6139228508  SOLV      6399            0.0000000000
     19317      6410  TIP3      H2             -1.4401949752       18.0473206768       20.6003428508  SOLV      6399            0.0000000000
     19318      6411  TIP3      OH2            -5.8729149752       14.7708806768       20.7545228508  SOLV      6400            0.0000000000
     19319      6411  TIP3      H1             -6.1415049752       14.9510906768       21.6554128508  SOLV      6400            0.0000000000
     19320      6411  TIP3      H2             -6.0793549752       13.8455006768       20.6231028508  SOLV      6400            0.0000000000
     19321      6412  TIP3      OH2            -9.0048349752        9.9395106768       21.5868428508  SOLV      6401            0.0000000000
     19322      6412  TIP3      H1             -9.1853349752        9.7846306768       20.6596728508  SOLV      6401            0.0000000000
     19323      6412  TIP3      H2             -8.0547849752       10.0473806768       21.6316328508  SOLV      6401            0.0000000000
     19324      6413  TIP3      OH2             0.3849950248       12.2939306768       21.0326528508  SOLV      6402            0.0000000000
     19325      6413  TIP3      H1              0.1114750248       11.8694806768       20.2194828508  SOLV      6402            0.0000000000
     19326      6413  TIP3      H2              0.4244050248       13.2253806768       20.8156928508  SOLV      6402            0.0000000000
     19327      6414  TIP3      OH2           -10.0350049752        5.3137006768       34.2555328508  SOLV      6403            0.0000000000
     19328      6414  TIP3      H1             -9.4992549752        5.7653706768       33.6034628508  SOLV      6403            0.0000000000
     19329      6414  TIP3      H2            -10.8870449752        5.2056806768       33.8329428508  SOLV      6403            0.0000000000
     19330      6415  TIP3      OH2            -8.4531649752       10.7533206768       34.4950528508  SOLV      6404            0.0000000000
     19331      6415  TIP3      H1             -7.7026849752       10.5970706768       33.9218328508  SOLV      6404            0.0000000000
     19332      6415  TIP3      H2             -8.7923349752       11.6049806768       34.2196028508  SOLV      6404            0.0000000000
     19333      6416  TIP3      OH2            -9.2294549752        2.7702706768       34.6868928508  SOLV      6405            0.0000000000
     19334      6416  TIP3      H1             -9.3274949752        3.7165906768       34.5815128508  SOLV      6405            0.0000000000
     19335      6416  TIP3      H2             -9.9718349752        2.3976506768       34.2112428508  SOLV      6405            0.0000000000
     19336      6417  TIP3      OH2            -9.1076649752       20.6298806768       22.5882028508  SOLV      6406            0.0000000000
     19337      6417  TIP3      H1             -8.1745949752       20.7877506768       22.7320428508  SOLV      6406            0.0000000000
     19338      6417  TIP3      H2             -9.3717849752       21.3051806768       21.9633528508  SOLV      6406            0.0000000000
     19339      6418  TIP3      OH2           -15.5391749752       15.2662606768       22.0710128508  SOLV      6407            0.0000000000
     19340      6418  TIP3      H1            -14.6252549752       15.3451506768       22.3444028508  SOLV      6407            0.0000000000
     19341      6418  TIP3      H2            -15.5318649752       14.5792206768       21.4045728508  SOLV      6407            0.0000000000
     19342      6419  TIP3      OH2             0.8432750248       13.1627406768       25.0076928508  SOLV      6408            0.0000000000
     19343      6419  TIP3      H1              1.6934150248       13.5838306768       25.1348528508  SOLV      6408            0.0000000000
     19344      6419  TIP3      H2              0.8487850248       12.4227506768       25.6148328508  SOLV      6408            0.0000000000
     19345      6420  TIP3      OH2             1.2378350248       11.2164806768       26.8312628508  SOLV      6409            0.0000000000
     19346      6420  TIP3      H1              0.5112950248       10.7367406768       27.2290228508  SOLV      6409            0.0000000000
     19347      6420  TIP3      H2              1.8191650248       11.4219506768       27.5634228508  SOLV      6409            0.0000000000
     19348      6421  TIP3      OH2             0.9969550248       14.0012306768       31.7790228508  SOLV      6410            0.0000000000
     19349      6421  TIP3      H1              1.8303750248       13.6232306768       31.4983828508  SOLV      6410            0.0000000000
     19350      6421  TIP3      H2              1.1089850248       14.9443506768       31.6599328508  SOLV      6410            0.0000000000
     19351      6422  TIP3      OH2             1.5061450248       11.1173306768       23.2223928508  SOLV      6411            0.0000000000
     19352      6422  TIP3      H1              0.9842550248       11.4737406768       22.5034828508  SOLV      6411            0.0000000000
     19353      6422  TIP3      H2              1.4730650248       11.7921106768       23.9004828508  SOLV      6411            0.0000000000
     19354      6423  TIP3      OH2            -0.1449549752        8.3568906768       21.7731028508  SOLV      6412            0.0000000000
     19355      6423  TIP3      H1             -0.0485149752        9.0235906768       21.0930728508  SOLV      6412            0.0000000000
     19356      6423  TIP3      H2             -0.2849949752        7.5415206768       21.2916528508  SOLV      6412            0.0000000000
     19357      6424  TIP3      OH2            -0.9754849752        9.7371306768       27.3941328508  SOLV      6413            0.0000000000
     19358      6424  TIP3      H1             -1.1256049752        8.7919906768       27.3739128508  SOLV      6413            0.0000000000
     19359      6424  TIP3      H2             -1.3290349752       10.0182706768       28.2380428508  SOLV      6413            0.0000000000
     19360      6425  TIP3      OH2           -15.9402449752       11.8153506768       31.4045128508  SOLV      6414            0.0000000000
     19361      6425  TIP3      H1            -15.7559549752       11.7335206768       30.4688028508  SOLV      6414            0.0000000000
     19362      6425  TIP3      H2            -15.0909549752       11.6910506768       31.8281528508  SOLV      6414            0.0000000000
     19363      6426  TIP3      OH2            -0.8975749752        5.7648706768       20.8906528508  SOLV      6415            0.0000000000
     19364      6426  TIP3      H1             -0.2869949752        5.3935506768       21.5274728508  SOLV      6415            0.0000000000
     19365      6426  TIP3      H2             -1.7344249752        5.3435606768       21.0866528508  SOLV      6415            0.0000000000
     19366      6427  TIP3      OH2            -1.2650049752        7.3197106768       25.8566428508  SOLV      6416            0.0000000000
     19367      6427  TIP3      H1             -0.9852949752        6.4127506768       25.9808128508  SOLV      6416            0.0000000000
     19368      6427  TIP3      H2             -0.5058349752        7.7538606768       25.4675628508  SOLV      6416            0.0000000000
     19369      6428  TIP3      OH2            -0.6531749752        7.9014506768       31.2925328508  SOLV      6417            0.0000000000
     19370      6428  TIP3      H1              0.2796250248        8.1134406768       31.2581328508  SOLV      6417            0.0000000000
     19371      6428  TIP3      H2             -0.8884249752        8.0026606768       32.2148328508  SOLV      6417            0.0000000000
     19372      6429  TIP3      OH2            -0.6239849752        8.6379806768       34.0684728508  SOLV      6418            0.0000000000
     19373      6429  TIP3      H1             -1.4668549752        8.9060206768       34.4344528508  SOLV      6418            0.0000000000
     19374      6429  TIP3      H2             -0.1815549752        9.4601706768       33.8575828508  SOLV      6418            0.0000000000
     19375      6430  TIP3      OH2            -0.6515249752        4.5826406768       25.9048428508  SOLV      6419            0.0000000000
     19376      6430  TIP3      H1             -0.4690249752        4.1337906768       26.7303428508  SOLV      6419            0.0000000000
     19377      6430  TIP3      H2             -1.2512349752        3.9980806768       25.4413028508  SOLV      6419            0.0000000000
     19378      6431  TIP3      OH2           -15.1215149752        5.3980106768       30.4366828508  SOLV      6420            0.0000000000
     19379      6431  TIP3      H1            -14.6763549752        4.6062606768       30.7386528508  SOLV      6420            0.0000000000
     19380      6431  TIP3      H2            -14.6552149752        6.1145306768       30.8672428508  SOLV      6420            0.0000000000
     19381      6432  TIP3      OH2           -16.8174849752        8.3973106768       31.5057028508  SOLV      6421            0.0000000000
     19382      6432  TIP3      H1            -16.3255049752        8.1763606768       30.7149028508  SOLV      6421            0.0000000000
     19383      6432  TIP3      H2            -16.4553949752        9.2376506768       31.7866528508  SOLV      6421            0.0000000000
     19384      6433  TIP3      OH2             1.2150950248        4.6504506768       22.4328728508  SOLV      6422            0.0000000000
     19385      6433  TIP3      H1              1.6273550248        3.9290206768       21.9576728508  SOLV      6422            0.0000000000
     19386      6433  TIP3      H2              1.8967450248        5.3199106768       22.4913028508  SOLV      6422            0.0000000000
     19387      6434  TIP3      OH2           -16.5038349752        4.6552206768       25.5599428508  SOLV      6423            0.0000000000
     19388      6434  TIP3      H1            -17.4289949752        4.8638806768       25.4304928508  SOLV      6423            0.0000000000
     19389      6434  TIP3      H2            -16.0498449752        5.1393006768       24.8701728508  SOLV      6423            0.0000000000
     19390      6435  TIP3      OH2            -1.7331149752       19.6393906768       27.5056828508  SOLV      6424            0.0000000000
     19391      6435  TIP3      H1             -1.0808249752       19.2916006768       26.8975928508  SOLV      6424            0.0000000000
     19392      6435  TIP3      H2             -1.2227349752       20.1277106768       28.1516528508  SOLV      6424            0.0000000000
     19393      6436  TIP3      OH2             0.1794850248        2.8170906768       35.5901828508  SOLV      6425            0.0000000000
     19394      6436  TIP3      H1             -0.6331649752        3.1421206768       35.2026528508  SOLV      6425            0.0000000000
     19395      6436  TIP3      H2              0.4123350248        2.0569406768       35.0570928508  SOLV      6425            0.0000000000
     19396      6437  TIP3      OH2            -4.4869549752       19.1652806768       33.5050528508  SOLV      6426            0.0000000000
     19397      6437  TIP3      H1             -5.3915849752       19.3303006768       33.2392628508  SOLV      6426            0.0000000000
     19398      6437  TIP3      H2             -4.0580949752       20.0185006768       33.4393928508  SOLV      6426            0.0000000000
     19399      6438  TIP3      OH2           -12.4362849752       18.1321606768       29.9198728508  SOLV      6427            0.0000000000
     19400      6438  TIP3      H1            -12.6552149752       17.2159006768       30.0894728508  SOLV      6427            0.0000000000
     19401      6438  TIP3      H2            -11.6120649752       18.2722006768       30.3860128508  SOLV      6427            0.0000000000
     19402      6439  TIP3      OH2            -9.8990349752       18.6020906768       30.7686728508  SOLV      6428            0.0000000000
     19403      6439  TIP3      H1             -9.6864649752       17.7139906768       30.4817628508  SOLV      6428            0.0000000000
     19404      6439  TIP3      H2             -9.8345249752       18.5678606768       31.7230728508  SOLV      6428            0.0000000000
     19405      6440  TIP3      OH2            -6.3906649752        4.2661506768       29.9130028508  SOLV      6429            0.0000000000
     19406      6440  TIP3      H1             -7.0649849752        3.6367106768       30.1685828508  SOLV      6429            0.0000000000
     19407      6440  TIP3      H2             -5.8267449752        3.7820406768       29.3097928508  SOLV      6429            0.0000000000
     19408      6441  TIP3      OH2            -1.2479449752        2.3735506768       30.0257128508  SOLV      6430            0.0000000000
     19409      6441  TIP3      H1             -0.6441849752        2.9210906768       29.5238128508  SOLV      6430            0.0000000000
     19410      6441  TIP3      H2             -2.1177449752        2.6925906768       29.7851228508  SOLV      6430            0.0000000000
     19411      6442  TIP3      OH2             0.4790950248        3.5124206768       28.3588028508  SOLV      6431            0.0000000000
     19412      6442  TIP3      H1              1.0908450248        2.9979906768       27.8321628508  SOLV      6431            0.0000000000
     19413      6442  TIP3      H2              0.8614350248        4.3896306768       28.3822428508  SOLV      6431            0.0000000000
     19414      6443  TIP3      OH2           -14.0639149752        2.9001806768       27.7349928508  SOLV      6432            0.0000000000
     19415      6443  TIP3      H1            -14.8409349752        2.6656706768       27.2275828508  SOLV      6432            0.0000000000
     19416      6443  TIP3      H2            -13.5335549752        2.1033906768       27.7437928508  SOLV      6432            0.0000000000
     19417      6444  TIP3      OH2           -15.2275749752        2.6979906768       23.5386028508  SOLV      6433            0.0000000000
     19418      6444  TIP3      H1            -14.7885049752        3.3090406768       22.9469528508  SOLV      6433            0.0000000000
     19419      6444  TIP3      H2            -15.8613349752        3.2364006768       24.0126028508  SOLV      6433            0.0000000000
     19420      6445  TIP3      OH2            -9.4846549752        2.8268906768       27.5483028508  SOLV      6434            0.0000000000
     19421      6445  TIP3      H1             -8.6103149752        3.2153206768       27.5187328508  SOLV      6434            0.0000000000
     19422      6445  TIP3      H2             -9.6205749752        2.6116706768       28.4710228508  SOLV      6434            0.0000000000
     19423      6446  TIP3      OH2            -3.9278149752        2.8568706768       29.1974728508  SOLV      6435            0.0000000000
     19424      6446  TIP3      H1             -3.8516549752        2.9520306768       28.2480728508  SOLV      6435            0.0000000000
     19425      6446  TIP3      H2             -4.2028949752        1.9491606768       29.3263828508  SOLV      6435            0.0000000000
     19426      6447  TIP3      OH2            -2.5745549752        2.8826506768       24.8899728508  SOLV      6436            0.0000000000
     19427      6447  TIP3      H1             -3.2774449752        3.4975706768       24.6801128508  SOLV      6436            0.0000000000
     19428      6447  TIP3      H2             -3.0194149752        2.0453206768       25.0210628508  SOLV      6436            0.0000000000
     19429      6448  TIP3      OH2           -15.3266249752       18.6462106768       24.4361128508  SOLV      6437            0.0000000000
     19430      6448  TIP3      H1            -16.0116349752       18.6081006768       23.7686228508  SOLV      6437            0.0000000000
     19431      6448  TIP3      H2            -15.3229049752       19.5589706768       24.7243228508  SOLV      6437            0.0000000000
     19432      6449  TIP3      OH2           -13.3666649752        4.6141406768       21.9810128508  SOLV      6438            0.0000000000
     19433      6449  TIP3      H1            -12.8753249752        3.9843806768       21.4535628508  SOLV      6438            0.0000000000
     19434      6449  TIP3      H2            -12.7430349752        4.9100806768       22.6441328508  SOLV      6438            0.0000000000
     19435      6450  TIP3      OH2            -8.3406549752        4.9072906768       24.4380628508  SOLV      6439            0.0000000000
     19436      6450  TIP3      H1             -8.1625249752        4.2606106768       25.1209228508  SOLV      6439            0.0000000000
     19437      6450  TIP3      H2             -8.3940349752        5.7410606768       24.9051728508  SOLV      6439            0.0000000000
     19438      6451  TIP3      OH2            -6.4622749752       19.8557006768       22.8337328508  SOLV      6440            0.0000000000
     19439      6451  TIP3      H1             -5.5962549752       20.2224406768       22.6555528508  SOLV      6440            0.0000000000
     19440      6451  TIP3      H2             -6.7089949752       19.4165006768       22.0198128508  SOLV      6440            0.0000000000
     19441      6452  TIP3      OH2             0.2466850248       19.4187306768       25.5128428508  SOLV      6441            0.0000000000
     19442      6452  TIP3      H1              0.0523950248       18.6709406768       24.9478028508  SOLV      6441            0.0000000000
     19443      6452  TIP3      H2              0.2076950248       20.1767406768       24.9296328508  SOLV      6441            0.0000000000
     19444      6453  TIP3      OH2           -13.5085049752       19.5662906768       21.4613228508  SOLV      6442            0.0000000000
     19445      6453  TIP3      H1            -13.7760449752       19.8525806768       22.3346328508  SOLV      6442            0.0000000000
     19446      6453  TIP3      H2            -12.7372449752       19.0202106768       21.6135728508  SOLV      6442            0.0000000000
     19447      6454  TIP3      OH2             2.7053350248        9.0358406768       26.6333428508  SOLV      6443            0.0000000000
     19448      6454  TIP3      H1              2.2576750248        9.8817106768       26.6149928508  SOLV      6443            0.0000000000
     19449      6454  TIP3      H2              2.1444550248        8.4562606768       26.1178528508  SOLV      6443            0.0000000000
     19450      6455  TIP3      OH2             3.4159450248       11.1978006768       28.7591428508  SOLV      6444            0.0000000000
     19451      6455  TIP3      H1              3.6292950248       10.4279606768       29.2864428508  SOLV      6444            0.0000000000
     19452      6455  TIP3      H2              4.1537050248       11.2874706768       28.1559028508  SOLV      6444            0.0000000000
     19453      6456  TIP3      OH2             7.4884450248        6.2395006768       29.1186228508  SOLV      6445            0.0000000000
     19454      6456  TIP3      H1              7.5315550248        7.0993506768       28.7002528508  SOLV      6445            0.0000000000
     19455      6456  TIP3      H2              7.0308550248        5.6869706768       28.4849428508  SOLV      6445            0.0000000000
     19456      6457  TIP3      OH2            15.2107150248        6.3700606768       27.5194528508  SOLV      6446            0.0000000000
     19457      6457  TIP3      H1             15.8571450248        6.0413806768       28.1442128508  SOLV      6446            0.0000000000
     19458      6457  TIP3      H2             15.7206550248        6.8879606768       26.8965928508  SOLV      6446            0.0000000000
     19459      6458  TIP3      OH2             4.1085950248        8.6360806768       29.8807628508  SOLV      6447            0.0000000000
     19460      6458  TIP3      H1              4.7622550248        8.0862506768       30.3127728508  SOLV      6447            0.0000000000
     19461      6458  TIP3      H2              4.1325250248        8.3619806768       28.9639628508  SOLV      6447            0.0000000000
     19462      6459  TIP3      OH2             9.2650450248       10.1862106768       29.0959128508  SOLV      6448            0.0000000000
     19463      6459  TIP3      H1              9.8811450248        9.6597506768       29.6053128508  SOLV      6448            0.0000000000
     19464      6459  TIP3      H2              8.6789250248        9.5460806768       28.6922728508  SOLV      6448            0.0000000000
     19465      6460  TIP3      OH2             6.2986350248        5.1573406768       33.1927028508  SOLV      6449            0.0000000000
     19466      6460  TIP3      H1              6.0798050248        5.6874006768       32.4263028508  SOLV      6449            0.0000000000
     19467      6460  TIP3      H2              5.6307250248        5.3838906768       33.8398428508  SOLV      6449            0.0000000000
     19468      6461  TIP3      OH2             5.8923650248        7.0495206768       31.1449228508  SOLV      6450            0.0000000000
     19469      6461  TIP3      H1              6.5059950248        7.6822806768       31.5181628508  SOLV      6450            0.0000000000
     19470      6461  TIP3      H2              6.4044350248        6.5770206768       30.4886128508  SOLV      6450            0.0000000000
     19471      6462  TIP3      OH2             3.3962950248       14.4680006768       25.0491528508  SOLV      6451            0.0000000000
     19472      6462  TIP3      H1              3.1243850248       14.6971006768       24.1604428508  SOLV      6451            0.0000000000
     19473      6462  TIP3      H2              3.4418650248       15.3058806768       25.5096828508  SOLV      6451            0.0000000000
     19474      6463  TIP3      OH2            10.3251050248        2.4628506768       30.6451928508  SOLV      6452            0.0000000000
     19475      6463  TIP3      H1             10.2075250248        1.5144506768       30.5910228508  SOLV      6452            0.0000000000
     19476      6463  TIP3      H2              9.4701150248        2.7954606768       30.9183028508  SOLV      6452            0.0000000000
     19477      6464  TIP3      OH2            12.5915950248       11.3004106768       25.1457728508  SOLV      6453            0.0000000000
     19478      6464  TIP3      H1             11.8801450248       11.8353806768       24.7938228508  SOLV      6453            0.0000000000
     19479      6464  TIP3      H2             13.2825550248       11.3556206768       24.4856628508  SOLV      6453            0.0000000000
     19480      6465  TIP3      OH2            12.6455150248        9.7578406768       22.1842728508  SOLV      6454            0.0000000000
     19481      6465  TIP3      H1             13.3465050248        9.7805306768       22.8356728508  SOLV      6454            0.0000000000
     19482      6465  TIP3      H2             12.9478050248        9.1298106768       21.5282028508  SOLV      6454            0.0000000000
     19483      6466  TIP3      OH2             7.6427350248       12.1403606768       27.9798628508  SOLV      6455            0.0000000000
     19484      6466  TIP3      H1              7.3122550248       11.7697006768       27.1615628508  SOLV      6455            0.0000000000
     19485      6466  TIP3      H2              8.2311450248       11.4697606768       28.3266928508  SOLV      6455            0.0000000000
     19486      6467  TIP3      OH2            14.8683150248       10.6720306768       23.7824828508  SOLV      6456            0.0000000000
     19487      6467  TIP3      H1             15.4478650248       10.8220606768       24.5293728508  SOLV      6456            0.0000000000
     19488      6467  TIP3      H2             15.2823150248       11.1427706768       23.0591228508  SOLV      6456            0.0000000000
     19489      6468  TIP3      OH2            18.5671550248        2.4220706768       23.5954528508  SOLV      6457            0.0000000000
     19490      6468  TIP3      H1             17.6672250248        2.5609706768       23.8905128508  SOLV      6457            0.0000000000
     19491      6468  TIP3      H2             18.8189950248        3.2535306768       23.1936228508  SOLV      6457            0.0000000000
     19492      6469  TIP3      OH2             6.6330050248       11.2097906768       25.5691428508  SOLV      6458            0.0000000000
     19493      6469  TIP3      H1              6.3411350248       11.9779606768       25.0782728508  SOLV      6458            0.0000000000
     19494      6469  TIP3      H2              5.9585250248       10.5504106768       25.4062828508  SOLV      6458            0.0000000000
     19495      6470  TIP3      OH2             5.7204950248       19.1540506768       27.4136128508  SOLV      6459            0.0000000000
     19496      6470  TIP3      H1              5.8725350248       18.8060906768       28.2922628508  SOLV      6459            0.0000000000
     19497      6470  TIP3      H2              4.8695350248       18.7977806768       27.1583328508  SOLV      6459            0.0000000000
     19498      6471  TIP3      OH2            15.1687150248       19.5193706768       22.6349528508  SOLV      6460            0.0000000000
     19499      6471  TIP3      H1             15.5435550248       18.7749806768       22.1642128508  SOLV      6460            0.0000000000
     19500      6471  TIP3      H2             15.1730850248       19.2494306768       23.5532828508  SOLV      6460            0.0000000000
     19501      6472  TIP3      OH2             7.5938650248        3.3663006768       31.4228228508  SOLV      6461            0.0000000000
     19502      6472  TIP3      H1              6.7322350248        3.2791206768       31.0151128508  SOLV      6461            0.0000000000
     19503      6472  TIP3      H2              7.5714350248        4.2223106768       31.8505828508  SOLV      6461            0.0000000000
     19504      6473  TIP3      OH2            16.3456250248       11.7048606768       21.4122728508  SOLV      6462            0.0000000000
     19505      6473  TIP3      H1             16.3877050248       11.4822506768       20.4822728508  SOLV      6462            0.0000000000
     19506      6473  TIP3      H2             17.1948350248       12.1035706768       21.6022628508  SOLV      6462            0.0000000000
     19507      6474  TIP3      OH2            11.9183750248        5.5806806768       22.0826028508  SOLV      6463            0.0000000000
     19508      6474  TIP3      H1             11.6648550248        5.5998406768       23.0054128508  SOLV      6463            0.0000000000
     19509      6474  TIP3      H2             11.6615850248        4.7092206768       21.7812228508  SOLV      6463            0.0000000000
     19510      6475  TIP3      OH2             7.6817850248        8.5527606768       27.4298428508  SOLV      6464            0.0000000000
     19511      6475  TIP3      H1              6.7890750248        8.2123706768       27.3712228508  SOLV      6464            0.0000000000
     19512      6475  TIP3      H2              8.1324450248        8.1758506768       26.6741628508  SOLV      6464            0.0000000000
     19513      6476  TIP3      OH2            13.2173350248        8.9687906768       26.2469228508  SOLV      6465            0.0000000000
     19514      6476  TIP3      H1             12.8083650248        9.7836506768       25.9554028508  SOLV      6465            0.0000000000
     19515      6476  TIP3      H2             13.9379550248        8.8288006768       25.6326328508  SOLV      6465            0.0000000000
     19516      6477  TIP3      OH2             8.8006650248        6.0263306768       21.1836428508  SOLV      6466            0.0000000000
     19517      6477  TIP3      H1              8.3697350248        5.5813406768       21.9133828508  SOLV      6466            0.0000000000
     19518      6477  TIP3      H2              8.0825350248        6.3979606768       20.6713928508  SOLV      6466            0.0000000000
     19519      6478  TIP3      OH2             2.0430050248        5.7682806768       28.2355128508  SOLV      6467            0.0000000000
     19520      6478  TIP3      H1              2.6737750248        5.7394906768       28.9549028508  SOLV      6467            0.0000000000
     19521      6478  TIP3      H2              2.4924350248        5.3431506768       27.5051028508  SOLV      6467            0.0000000000
     19522      6479  TIP3      OH2             3.3172150248        6.5144806768       23.6595528508  SOLV      6468            0.0000000000
     19523      6479  TIP3      H1              3.7913850248        7.1054706768       23.0746428508  SOLV      6468            0.0000000000
     19524      6479  TIP3      H2              2.5998550248        7.0447706768       24.0065628508  SOLV      6468            0.0000000000
     19525      6480  TIP3      OH2            10.2633150248        5.9805106768       28.5162528508  SOLV      6469            0.0000000000
     19526      6480  TIP3      H1              9.3524250248        6.0371906768       28.8048528508  SOLV      6469            0.0000000000
     19527      6480  TIP3      H2             10.7686050248        5.9200606768       29.3269728508  SOLV      6469            0.0000000000
     19528      6481  TIP3      OH2             5.0916550248        7.6091406768       27.3430128508  SOLV      6470            0.0000000000
     19529      6481  TIP3      H1              4.2024550248        7.7086906768       27.0029728508  SOLV      6470            0.0000000000
     19530      6481  TIP3      H2              5.3881450248        6.7674406768       26.9968028508  SOLV      6470            0.0000000000
     19531      6482  TIP3      OH2             8.7448350248        7.6094006768       24.9994728508  SOLV      6471            0.0000000000
     19532      6482  TIP3      H1              9.6763850248        7.7384006768       25.1777828508  SOLV      6471            0.0000000000
     19533      6482  TIP3      H2              8.5298650248        8.2788306768       24.3499428508  SOLV      6471            0.0000000000
     19534      6483  TIP3      OH2             7.4188550248        8.8036206768       22.5660828508  SOLV      6472            0.0000000000
     19535      6483  TIP3      H1              6.8763650248        8.4240006768       21.8748428508  SOLV      6472            0.0000000000
     19536      6483  TIP3      H2              8.2523450248        8.9980906768       22.1374928508  SOLV      6472            0.0000000000
     19537      6484  TIP3      OH2             6.5852550248        4.9044206768       26.8216928508  SOLV      6473            0.0000000000
     19538      6484  TIP3      H1              6.2682050248        4.0019506768       26.7862328508  SOLV      6473            0.0000000000
     19539      6484  TIP3      H2              7.3666650248        4.9061606768       26.2688528508  SOLV      6473            0.0000000000
     19540      6485  TIP3      OH2            10.7541350248       13.3691906768       24.5018928508  SOLV      6474            0.0000000000
     19541      6485  TIP3      H1             10.0092350248       12.8617206768       24.1796828508  SOLV      6474            0.0000000000
     19542      6485  TIP3      H2             10.6198550248       13.4179906768       25.4483728508  SOLV      6474            0.0000000000
     19543      6486  TIP3      OH2            14.6518150248        6.1831806768       22.7011528508  SOLV      6475            0.0000000000
     19544      6486  TIP3      H1             13.7132350248        6.2947406768       22.5500328508  SOLV      6475            0.0000000000
     19545      6486  TIP3      H2             14.9490250248        7.0398706768       23.0077228508  SOLV      6475            0.0000000000
     19546      6487  TIP3      OH2            15.3701650248        8.0504506768       24.3618928508  SOLV      6476            0.0000000000
     19547      6487  TIP3      H1             16.2620650248        7.9129506768       24.6810128508  SOLV      6476            0.0000000000
     19548      6487  TIP3      H2             15.4265250248        8.8410606768       23.8252428508  SOLV      6476            0.0000000000
     19549      6488  TIP3      OH2             5.8789650248       12.6641906768       30.2716828508  SOLV      6477            0.0000000000
     19550      6488  TIP3      H1              6.6236850248       12.6617606768       29.6703328508  SOLV      6477            0.0000000000
     19551      6488  TIP3      H2              5.9566250248       11.8405706768       30.7531928508  SOLV      6477            0.0000000000
     19552      6489  TIP3      OH2            12.8795450248       14.8276206768       23.5273528508  SOLV      6478            0.0000000000
     19553      6489  TIP3      H1             12.5843850248       15.6544106768       23.9088328508  SOLV      6478            0.0000000000
     19554      6489  TIP3      H2             12.1765450248       14.2083106768       23.7234928508  SOLV      6478            0.0000000000
     19555      6490  TIP3      OH2            20.2550350248        8.2598606768       24.0565628508  SOLV      6479            0.0000000000
     19556      6490  TIP3      H1             19.7006650248        7.8636606768       23.3843128508  SOLV      6479            0.0000000000
     19557      6490  TIP3      H2             20.3553950248        9.1703806768       23.7788928508  SOLV      6479            0.0000000000
     19558      6491  TIP3      OH2             4.0086750248       11.0444206768       22.2630728508  SOLV      6480            0.0000000000
     19559      6491  TIP3      H1              4.6246650248       11.6711406768       22.6425528508  SOLV      6480            0.0000000000
     19560      6491  TIP3      H2              3.1469350248       11.3604006768       22.5347228508  SOLV      6480            0.0000000000
     19561      6492  TIP3      OH2             9.6811350248       13.8450006768       27.2522628508  SOLV      6481            0.0000000000
     19562      6492  TIP3      H1              9.4401350248       14.7704406768       27.2937928508  SOLV      6481            0.0000000000
     19563      6492  TIP3      H2              8.9404950248       13.3861306768       27.6486528508  SOLV      6481            0.0000000000
     19564      6493  TIP3      OH2            15.9427650248       15.0224806768       22.3418328508  SOLV      6482            0.0000000000
     19565      6493  TIP3      H1             16.2960750248       14.6424606768       23.1461828508  SOLV      6482            0.0000000000
     19566      6493  TIP3      H2             14.9941150248       14.9289606768       22.4287628508  SOLV      6482            0.0000000000
     19567      6494  TIP3      OH2            10.0335450248       16.1340906768       20.7888328508  SOLV      6483            0.0000000000
     19568      6494  TIP3      H1             10.2725250248       15.3859006768       20.2417228508  SOLV      6483            0.0000000000
     19569      6494  TIP3      H2              9.7646750248       15.7462606768       21.6216128508  SOLV      6483            0.0000000000
     19570      6495  TIP3      OH2             8.9706050248       15.7044706768       23.2450928508  SOLV      6484            0.0000000000
     19571      6495  TIP3      H1              9.1174050248       15.1844506768       24.0351828508  SOLV      6484            0.0000000000
     19572      6495  TIP3      H2              8.9677750248       16.6112306768       23.5516828508  SOLV      6484            0.0000000000
     19573      6496  TIP3      OH2             5.4237150248       12.9568006768       23.7556328508  SOLV      6485            0.0000000000
     19574      6496  TIP3      H1              4.7376450248       13.3090506768       24.3226028508  SOLV      6485            0.0000000000
     19575      6496  TIP3      H2              5.9465050248       13.7197606768       23.5090628508  SOLV      6485            0.0000000000
     19576      6497  TIP3      OH2            14.0397150248        5.2713506768       25.1317628508  SOLV      6486            0.0000000000
     19577      6497  TIP3      H1             14.2595450248        5.7428906768       24.3283028508  SOLV      6486            0.0000000000
     19578      6497  TIP3      H2             14.5981150248        5.6656106768       25.8018228508  SOLV      6486            0.0000000000
     19579      6498  TIP3      OH2            11.7083250248       17.4018306768       23.9945128508  SOLV      6487            0.0000000000
     19580      6498  TIP3      H1             10.8919350248       17.8988006768       24.0469428508  SOLV      6487            0.0000000000
     19581      6498  TIP3      H2             12.2379550248       17.8771806768       23.3543928508  SOLV      6487            0.0000000000
     19582      6499  TIP3      OH2            11.2397050248        6.9992306768       25.9666028508  SOLV      6488            0.0000000000
     19583      6499  TIP3      H1             12.0519650248        7.5035506768       26.0127728508  SOLV      6488            0.0000000000
     19584      6499  TIP3      H2             10.9950050248        6.8542006768       26.8805628508  SOLV      6488            0.0000000000
     19585      6500  TIP3      OH2            12.1233750248        4.0805306768       26.9047128508  SOLV      6489            0.0000000000
     19586      6500  TIP3      H1             11.7767250248        4.6975906768       27.5491428508  SOLV      6489            0.0000000000
     19587      6500  TIP3      H2             12.7820650248        4.5811006768       26.4232628508  SOLV      6489            0.0000000000
     19588      6501  TIP3      OH2             9.0466350248       18.4455506768       23.9762028508  SOLV      6490            0.0000000000
     19589      6501  TIP3      H1              9.2075050248       19.2453006768       23.4754628508  SOLV      6490            0.0000000000
     19590      6501  TIP3      H2              8.8494150248       18.7521506768       24.8612628508  SOLV      6490            0.0000000000
     19591      6502  TIP3      OH2             7.7810750248        5.1434706768       23.5919628508  SOLV      6491            0.0000000000
     19592      6502  TIP3      H1              7.6975550248        6.0317806768       23.9386028508  SOLV      6491            0.0000000000
     19593      6502  TIP3      H2              8.6711050248        4.8781406768       23.8236428508  SOLV      6491            0.0000000000
     19594      6503  TIP3      OH2             6.0396050248       15.5706906768       22.6524128508  SOLV      6492            0.0000000000
     19595      6503  TIP3      H1              6.6317550248       16.2701706768       22.9286528508  SOLV      6492            0.0000000000
     19596      6503  TIP3      H2              6.4989050248       15.1376406768       21.9328728508  SOLV      6492            0.0000000000
     19597      6504  TIP3      OH2             4.3555250248        8.2349906768       21.7683528508  SOLV      6493            0.0000000000
     19598      6504  TIP3      H1              4.3107850248        9.1743006768       21.9470528508  SOLV      6493            0.0000000000
     19599      6504  TIP3      H2              3.4678450248        7.9994806768       21.4985628508  SOLV      6493            0.0000000000
     19600      6505  TIP3      OH2             5.1637250248        3.0166506768       30.4414528508  SOLV      6494            0.0000000000
     19601      6505  TIP3      H1              4.9347050248        3.0759006768       29.5139528508  SOLV      6494            0.0000000000
     19602      6505  TIP3      H2              4.7210650248        2.2252006768       30.7478628508  SOLV      6494            0.0000000000
     19603      6506  TIP3      OH2             4.0940550248       16.9573606768       26.6020328508  SOLV      6495            0.0000000000
     19604      6506  TIP3      H1              3.2619150248       17.4296306768       26.6291728508  SOLV      6495            0.0000000000
     19605      6506  TIP3      H2              4.6398850248       17.4671206768       26.0033428508  SOLV      6495            0.0000000000
     19606      6507  TIP3      OH2            12.0717250248       17.9972306768       20.9274328508  SOLV      6496            0.0000000000
     19607      6507  TIP3      H1             11.4278250248       17.3660906768       21.2488028508  SOLV      6496            0.0000000000
     19608      6507  TIP3      H2             12.8335550248       17.4660306768       20.6957828508  SOLV      6496            0.0000000000
     19609      6508  TIP3      OH2            16.6760150248       17.8142206768       21.1612328508  SOLV      6497            0.0000000000
     19610      6508  TIP3      H1             16.9590550248       17.0197406768       21.6139228508  SOLV      6497            0.0000000000
     19611      6508  TIP3      H2             17.4158050248       18.0473206768       20.6003428508  SOLV      6497            0.0000000000
     19612      6509  TIP3      OH2             7.6307450248       13.7237106768       21.0187228508  SOLV      6498            0.0000000000
     19613      6509  TIP3      H1              7.6951550248       12.9296706768       21.5493628508  SOLV      6498            0.0000000000
     19614      6509  TIP3      H2              8.2836650248       13.6049906768       20.3289228508  SOLV      6498            0.0000000000
     19615      6510  TIP3      OH2            12.9830850248       14.7708806768       20.7545228508  SOLV      6499            0.0000000000
     19616      6510  TIP3      H1             12.7144950248       14.9510906768       21.6554128508  SOLV      6499            0.0000000000
     19617      6510  TIP3      H2             12.7766450248       13.8455006768       20.6231028508  SOLV      6499            0.0000000000
     19618      6511  TIP3      OH2             8.7801250248       11.6963306768       23.3245228508  SOLV      6500            0.0000000000
     19619      6511  TIP3      H1              8.3203250248       11.2121606768       24.0103728508  SOLV      6500            0.0000000000
     19620      6511  TIP3      H2              9.0349950248       11.0278706768       22.6885728508  SOLV      6500            0.0000000000
     19621      6512  TIP3      OH2             9.8511650248        9.9395106768       21.5868428508  SOLV      6501            0.0000000000
     19622      6512  TIP3      H1              9.6706650248        9.7846306768       20.6596728508  SOLV      6501            0.0000000000
     19623      6512  TIP3      H2             10.8012150248       10.0473806768       21.6316328508  SOLV      6501            0.0000000000
     19624      6513  TIP3      OH2            19.2409950248       12.2939306768       21.0326528508  SOLV      6502            0.0000000000
     19625      6513  TIP3      H1             18.9674750248       11.8694806768       20.2194828508  SOLV      6502            0.0000000000
     19626      6513  TIP3      H2             19.2804050248       13.2253806768       20.8156928508  SOLV      6502            0.0000000000
     19627      6514  TIP3      OH2             9.7483350248       20.6298806768       22.5882028508  SOLV      6503            0.0000000000
     19628      6514  TIP3      H1             10.6814050248       20.7877506768       22.7320428508  SOLV      6503            0.0000000000
     19629      6514  TIP3      H2              9.4842150248       21.3051806768       21.9633528508  SOLV      6503            0.0000000000
     19630      6515  TIP3      OH2             3.3168250248       15.2662606768       22.0710128508  SOLV      6504            0.0000000000
     19631      6515  TIP3      H1              4.2307450248       15.3451506768       22.3444028508  SOLV      6504            0.0000000000
     19632      6515  TIP3      H2              3.3241350248       14.5792206768       21.4045728508  SOLV      6504            0.0000000000
     19633      6516  TIP3      OH2             1.9658850248       20.6591106768       27.1484028508  SOLV      6505            0.0000000000
     19634      6516  TIP3      H1              1.3185950248       20.1972806768       26.6155228508  SOLV      6505            0.0000000000
     19635      6516  TIP3      H2              2.3203450248       19.9874406768       27.7310228508  SOLV      6505            0.0000000000
     19636      6517  TIP3      OH2             2.8358050248       18.7398106768       28.9530228508  SOLV      6506            0.0000000000
     19637      6517  TIP3      H1              2.5014850248       17.8595406768       29.1250428508  SOLV      6506            0.0000000000
     19638      6517  TIP3      H2              3.0580450248       19.0853106768       29.8175828508  SOLV      6506            0.0000000000
     19639      6518  TIP3      OH2            20.3621450248       11.1173306768       23.2223928508  SOLV      6507            0.0000000000
     19640      6518  TIP3      H1             19.8402550248       11.4737406768       22.5034828508  SOLV      6507            0.0000000000
     19641      6518  TIP3      H2             20.3290650248       11.7921106768       23.9004828508  SOLV      6507            0.0000000000
     19642      6519  TIP3      OH2            18.7110450248        8.3568906768       21.7731028508  SOLV      6508            0.0000000000
     19643      6519  TIP3      H1             18.8074850248        9.0235906768       21.0930728508  SOLV      6508            0.0000000000
     19644      6519  TIP3      H2             18.5710050248        7.5415206768       21.2916528508  SOLV      6508            0.0000000000
     19645      6520  TIP3      OH2             2.9157550248       11.8153506768       31.4045128508  SOLV      6509            0.0000000000
     19646      6520  TIP3      H1              3.1000450248       11.7335206768       30.4688028508  SOLV      6509            0.0000000000
     19647      6520  TIP3      H2              3.7650450248       11.6910506768       31.8281528508  SOLV      6509            0.0000000000
     19648      6521  TIP3      OH2            17.9584250248        5.7648706768       20.8906528508  SOLV      6510            0.0000000000
     19649      6521  TIP3      H1             18.5690050248        5.3935506768       21.5274728508  SOLV      6510            0.0000000000
     19650      6521  TIP3      H2             17.1215750248        5.3435606768       21.0866528508  SOLV      6510            0.0000000000
     19651      6522  TIP3      OH2            17.5909950248        7.3197106768       25.8566428508  SOLV      6511            0.0000000000
     19652      6522  TIP3      H1             17.8707050248        6.4127506768       25.9808128508  SOLV      6511            0.0000000000
     19653      6522  TIP3      H2             18.3501650248        7.7538606768       25.4675628508  SOLV      6511            0.0000000000
     19654      6523  TIP3      OH2            18.2044750248        4.5826406768       25.9048428508  SOLV      6512            0.0000000000
     19655      6523  TIP3      H1             18.3869750248        4.1337906768       26.7303428508  SOLV      6512            0.0000000000
     19656      6523  TIP3      H2             17.6047650248        3.9980806768       25.4413028508  SOLV      6512            0.0000000000
     19657      6524  TIP3      OH2             3.7344850248        5.3980106768       30.4366828508  SOLV      6513            0.0000000000
     19658      6524  TIP3      H1              4.1796450248        4.6062606768       30.7386528508  SOLV      6513            0.0000000000
     19659      6524  TIP3      H2              4.2007850248        6.1145306768       30.8672428508  SOLV      6513            0.0000000000
     19660      6525  TIP3      OH2             2.0385150248        8.3973106768       31.5057028508  SOLV      6514            0.0000000000
     19661      6525  TIP3      H1              2.5304950248        8.1763606768       30.7149028508  SOLV      6514            0.0000000000
     19662      6525  TIP3      H2              2.4006050248        9.2376506768       31.7866528508  SOLV      6514            0.0000000000
     19663      6526  TIP3      OH2            20.0710950248        4.6504506768       22.4328728508  SOLV      6515            0.0000000000
     19664      6526  TIP3      H1             20.4833550248        3.9290206768       21.9576728508  SOLV      6515            0.0000000000
     19665      6526  TIP3      H2             20.7527450248        5.3199106768       22.4913028508  SOLV      6515            0.0000000000
     19666      6527  TIP3      OH2             2.3521650248        4.6552206768       25.5599428508  SOLV      6516            0.0000000000
     19667      6527  TIP3      H1              1.4270050248        4.8638806768       25.4304928508  SOLV      6516            0.0000000000
     19668      6527  TIP3      H2              2.8061550248        5.1393006768       24.8701728508  SOLV      6516            0.0000000000
     19669      6528  TIP3      OH2             2.3157050248        3.3931206768       33.9041928508  SOLV      6517            0.0000000000
     19670      6528  TIP3      H1              1.6507550248        3.1471506768       34.5472828508  SOLV      6517            0.0000000000
     19671      6528  TIP3      H2              1.8728350248        4.0151606768       33.3269928508  SOLV      6517            0.0000000000
     19672      6529  TIP3      OH2            12.4653350248        4.2661506768       29.9130028508  SOLV      6518            0.0000000000
     19673      6529  TIP3      H1             11.7910150248        3.6367106768       30.1685828508  SOLV      6518            0.0000000000
     19674      6529  TIP3      H2             13.0292550248        3.7820406768       29.3097928508  SOLV      6518            0.0000000000
     19675      6530  TIP3      OH2             4.7920850248        2.9001806768       27.7349928508  SOLV      6519            0.0000000000
     19676      6530  TIP3      H1              4.0150650248        2.6656706768       27.2275828508  SOLV      6519            0.0000000000
     19677      6530  TIP3      H2              5.3224450248        2.1033906768       27.7437928508  SOLV      6519            0.0000000000
     19678      6531  TIP3      OH2             3.6284250248        2.6979906768       23.5386028508  SOLV      6520            0.0000000000
     19679      6531  TIP3      H1              4.0674950248        3.3090406768       22.9469528508  SOLV      6520            0.0000000000
     19680      6531  TIP3      H2              2.9946650248        3.2364006768       24.0126028508  SOLV      6520            0.0000000000
     19681      6532  TIP3      OH2             9.3713450248        2.8268906768       27.5483028508  SOLV      6521            0.0000000000
     19682      6532  TIP3      H1             10.2456850248        3.2153206768       27.5187328508  SOLV      6521            0.0000000000
     19683      6532  TIP3      H2              9.2354250248        2.6116706768       28.4710228508  SOLV      6521            0.0000000000
     19684      6533  TIP3      OH2            14.9281850248        2.8568706768       29.1974728508  SOLV      6522            0.0000000000
     19685      6533  TIP3      H1             15.0043450248        2.9520306768       28.2480728508  SOLV      6522            0.0000000000
     19686      6533  TIP3      H2             14.6531050248        1.9491606768       29.3263828508  SOLV      6522            0.0000000000
     19687      6534  TIP3      OH2            16.2814450248        2.8826506768       24.8899728508  SOLV      6523            0.0000000000
     19688      6534  TIP3      H1             15.5785550248        3.4975706768       24.6801128508  SOLV      6523            0.0000000000
     19689      6534  TIP3      H2             15.8365850248        2.0453206768       25.0210628508  SOLV      6523            0.0000000000
     19690      6535  TIP3      OH2             3.5293750248       18.6462106768       24.4361128508  SOLV      6524            0.0000000000
     19691      6535  TIP3      H1              2.8443650248       18.6081006768       23.7686228508  SOLV      6524            0.0000000000
     19692      6535  TIP3      H2              3.5330950248       19.5589706768       24.7243228508  SOLV      6524            0.0000000000
     19693      6536  TIP3      OH2             5.4893350248        4.6141406768       21.9810128508  SOLV      6525            0.0000000000
     19694      6536  TIP3      H1              5.9806750248        3.9843806768       21.4535628508  SOLV      6525            0.0000000000
     19695      6536  TIP3      H2              6.1129650248        4.9100806768       22.6441328508  SOLV      6525            0.0000000000
     19696      6537  TIP3      OH2            10.5153450248        4.9072906768       24.4380628508  SOLV      6526            0.0000000000
     19697      6537  TIP3      H1             10.6934750248        4.2606106768       25.1209228508  SOLV      6526            0.0000000000
     19698      6537  TIP3      H2             10.4619650248        5.7410606768       24.9051728508  SOLV      6526            0.0000000000
     19699      6538  TIP3      OH2            12.3937250248       19.8557006768       22.8337328508  SOLV      6527            0.0000000000
     19700      6538  TIP3      H1             13.2597450248       20.2224406768       22.6555528508  SOLV      6527            0.0000000000
     19701      6538  TIP3      H2             12.1470050248       19.4165006768       22.0198128508  SOLV      6527            0.0000000000
     19702      6539  TIP3      OH2             5.3474950248       19.5662906768       21.4613228508  SOLV      6528            0.0000000000
     19703      6539  TIP3      H1              5.0799550248       19.8525806768       22.3346328508  SOLV      6528            0.0000000000
     19704      6539  TIP3      H2              6.1187550248       19.0202106768       21.6135728508  SOLV      6528            0.0000000000
     19705      6540  TIP3      OH2            27.6566650248        6.0263306768       21.1836428508  SOLV      6529            0.0000000000
     19706      6540  TIP3      H1             27.2257350248        5.5813406768       21.9133828508  SOLV      6529            0.0000000000
     19707      6540  TIP3      H2             26.9385350248        6.3979606768       20.6713928508  SOLV      6529            0.0000000000
     19708      6541  TIP3      OH2            22.1732150248        6.5144806768       23.6595528508  SOLV      6530            0.0000000000
     19709      6541  TIP3      H1             22.6473850248        7.1054706768       23.0746428508  SOLV      6530            0.0000000000
     19710      6541  TIP3      H2             21.4558550248        7.0447706768       24.0065628508  SOLV      6530            0.0000000000
     19711      6542  TIP3      OH2            23.2115250248        8.2349906768       21.7683528508  SOLV      6531            0.0000000000
     19712      6542  TIP3      H1             23.1667850248        9.1743006768       21.9470528508  SOLV      6531            0.0000000000
     19713      6542  TIP3      H2             22.3238450248        7.9994806768       21.4985628508  SOLV      6531            0.0000000000
     19714      6543  TIP3      OH2            21.2081650248        4.6552206768       25.5599428508  SOLV      6532            0.0000000000
     19715      6543  TIP3      H1             20.2830050248        4.8638806768       25.4304928508  SOLV      6532            0.0000000000
     19716      6543  TIP3      H2             21.6621550248        5.1393006768       24.8701728508  SOLV      6532            0.0000000000
     19717      6544  TIP3      OH2            22.4844250248        2.6979906768       23.5386028508  SOLV      6533            0.0000000000
     19718      6544  TIP3      H1             22.9234950248        3.3090406768       22.9469528508  SOLV      6533            0.0000000000
     19719      6544  TIP3      H2             21.8506650248        3.2364006768       24.0126028508  SOLV      6533            0.0000000000
     19720      6545  TIP3      OH2            24.3453350248        4.6141406768       21.9810128508  SOLV      6534            0.0000000000
     19721      6545  TIP3      H1             24.8366750248        3.9843806768       21.4535628508  SOLV      6534            0.0000000000
     19722      6545  TIP3      H2             24.9689650248        4.9100806768       22.6441328508  SOLV      6534            0.0000000000
     19723      6546  TIP3      OH2           -19.1448449752       21.2780706768       23.5954528508  SOLV      6535            0.0000000000
     19724      6546  TIP3      H1            -20.0447749752       21.4169706768       23.8905128508  SOLV      6535            0.0000000000
     19725      6546  TIP3      H2            -18.8930049752       22.1095306768       23.1936228508  SOLV      6535            0.0000000000
     19726      6547  TIP3      OH2           -19.7535749752       24.6208706768       20.8906528508  SOLV      6536            0.0000000000
     19727      6547  TIP3      H1            -19.1429949752       24.2495506768       21.5274728508  SOLV      6536            0.0000000000
     19728      6547  TIP3      H2            -20.5904249752       24.1995606768       21.0866528508  SOLV      6536            0.0000000000
     19729      6548  TIP3      OH2           -17.6409049752       23.5064506768       22.4328728508  SOLV      6537            0.0000000000
     19730      6548  TIP3      H1            -17.2286449752       22.7850206768       21.9576728508  SOLV      6537            0.0000000000
     19731      6548  TIP3      H2            -16.9592549752       24.1759106768       22.4913028508  SOLV      6537            0.0000000000
     19732      6549  TIP3      OH2            -3.6452849752       25.2260606768       27.5194528508  SOLV      6538            0.0000000000
     19733      6549  TIP3      H1             -2.9988549752       24.8973806768       28.1442128508  SOLV      6538            0.0000000000
     19734      6549  TIP3      H2             -3.1353449752       25.7439606768       26.8965928508  SOLV      6538            0.0000000000
     19735      6550  TIP3      OH2            -1.8814449752       24.5169906768       29.5000428508  SOLV      6539            0.0000000000
     19736      6550  TIP3      H1             -2.0966449752       23.7513306768       30.0326428508  SOLV      6539            0.0000000000
     19737      6550  TIP3      H2             -1.2257049752       24.9894506768       30.0128928508  SOLV      6539            0.0000000000
     19738      6551  TIP3      OH2            -8.5308949752       21.3188506768       30.6451928508  SOLV      6540            0.0000000000
     19739      6551  TIP3      H1             -8.6484749752       20.3704506768       30.5910228508  SOLV      6540            0.0000000000
     19740      6551  TIP3      H2             -9.3858849752       21.6514606768       30.9183028508  SOLV      6540            0.0000000000
     19741      6552  TIP3      OH2            -6.2104849752       28.6138406768       22.1842728508  SOLV      6541            0.0000000000
     19742      6552  TIP3      H1             -5.5094949752       28.6365306768       22.8356728508  SOLV      6541            0.0000000000
     19743      6552  TIP3      H2             -5.9081949752       27.9858106768       21.5282028508  SOLV      6541            0.0000000000
     19744      6553  TIP3      OH2            -2.8586349752       30.3657406768       26.0973628508  SOLV      6542            0.0000000000
     19745      6553  TIP3      H1             -3.5905349752       30.5941106768       26.6704228508  SOLV      6542            0.0000000000
     19746      6553  TIP3      H2             -2.4114149752       29.6520106768       26.5521128508  SOLV      6542            0.0000000000
     19747      6554  TIP3      OH2            -3.9876849752       29.5280306768       23.7824828508  SOLV      6543            0.0000000000
     19748      6554  TIP3      H1             -3.4081349752       29.6780606768       24.5293728508  SOLV      6543            0.0000000000
     19749      6554  TIP3      H2             -3.5736849752       29.9987706768       23.0591228508  SOLV      6543            0.0000000000
     19750      6555  TIP3      OH2            -0.2888449752       21.2780706768       23.5954528508  SOLV      6544            0.0000000000
     19751      6555  TIP3      H1             -1.1887749752       21.4169706768       23.8905128508  SOLV      6544            0.0000000000
     19752      6555  TIP3      H2             -0.0370049752       22.1095306768       23.1936228508  SOLV      6544            0.0000000000
     19753      6556  TIP3      OH2            -2.5103749752       30.5608606768       21.4122728508  SOLV      6545            0.0000000000
     19754      6556  TIP3      H1             -2.4682949752       30.3382506768       20.4822728508  SOLV      6545            0.0000000000
     19755      6556  TIP3      H2             -1.6611649752       30.9595706768       21.6022628508  SOLV      6545            0.0000000000
     19756      6557  TIP3      OH2            -6.9376249752       24.4366806768       22.0826028508  SOLV      6546            0.0000000000
     19757      6557  TIP3      H1             -7.1911449752       24.4558406768       23.0054128508  SOLV      6546            0.0000000000
     19758      6557  TIP3      H2             -7.1944149752       23.5652206768       21.7812228508  SOLV      6546            0.0000000000
     19759      6558  TIP3      OH2            -5.6386649752       27.8247906768       26.2469228508  SOLV      6547            0.0000000000
     19760      6558  TIP3      H1             -6.0476349752       28.6396506768       25.9554028508  SOLV      6547            0.0000000000
     19761      6558  TIP3      H2             -4.9180449752       27.6848006768       25.6326328508  SOLV      6547            0.0000000000
     19762      6559  TIP3      OH2           -10.0553349752       24.8823306768       21.1836428508  SOLV      6548            0.0000000000
     19763      6559  TIP3      H1            -10.4862649752       24.4373406768       21.9133828508  SOLV      6548            0.0000000000
     19764      6559  TIP3      H2            -10.7734649752       25.2539606768       20.6713928508  SOLV      6548            0.0000000000
     19765      6560  TIP3      OH2           -10.1111649752       26.4654006768       24.9994728508  SOLV      6549            0.0000000000
     19766      6560  TIP3      H1             -9.1796149752       26.5944006768       25.1777828508  SOLV      6549            0.0000000000
     19767      6560  TIP3      H2            -10.3261349752       27.1348306768       24.3499428508  SOLV      6549            0.0000000000
     19768      6561  TIP3      OH2           -11.4371449752       27.6596206768       22.5660828508  SOLV      6550            0.0000000000
     19769      6561  TIP3      H1            -11.9796349752       27.2800006768       21.8748428508  SOLV      6550            0.0000000000
     19770      6561  TIP3      H2            -10.6036549752       27.8540906768       22.1374928508  SOLV      6550            0.0000000000
     19771      6562  TIP3      OH2           -12.2707449752       23.7604206768       26.8216928508  SOLV      6551            0.0000000000
     19772      6562  TIP3      H1            -12.5877949752       22.8579506768       26.7862328508  SOLV      6551            0.0000000000
     19773      6562  TIP3      H2            -11.4893349752       23.7621606768       26.2688528508  SOLV      6551            0.0000000000
     19774      6563  TIP3      OH2            -4.2041849752       25.0391806768       22.7011528508  SOLV      6552            0.0000000000
     19775      6563  TIP3      H1             -5.1427649752       25.1507406768       22.5500328508  SOLV      6552            0.0000000000
     19776      6563  TIP3      H2             -3.9069749752       25.8958706768       23.0077228508  SOLV      6552            0.0000000000
     19777      6564  TIP3      OH2            -3.4858349752       26.9064506768       24.3618928508  SOLV      6553            0.0000000000
     19778      6564  TIP3      H1             -2.5939349752       26.7689506768       24.6810128508  SOLV      6553            0.0000000000
     19779      6564  TIP3      H2             -3.4294749752       27.6970606768       23.8252428508  SOLV      6553            0.0000000000
     19780      6565  TIP3      OH2             1.3990350248       27.1158606768       24.0565628508  SOLV      6554            0.0000000000
     19781      6565  TIP3      H1              0.8446650248       26.7196606768       23.3843128508  SOLV      6554            0.0000000000
     19782      6565  TIP3      H2              1.4993950248       28.0263806768       23.7788928508  SOLV      6554            0.0000000000
     19783      6566  TIP3      OH2            -2.0473049752       32.5506806768       24.5686228508  SOLV      6555            0.0000000000
     19784      6566  TIP3      H1             -2.3245449752       31.8226106768       25.1247328508  SOLV      6555            0.0000000000
     19785      6566  TIP3      H2             -1.1200049752       32.6698806768       24.7738828508  SOLV      6555            0.0000000000
     19786      6567  TIP3      OH2            -4.8162849752       24.1273506768       25.1317628508  SOLV      6556            0.0000000000
     19787      6567  TIP3      H1             -4.5964549752       24.5988906768       24.3283028508  SOLV      6556            0.0000000000
     19788      6567  TIP3      H2             -4.2578849752       24.5216106768       25.8018228508  SOLV      6556            0.0000000000
     19789      6568  TIP3      OH2            -7.6162949752       25.8552306768       25.9666028508  SOLV      6557            0.0000000000
     19790      6568  TIP3      H1             -6.8040349752       26.3595506768       26.0127728508  SOLV      6557            0.0000000000
     19791      6568  TIP3      H2             -7.8609949752       25.7102006768       26.8805628508  SOLV      6557            0.0000000000
     19792      6569  TIP3      OH2            -6.7326249752       22.9365306768       26.9047128508  SOLV      6558            0.0000000000
     19793      6569  TIP3      H1             -7.0792749752       23.5535906768       27.5491428508  SOLV      6558            0.0000000000
     19794      6569  TIP3      H2             -6.0739349752       23.4371006768       26.4232628508  SOLV      6558            0.0000000000
     19795      6570  TIP3      OH2           -11.0749249752       23.9994706768       23.5919628508  SOLV      6559            0.0000000000
     19796      6570  TIP3      H1            -11.1584449752       24.8877806768       23.9386028508  SOLV      6559            0.0000000000
     19797      6570  TIP3      H2            -10.1848949752       23.7341406768       23.8236428508  SOLV      6559            0.0000000000
     19798      6571  TIP3      OH2           -14.5004749752       27.0909906768       21.7683528508  SOLV      6560            0.0000000000
     19799      6571  TIP3      H1            -14.5452149752       28.0303006768       21.9470528508  SOLV      6560            0.0000000000
     19800      6571  TIP3      H2            -15.3881549752       26.8554806768       21.4985628508  SOLV      6560            0.0000000000
     19801      6572  TIP3      OH2            -9.0048349752       28.7955106768       21.5868428508  SOLV      6561            0.0000000000
     19802      6572  TIP3      H1             -9.1853349752       28.6406306768       20.6596728508  SOLV      6561            0.0000000000
     19803      6572  TIP3      H2             -8.0547849752       28.9033806768       21.6316328508  SOLV      6561            0.0000000000
     19804      6573  TIP3      OH2             0.3849950248       31.1499306768       21.0326528508  SOLV      6562            0.0000000000
     19805      6573  TIP3      H1              0.1114750248       30.7254806768       20.2194828508  SOLV      6562            0.0000000000
     19806      6573  TIP3      H2              0.4244050248       32.0813806768       20.8156928508  SOLV      6562            0.0000000000
     19807      6574  TIP3      OH2             0.8432750248       32.0187406768       25.0076928508  SOLV      6563            0.0000000000
     19808      6574  TIP3      H1              1.6934150248       32.4398306768       25.1348528508  SOLV      6563            0.0000000000
     19809      6574  TIP3      H2              0.8487850248       31.2787506768       25.6148328508  SOLV      6563            0.0000000000
     19810      6575  TIP3      OH2             1.5061450248       29.9733306768       23.2223928508  SOLV      6564            0.0000000000
     19811      6575  TIP3      H1              0.9842550248       30.3297406768       22.5034828508  SOLV      6564            0.0000000000
     19812      6575  TIP3      H2              1.4730650248       30.6481106768       23.9004828508  SOLV      6564            0.0000000000
     19813      6576  TIP3      OH2            -0.1449549752       27.2128906768       21.7731028508  SOLV      6565            0.0000000000
     19814      6576  TIP3      H1             -0.0485149752       27.8795906768       21.0930728508  SOLV      6565            0.0000000000
     19815      6576  TIP3      H2             -0.2849949752       26.3975206768       21.2916528508  SOLV      6565            0.0000000000
     19816      6577  TIP3      OH2            -0.9754849752       28.5931306768       27.3941328508  SOLV      6566            0.0000000000
     19817      6577  TIP3      H1             -1.1256049752       27.6479906768       27.3739128508  SOLV      6566            0.0000000000
     19818      6577  TIP3      H2             -1.3290349752       28.8742706768       28.2380428508  SOLV      6566            0.0000000000
     19819      6578  TIP3      OH2            -0.8975749752       24.6208706768       20.8906528508  SOLV      6567            0.0000000000
     19820      6578  TIP3      H1             -0.2869949752       24.2495506768       21.5274728508  SOLV      6567            0.0000000000
     19821      6578  TIP3      H2             -1.7344249752       24.1995606768       21.0866528508  SOLV      6567            0.0000000000
     19822      6579  TIP3      OH2            -1.2650049752       26.1757106768       25.8566428508  SOLV      6568            0.0000000000
     19823      6579  TIP3      H1             -0.9852949752       25.2687506768       25.9808128508  SOLV      6568            0.0000000000
     19824      6579  TIP3      H2             -0.5058349752       26.6098606768       25.4675628508  SOLV      6568            0.0000000000
     19825      6580  TIP3      OH2            -0.6515249752       23.4386406768       25.9048428508  SOLV      6569            0.0000000000
     19826      6580  TIP3      H1             -0.4690249752       22.9897906768       26.7303428508  SOLV      6569            0.0000000000
     19827      6580  TIP3      H2             -1.2512349752       22.8540806768       25.4413028508  SOLV      6569            0.0000000000
     19828      6581  TIP3      OH2             1.2150950248       23.5064506768       22.4328728508  SOLV      6570            0.0000000000
     19829      6581  TIP3      H1              1.6273550248       22.7850206768       21.9576728508  SOLV      6570            0.0000000000
     19830      6581  TIP3      H2              1.8967450248       24.1759106768       22.4913028508  SOLV      6570            0.0000000000
     19831      6582  TIP3      OH2            -6.3906649752       23.1221506768       29.9130028508  SOLV      6571            0.0000000000
     19832      6582  TIP3      H1             -7.0649849752       22.4927106768       30.1685828508  SOLV      6571            0.0000000000
     19833      6582  TIP3      H2             -5.8267449752       22.6380406768       29.3097928508  SOLV      6571            0.0000000000
     19834      6583  TIP3      OH2            -1.2479449752       21.2295506768       30.0257128508  SOLV      6572            0.0000000000
     19835      6583  TIP3      H1             -0.6441849752       21.7770906768       29.5238128508  SOLV      6572            0.0000000000
     19836      6583  TIP3      H2             -2.1177449752       21.5485906768       29.7851228508  SOLV      6572            0.0000000000
     19837      6584  TIP3      OH2             0.4790950248       22.3684206768       28.3588028508  SOLV      6573            0.0000000000
     19838      6584  TIP3      H1              1.0908450248       21.8539906768       27.8321628508  SOLV      6573            0.0000000000
     19839      6584  TIP3      H2              0.8614350248       23.2456306768       28.3822428508  SOLV      6573            0.0000000000
     19840      6585  TIP3      OH2           -15.2275749752       21.5539906768       23.5386028508  SOLV      6574            0.0000000000
     19841      6585  TIP3      H1            -14.7885049752       22.1650406768       22.9469528508  SOLV      6574            0.0000000000
     19842      6585  TIP3      H2            -15.8613349752       22.0924006768       24.0126028508  SOLV      6574            0.0000000000
     19843      6586  TIP3      OH2            -9.4846549752       21.6828906768       27.5483028508  SOLV      6575            0.0000000000
     19844      6586  TIP3      H1             -8.6103149752       22.0713206768       27.5187328508  SOLV      6575            0.0000000000
     19845      6586  TIP3      H2             -9.6205749752       21.4676706768       28.4710228508  SOLV      6575            0.0000000000
     19846      6587  TIP3      OH2            -3.9278149752       21.7128706768       29.1974728508  SOLV      6576            0.0000000000
     19847      6587  TIP3      H1             -3.8516549752       21.8080306768       28.2480728508  SOLV      6576            0.0000000000
     19848      6587  TIP3      H2             -4.2028949752       20.8051606768       29.3263828508  SOLV      6576            0.0000000000
     19849      6588  TIP3      OH2            -2.5745549752       21.7386506768       24.8899728508  SOLV      6577            0.0000000000
     19850      6588  TIP3      H1             -3.2774449752       22.3535706768       24.6801128508  SOLV      6577            0.0000000000
     19851      6588  TIP3      H2             -3.0194149752       20.9013206768       25.0210628508  SOLV      6577            0.0000000000
     19852      6589  TIP3      OH2           -13.3666649752       23.4701406768       21.9810128508  SOLV      6578            0.0000000000
     19853      6589  TIP3      H1            -12.8753249752       22.8403806768       21.4535628508  SOLV      6578            0.0000000000
     19854      6589  TIP3      H2            -12.7430349752       23.7660806768       22.6441328508  SOLV      6578            0.0000000000
     19855      6590  TIP3      OH2            -8.3406549752       23.7632906768       24.4380628508  SOLV      6579            0.0000000000
     19856      6590  TIP3      H1             -8.1625249752       23.1166106768       25.1209228508  SOLV      6579            0.0000000000
     19857      6590  TIP3      H2             -8.3940349752       24.5970606768       24.9051728508  SOLV      6579            0.0000000000
     19858      6591  TIP3      OH2             2.7053350248       27.8918406768       26.6333428508  SOLV      6580            0.0000000000
     19859      6591  TIP3      H1              2.2576750248       28.7377106768       26.6149928508  SOLV      6580            0.0000000000
     19860      6591  TIP3      H2              2.1444550248       27.3122606768       26.1178528508  SOLV      6580            0.0000000000
     19861      6592  TIP3      OH2            11.9183750248       24.4366806768       22.0826028508  SOLV      6581            0.0000000000
     19862      6592  TIP3      H1             11.6648550248       24.4558406768       23.0054128508  SOLV      6581            0.0000000000
     19863      6592  TIP3      H2             11.6615850248       23.5652206768       21.7812228508  SOLV      6581            0.0000000000
     19864      6593  TIP3      OH2             8.8006650248       24.8823306768       21.1836428508  SOLV      6582            0.0000000000
     19865      6593  TIP3      H1              8.3697350248       24.4373406768       21.9133828508  SOLV      6582            0.0000000000
     19866      6593  TIP3      H2              8.0825350248       25.2539606768       20.6713928508  SOLV      6582            0.0000000000
     19867      6594  TIP3      OH2             2.0430050248       24.6242806768       28.2355128508  SOLV      6583            0.0000000000
     19868      6594  TIP3      H1              2.6737750248       24.5954906768       28.9549028508  SOLV      6583            0.0000000000
     19869      6594  TIP3      H2              2.4924350248       24.1991506768       27.5051028508  SOLV      6583            0.0000000000
     19870      6595  TIP3      OH2             3.3172150248       25.3704806768       23.6595528508  SOLV      6584            0.0000000000
     19871      6595  TIP3      H1              3.7913850248       25.9614706768       23.0746428508  SOLV      6584            0.0000000000
     19872      6595  TIP3      H2              2.5998550248       25.9007706768       24.0065628508  SOLV      6584            0.0000000000
     19873      6596  TIP3      OH2             7.4188550248       27.6596206768       22.5660828508  SOLV      6585            0.0000000000
     19874      6596  TIP3      H1              6.8763650248       27.2800006768       21.8748428508  SOLV      6585            0.0000000000
     19875      6596  TIP3      H2              8.2523450248       27.8540906768       22.1374928508  SOLV      6585            0.0000000000
     19876      6597  TIP3      OH2             4.0086750248       29.9004206768       22.2630728508  SOLV      6586            0.0000000000
     19877      6597  TIP3      H1              4.6246650248       30.5271406768       22.6425528508  SOLV      6586            0.0000000000
     19878      6597  TIP3      H2              3.1469350248       30.2164006768       22.5347228508  SOLV      6586            0.0000000000
     19879      6598  TIP3      OH2             7.7810750248       23.9994706768       23.5919628508  SOLV      6587            0.0000000000
     19880      6598  TIP3      H1              7.6975550248       24.8877806768       23.9386028508  SOLV      6587            0.0000000000
     19881      6598  TIP3      H2              8.6711050248       23.7341406768       23.8236428508  SOLV      6587            0.0000000000
     19882      6599  TIP3      OH2             4.3555250248       27.0909906768       21.7683528508  SOLV      6588            0.0000000000
     19883      6599  TIP3      H1              4.3107850248       28.0303006768       21.9470528508  SOLV      6588            0.0000000000
     19884      6599  TIP3      H2              3.4678450248       26.8554806768       21.4985628508  SOLV      6588            0.0000000000
     19885      6600  TIP3      OH2             7.6307450248       32.5797106768       21.0187228508  SOLV      6589            0.0000000000
     19886      6600  TIP3      H1              7.6951550248       31.7856706768       21.5493628508  SOLV      6589            0.0000000000
     19887      6600  TIP3      H2              8.2836650248       32.4609906768       20.3289228508  SOLV      6589            0.0000000000
     19888      6601  TIP3      OH2             9.8511650248       28.7955106768       21.5868428508  SOLV      6590            0.0000000000
     19889      6601  TIP3      H1              9.6706650248       28.6406306768       20.6596728508  SOLV      6590            0.0000000000
     19890      6601  TIP3      H2             10.8012150248       28.9033806768       21.6316328508  SOLV      6590            0.0000000000
     19891      6602  TIP3      OH2             2.3521650248       23.5112206768       25.5599428508  SOLV      6591            0.0000000000
     19892      6602  TIP3      H1              1.4270050248       23.7198806768       25.4304928508  SOLV      6591            0.0000000000
     19893      6602  TIP3      H2              2.8061550248       23.9953006768       24.8701728508  SOLV      6591            0.0000000000
     19894      6603  TIP3      OH2             4.7920850248       21.7561806768       27.7349928508  SOLV      6592            0.0000000000
     19895      6603  TIP3      H1              4.0150650248       21.5216706768       27.2275828508  SOLV      6592            0.0000000000
     19896      6603  TIP3      H2              5.3224450248       20.9593906768       27.7437928508  SOLV      6592            0.0000000000
     19897      6604  TIP3      OH2             3.6284250248       21.5539906768       23.5386028508  SOLV      6593            0.0000000000
     19898      6604  TIP3      H1              4.0674950248       22.1650406768       22.9469528508  SOLV      6593            0.0000000000
     19899      6604  TIP3      H2              2.9946650248       22.0924006768       24.0126028508  SOLV      6593            0.0000000000
     19900      6605  TIP3      OH2             5.4893350248       23.4701406768       21.9810128508  SOLV      6594            0.0000000000
     19901      6605  TIP3      H1              5.9806750248       22.8403806768       21.4535628508  SOLV      6594            0.0000000000
     19902      6605  TIP3      H2              6.1129650248       23.7660806768       22.6441328508  SOLV      6594            0.0000000000
     19903      6606  LIT       LIT           -14.7683892819        8.7252773835      -22.9489043627  IONS      1               1.0000000000
     19904      6607  LIT       LIT            25.2122674536       17.4947916827        9.4969219015  IONS      2               1.0000000000
     19905      6608  LIT       LIT           -13.8195299008        1.4318589434       10.5881963620  IONS      3               1.0000000000
     19906      6609  LIT       LIT             7.8178953141      -16.7694245785       19.1313084993  IONS      4               1.0000000000
     19907      6610  LIT       LIT            12.7387687779       34.8177646582       -6.7259710044  IONS      5               1.0000000000
     19908      6611  LIT       LIT            16.3122495234        4.2409663941       10.7002391930  IONS      6               1.0000000000
     19909      6612  LIT       LIT            14.0258068485       19.5510746972      -19.4318516911  IONS      7               1.0000000000
     19910      6613  LIT       LIT           -21.1680728536        2.1894489659        0.5761371267  IONS      8               1.0000000000
     19911      6614  LIT       LIT            17.4363998462       -8.9967764816       12.3565597939  IONS      9               1.0000000000
     19912      6615  LIT       LIT            31.1810577497       -0.3844209541       16.2485699141  IONS      10              1.0000000000
     19913      6616  LIT       LIT           -13.5580708298       -0.9125660352      -35.8280955813  IONS      11              1.0000000000
     19914      6617  LIT       LIT            21.1754735166      -15.1706856984      -28.9292693456  IONS      12              1.0000000000
     19915      6618  LIT       LIT            24.2294182556      -24.3642212969       17.8516497938  IONS      13              1.0000000000
     19916      6619  LIT       LIT           -30.0704728709       -9.0455792631       -1.2552715391  IONS      14              1.0000000000
     19917      6620  LIT       LIT           -25.2793764308       10.7405059247       23.0102516358  IONS      15              1.0000000000
     19918      6621  LIT       LIT             3.0305369139       31.8915407774      -10.8603601333  IONS      16              1.0000000000
     19919      6622  LIT       LIT             0.1171227837      -10.2979521990       -0.4233214725  IONS      17              1.0000000000
     19920      6623  LIT       LIT           -24.1978440162      -22.6973816432       -2.8353671110  IONS      18              1.0000000000
     19921      6624  LIT       LIT            -9.8521900196       -8.4729151662       24.9906851179  IONS      19              1.0000000000
     19922      6625  LIT       LIT           -11.0841509521        4.6329402037        7.7453446060  IONS      20              1.0000000000
     19923      6626  LIT       LIT           -29.6492016860       -7.9513918936       20.5591294239  IONS      21              1.0000000000
     19924      6627  LIT       LIT             8.6464236722      -24.6744414974      -13.9671421442  IONS      22              1.0000000000
     19925      6628  CLA       CLA            18.9919673241       12.1372217196       12.5822636737  IONS      23             -1.0000000000
     19926      6629  CLA       CLA             5.8935694848       -3.3785661154       32.2180294682  IONS      24             -1.0000000000
     19927      6630  CLA       CLA           -10.3477422152       21.3941583097      -16.2389029825  IONS      25             -1.0000000000
     19928      6631  CLA       CLA            -9.3682651592       33.2147550355       11.7885115658  IONS      26             -1.0000000000
     19929      6632  CLA       CLA           -24.4197666541      -17.6187431365        2.4463306451  IONS      27             -1.0000000000
     19930      6633  CLA       CLA            10.9289410419       32.1336080687      -14.7339139443  IONS      28             -1.0000000000
     19931      6634  CLA       CLA           -25.1021921953       -6.9775581295       -4.1982937183  IONS      29             -1.0000000000
     19932      6635  CLA       CLA            23.4419772929      -20.8299699390       20.7774034515  IONS      30             -1.0000000000
     19933      6636  CLA       CLA            29.4516431100        8.5998265225      -13.5782265737  IONS      31             -1.0000000000
     19934      6637  CLA       CLA             8.2833319453       18.2105189218       28.6072574377  IONS      32             -1.0000000000
     19935      6638  CLA       CLA            26.2246890749       12.1790656104        3.6927510406  IONS      33             -1.0000000000
     19936      6639  CLA       CLA            21.5007633887       31.1740822188       -4.7905228387  IONS      34             -1.0000000000
     19937      6640  CLA       CLA            30.2454769842      -20.8959086613       11.6050093278  IONS      35             -1.0000000000
     19938      6641  CLA       CLA           -14.4023097007        1.8427966392       15.1002835994  IONS      36             -1.0000000000
     19939      6642  CLA       CLA           -12.4813623170        4.5467081268      -33.9695246043  IONS      37             -1.0000000000
     19940      6643  CLA       CLA            16.3107985180        4.5492765931        2.3228212525  IONS      38             -1.0000000000
     19941      6644  CLA       CLA            17.6412881984      -13.0289928583       16.2667077257  IONS      39             -1.0000000000
     19942      6645  CLA       CLA            -9.8187698268       12.4658521547       20.6517589246  IONS      40             -1.0000000000
