* GENERATED BY CHARMM-GUI (HTTP://WWW.CHARMM-GUI.ORG) V3.7 ON JUN, 17. 2026. JOB
* READ PDB, MANIPULATE STRUCTURE IF NEEDED, AND GENERATE TOPOLOGY FILE
*  DATE:     6/17/26     23:40:26      CREATED BY USER: charmm-gui
*
       120  EXT
         1         1  ASP       N               0.5860000000        4.1460000000       10.1440000000  PROA      1              55.7300000000
         2         1  ASP       HT1             1.5292352949        4.0204189635       10.5636862896  PROA      1               0.0000000000
         3         1  ASP       HT2            -0.0135000073        4.6915874550       10.7955625114  PROA      1               0.0000000000
         4         1  ASP       HT3             0.6728804916        4.6578025712        9.2428287930  PROA      1               0.0000000000
         5         1  ASP       CA             -0.0190000000        2.8390000000        9.9050000000  PROA      1              56.5200000000
         6         1  ASP       HA              0.0644801543        2.2645623083       10.8155949041  PROA      1               0.0000000000
         7         1  ASP       CB             -1.4870000000        2.9930000000        9.5020000000  PROA      1              51.6900000000
         8         1  ASP       HB1            -1.5362451870        3.4544422855        8.4928825823  PROA      1               0.0000000000
         9         1  ASP       HB2            -1.9924570706        3.6592308213       10.2329731024  PROA      1               0.0000000000
        10         1  ASP       CG             -2.2330000000        1.6710000000        9.4620000000  PROA      1              51.7500000000
        11         1  ASP       OD1            -2.3030000000        0.9780000000       10.5000000000  PROA      1              57.2000000000
        12         1  ASP       OD2            -2.7520000000        1.3160000000        8.3820000000  PROA      1              63.8800000000
        13         1  ASP       C               0.7430000000        2.0700000000        8.8290000000  PROA      1              58.3300000000
        14         1  ASP       O               1.0360000000        2.6120000000        7.7610000000  PROA      1              55.5100000000
        15         2  ALA       N               1.7050000000        1.3100000000        9.1720000000  PROA      2              60.5500000000
        16         2  ALA       HN              1.8159115451        0.9372191710       10.0899202724  PROA      2               0.0000000000
        17         2  ALA       CA              2.7080000000        0.9590000000        8.1700000000  PROA      2              58.5100000000
        18         2  ALA       HA              3.1052914670        1.8745133486        7.7574824582  PROA      2               0.0000000000
        19         2  ALA       CB              3.8250000000        0.1320000000        8.8030000000  PROA      2              55.1000000000
        20         2  ALA       HB1             3.4097126161       -0.8038709299        9.2342806411  PROA      2               0.0000000000
        21         2  ALA       HB2             4.3107464611        0.7123250840        9.6163432689  PROA      2               0.0000000000
        22         2  ALA       HB3             4.5794985679       -0.1365756632        8.0330304390  PROA      2               0.0000000000
        23         2  ALA       C               2.0790000000        0.1950000000        7.0090000000  PROA      2              60.2700000000
        24         2  ALA       O               2.6100000000        0.1980000000        5.8960000000  PROA      2              58.2100000000
        25         3  ASP       N               0.8620000000       -0.2370000000        7.0750000000  PROA      3              62.5500000000
        26         3  ASP       HN              0.3310001975       -0.2033842471        7.9180510138  PROA      3               0.0000000000
        27         3  ASP       CA              0.1880000000       -0.8040000000        5.9100000000  PROA      3              61.3700000000
        28         3  ASP       HA              0.9272024845       -0.9602754946        5.1384279304  PROA      3               0.0000000000
        29         3  ASP       CB             -0.4900000000       -2.1270000000        6.2730000000  PROA      3              56.9300000000
        30         3  ASP       HB1            -1.1618921015       -2.4269341936        5.4409655994  PROA      3               0.0000000000
        31         3  ASP       HB2            -1.0928601726       -1.9812089526        7.1944040065  PROA      3               0.0000000000
        32         3  ASP       CG              0.5000000000       -3.2520000000        6.5200000000  PROA      3              53.7400000000
        33         3  ASP       OD1             1.6180000000       -3.2130000000        5.9630000000  PROA      3              58.9600000000
        34         3  ASP       OD2             0.1580000000       -4.1870000000        7.2760000000  PROA      3              63.6200000000
        35         3  ASP       C              -0.8390000000        0.1730000000        5.3410000000  PROA      3              62.8200000000
        36         3  ASP       O              -1.8940000000        0.3920000000        5.9400000000  PROA      3              60.9300000000
        37         4  GLY       N              -0.5460000000        1.5170000000        5.6320000000  PROA      4              67.9800000000
        38         4  GLY       HN              0.1191414736        1.8365420341        6.3006728637  PROA      4               0.0000000000
        39         4  GLY       CA             -1.3120000000        2.4800000000        4.8580000000  PROA      4              66.1300000000
        40         4  GLY       HA1            -0.6556135412        2.8992318012        4.1098731213  PROA      4               0.0000000000
        41         4  GLY       HA2            -1.6491236794        3.2527284965        5.5329300767  PROA      4               0.0000000000
        42         4  GLY       C              -2.5170000000        1.8670000000        4.1690000000  PROA      4              67.0600000000
        43         4  GLY       O              -2.7190000000        0.6530000000        4.2240000000  PROA      4              62.6200000000
        44         5  PRO       N              -3.5760000000        2.4090000000        3.9480000000  PROA      5              71.2200000000
        45         5  PRO       CD             -3.1000000000        3.6480000000        3.4990000000  PROA      5              63.5500000000
        46         5  PRO       HD1            -2.1226733649        3.5099369390        2.9900317897  PROA      5               0.0000000000
        47         5  PRO       HD2            -2.9835202221        4.3376902918        4.3615758879  PROA      5               0.0000000000
        48         5  PRO       CA             -4.7580000000        1.9350000000        3.2250000000  PROA      5              69.6800000000
        49         5  PRO       HA             -5.4428166385        1.4493890354        3.9015582103  PROA      5               0.0000000000
        50         5  PRO       CB             -5.3020000000        3.2060000000        2.5670000000  PROA      5              66.2800000000
        51         5  PRO       HB1            -6.1413781244        3.6284793495        3.1594755856  PROA      5               0.0000000000
        52         5  PRO       HB2            -5.6604541502        2.9943843584        1.5370479631  PROA      5               0.0000000000
        53         5  PRO       CG             -4.1430000000        4.1490000000        2.5420000000  PROA      5              63.6700000000
        54         5  PRO       HG1            -3.7202981009        4.2006949202        1.5158688173  PROA      5               0.0000000000
        55         5  PRO       HG2            -4.4761026138        5.1648402577        2.8443337295  PROA      5               0.0000000000
        56         5  PRO       C              -4.4230000000        0.8780000000        2.1740000000  PROA      5              71.0500000000
        57         5  PRO       O              -3.3560000000        0.9320000000        1.5580000000  PROA      5              66.7300000000
        58         6  GLY       N              -4.5930000000       -0.3680000000        2.4190000000  PROA      6              76.0500000000
        59         6  GLY       HN             -4.7508855309       -0.6334897007        3.3622529512  PROA      6               0.0000000000
        60         6  GLY       CA             -4.5980000000       -1.5200000000        1.5310000000  PROA      6              75.3600000000
        61         6  GLY       HA1            -5.4094653001       -2.1656875963        1.8325006319  PROA      6               0.0000000000
        62         6  GLY       HA2            -3.6532490516       -2.0302096383        1.6468568382  PROA      6               0.0000000000
        63         6  GLY       C              -4.7810000000       -1.1470000000        0.0720000000  PROA      6              76.0900000000
        64         6  GLY       O              -5.2750000000       -0.0610000000       -0.2390000000  PROA      6              73.8700000000
        65         7  ASP       N              -3.8630000000       -1.9340000000       -1.0380000000  PROA      7              75.5800000000
        66         7  ASP       HN             -3.2092885702       -2.6206172772       -0.7354337169  PROA      7               0.0000000000
        67         7  ASP       CA             -3.8830000000       -1.7470000000       -2.4850000000  PROA      7              77.0100000000
        68         7  ASP       HA             -3.6606187345       -0.7107336786       -2.6920394129  PROA      7               0.0000000000
        69         7  ASP       CB             -2.8530000000       -2.6570000000       -3.1580000000  PROA      7              73.6300000000
        70         7  ASP       HB1            -3.1725208469       -3.7136746157       -3.0354732507  PROA      7               0.0000000000
        71         7  ASP       HB2            -1.8689975612       -2.5135857951       -2.6631877269  PROA      7               0.0000000000
        72         7  ASP       CG             -2.6900000000       -2.3740000000       -4.6410000000  PROA      7              71.2600000000
        73         7  ASP       OD1            -3.3950000000       -1.4900000000       -5.1740000000  PROA      7              73.9100000000
        74         7  ASP       OD2            -1.8510000000       -3.0420000000       -5.2820000000  PROA      7              76.1900000000
        75         7  ASP       C              -5.2730000000       -2.0160000000       -3.0560000000  PROA      7              78.5400000000
        76         7  ASP       O              -5.7910000000       -3.1290000000       -2.9430000000  PROA      7              77.8600000000
        77         8  PRO       N              -6.1590000000       -0.7970000000       -3.3100000000  PROA      8              77.5900000000
        78         8  PRO       CD             -5.8040000000        0.4720000000       -3.2470000000  PROA      8              74.1900000000
        79         8  PRO       HD1            -4.9029514746        0.6348462895       -3.8756081268  PROA      8               0.0000000000
        80         8  PRO       HD2            -5.5832689091        0.7416008575       -2.1924153902  PROA      8               0.0000000000
        81         8  PRO       CA             -7.5070000000       -1.0770000000       -3.8100000000  PROA      8              77.7400000000
        82         8  PRO       HA             -8.0980640350       -1.5589699720       -3.0478497276  PROA      8               0.0000000000
        83         8  PRO       CB             -8.0170000000        0.3010000000       -4.2390000000  PROA      8              75.7300000000
        84         8  PRO       HB1            -8.9970990807        0.5234264637       -3.7657019953  PROA      8               0.0000000000
        85         8  PRO       HB2            -8.1314167078        0.3528440842       -5.3427661658  PROA      8               0.0000000000
        86         8  PRO       CG             -6.9720000000        1.2590000000       -3.7690000000  PROA      8              73.8700000000
        87         8  PRO       HG1            -6.6456230407        1.9052190728       -4.6117182109  PROA      8               0.0000000000
        88         8  PRO       HG2            -7.3846187910        1.9022714688       -2.9626238202  PROA      8               0.0000000000
        89         8  PRO       C              -7.5090000000       -2.0500000000       -4.9870000000  PROA      8              78.9400000000
        90         8  PRO       O              -8.5290000000       -2.6850000000       -5.2660000000  PROA      8              78.2700000000
        91         9  ASP       N              -6.4530000000       -2.1910000000       -5.5940000000  PROA      9              75.0800000000
        92         9  ASP       HN             -5.5934951309       -1.7837561788       -5.2949936081  PROA      9               0.0000000000
        93         9  ASP       CA             -6.4230000000       -2.9880000000       -6.8160000000  PROA      9              74.7600000000
        94         9  ASP       HA             -7.4390004713       -3.1113052652       -7.1605349005  PROA      9               0.0000000000
        95         9  ASP       CB             -5.5780000000       -2.2960000000       -7.8880000000  PROA      9              71.2300000000
        96         9  ASP       HB1            -5.4922246829       -2.9685367065       -8.7677793963  PROA      9               0.0000000000
        97         9  ASP       HB2            -4.5645813441       -2.1017125463       -7.4770135940  PROA      9               0.0000000000
        98         9  ASP       CG             -6.1700000000       -0.9760000000       -8.3490000000  PROA      9              69.1300000000
        99         9  ASP       OD1            -7.3040000000       -0.6410000000       -7.9440000000  PROA      9              69.2800000000
       100         9  ASP       OD2            -5.4970000000       -0.2650000000       -9.1270000000  PROA      9              70.6800000000
       101         9  ASP       C              -5.8820000000       -4.3900000000       -6.5450000000  PROA      9              73.3700000000
       102         9  ASP       O              -5.8290000000       -5.2260000000       -7.4490000000  PROA      9              70.5400000000
       103        10  ALA       N              -5.4620000000       -4.6430000000       -5.1950000000  PROA      10             75.6900000000
       104        10  ALA       HN             -5.5325874878       -3.9945333115       -4.4418910171  PROA      10              0.0000000000
       105        10  ALA       CA             -4.8920000000       -5.9640000000       -4.9440000000  PROA      10             73.6500000000
       106        10  ALA       HA             -4.1032057777       -6.1312183272       -5.6623423162  PROA      10              0.0000000000
       107        10  ALA       CB             -4.3420000000       -6.0450000000       -3.5220000000  PROA      10             72.1700000000
       108        10  ALA       HB1            -5.0264405626       -5.5255079642       -2.8177343249  PROA      10              0.0000000000
       109        10  ALA       HB2            -3.3454857418       -5.5562581054       -3.4735769230  PROA      10              0.0000000000
       110        10  ALA       HB3            -4.2529213213       -7.1078196153       -3.2109798159  PROA      10              0.0000000000
       111        10  ALA       C              -5.9270000000       -7.0610000000       -5.1740000000  PROA      10             73.8400000000
       112        10  ALA       O              -7.0040000000       -7.0430000000       -4.5730000000  PROA      10             72.3800000000
       113        11  GLY       N              -6.8440000000       -7.3420000000       -5.9850000000  PROA      11             76.0100000000
       114        11  GLY       HN             -7.2718380927       -6.5455587098       -6.3665460042  PROA      11              0.0000000000
       115        11  GLY       CA             -7.5080000000       -8.4970000000       -6.5690000000  PROA      11             75.7400000000
       116        11  GLY       HA1            -8.5720890628       -8.3670209065       -6.4381984779  PROA      11              0.0000000000
       117        11  GLY       HA2            -7.1718132415       -9.3747714054       -6.0372247093  PROA      11              0.0000000000
       118        11  GLY       C              -7.2110000000       -8.6720000000       -8.0460000000  PROA      11             76.8600000000
       119        11  GLY       OT1            -6.4496868753       -7.8344161013       -8.5995842653  PROA      11              0.0000000000
       120        11  GLY       OT2            -7.7406440339       -9.6460892553       -8.6445209438  PROA      11              0.0000000000
