Title
29212
    1ASP      N    1   2.319   2.013   2.518  0.8972  0.1538  0.1005
    1ASP    HT1    2   2.369   2.087   2.571 -0.7086  0.7768  0.8161
    1ASP    HT2    3   2.226   2.054   2.496 -0.3134 -1.8357  1.2803
    1ASP    HT3    4   2.368   1.987   2.430 -0.0436  1.4494 -0.8425
    1ASP     CA    5   2.316   1.891   2.604 -0.6790  0.1621  0.3384
    1ASP     HA    6   2.255   1.824   2.545 -0.5797  0.9843 -0.7273
    1ASP     CB    7   2.459   1.838   2.634  0.0176  0.1565 -0.4146
    1ASP    HB1    8   2.454   1.746   2.695 -2.0872 -0.6058 -1.6505
    1ASP    HB2    9   2.523   1.915   2.684  0.6930  0.0055 -1.0159
    1ASP     CG   10   2.527   1.795   2.497 -0.6878 -0.9916 -0.8024
    1ASP    OD1   11   2.458   1.775   2.394  0.0471 -0.0950  0.3041
    1ASP    OD2   12   2.652   1.788   2.501 -0.1077  0.2888 -0.1929
    1ASP      C   13   2.236   1.913   2.731  0.6434  0.1852  0.5313
    1ASP      O   14   2.170   2.019   2.743 -0.1383 -0.7026 -0.3215
    2GLY      N   15   2.230   1.812   2.820 -0.6944  0.1978  0.4052
    2GLY     HN   16   2.270   1.721   2.809 -0.1061  0.5012 -0.0725
    2GLY     CA   17   2.148   1.818   2.939 -0.2853  0.0829  0.4066
    2GLY    HA1   18   2.164   1.912   2.989 -0.2095 -0.0861  0.7018
    2GLY    HA2   19   2.180   1.748   3.015 -0.3583 -0.6357 -0.2100
    2GLY      C   20   2.002   1.795   2.928  0.3312 -0.3546  0.2589
    2GLY      O   21   1.946   1.744   2.830  0.1071  0.0248  0.2561
    3ASP      N   22   1.931   1.815   3.043  0.3028  0.0963  0.1153
    3ASP     HN   23   1.972   1.868   3.117 -0.6270  1.8342 -0.5573
    3ASP     CA   24   1.791   1.772   3.052 -0.3798  0.5958 -0.1186
    3ASP     HA   25   1.781   1.671   3.015 -0.4836 -0.2382  2.0541
    3ASP     CB   26   1.732   1.779   3.195  0.3734 -0.4752 -0.3306
    3ASP    HB1   27   1.621   1.772   3.193  0.2076  1.7188 -0.4435
    3ASP    HB2   28   1.750   1.873   3.251  1.8590 -2.1854  2.2388
    3ASP     CG   29   1.774   1.670   3.283  0.4375 -0.2218  0.0699
    3ASP    OD1   30   1.841   1.572   3.244  0.2943 -0.4991 -0.1953
    3ASP    OD2   31   1.726   1.669   3.402  0.3951  0.3128  0.6608
    3ASP      C   32   1.704   1.853   2.956 -0.1797 -0.3148 -0.7573
    3ASP      O   33   1.717   1.975   2.936 -0.1411  0.3647 -0.3659
    4GLY      N   34   1.605   1.783   2.901  0.8176 -0.4959  0.4514
    4GLY     HN   35   1.593   1.685   2.918  0.8945 -1.0203 -2.1589
    4GLY     CA   36   1.494   1.846   2.829 -0.0720  0.1329  0.1781
    4GLY    HA1   37   1.445   1.761   2.782  0.1561  1.1992 -2.1287
    4GLY    HA2   38   1.533   1.917   2.758 -0.9996  1.6015  1.1118
    4GLY      C   39   1.399   1.924   2.917  0.5014 -0.1569  0.3610
    4GLY      O   40   1.419   1.939   3.036  0.0083  0.0517  0.2095
    5PRO      N   41   1.285   1.964   2.867 -0.0459 -0.8029 -0.7983
    5PRO     CD   42   1.225   1.906   2.737 -0.1652 -0.0270 -0.1689
    5PRO    HD1   43   1.238   1.796   2.723 -0.6461 -0.1762  0.4634
    5PRO    HD2   44   1.267   1.958   2.649 -1.3763  0.0379 -0.7378
    5PRO     CA   45   1.169   2.005   2.957  0.2753  0.1399 -0.0103
    5PRO     HA   46   1.203   2.080   3.026  1.5540 -0.9703  0.6328
    5PRO     CB   47   1.066   2.046   2.856 -0.5013 -0.1073  0.8845
    5PRO    HB1   48   1.094   2.144   2.812  2.7509 -1.9430 -1.6241
    5PRO    HB2   49   0.967   2.052   2.907 -0.4265 -0.4066  1.0681
    5PRO     CG   50   1.077   1.939   2.747 -0.6372 -0.0342 -0.2780
    5PRO    HG1   51   1.015   1.853   2.781  0.1866 -0.7170 -0.4968
    5PRO    HG2   52   1.043   1.960   2.644  2.0757  0.9355 -1.0602
    5PRO      C   53   1.117   1.896   3.054 -0.5541  0.6244  0.2245
    5PRO      O   54   1.124   1.775   3.034 -0.2297 -0.8225 -0.3544
    6GLY      N   55   1.081   1.939   3.175 -0.7738 -0.0041 -0.0031
    6GLY     HN   56   1.082   2.037   3.191  0.2866 -0.1618  1.0179
    6GLY     CA   57   1.013   1.865   3.278  0.7923  0.2206 -0.1039
    6GLY    HA1   58   1.077   1.853   3.364 -2.6501 -1.7424  2.4593
    6GLY    HA2   59   0.976   1.770   3.241 -0.3969  0.8275 -0.5249
    6GLY      C   60   0.883   1.930   3.313 -0.5019 -0.4728 -0.1784
    6GLY      O   61   0.848   2.034   3.255  0.0968  0.2918  0.1774
    7ASP      N   62   0.817   1.882   3.417  0.0642  0.2655  0.2914
    7ASP     HN   63   0.852   1.803   3.466  1.6373  1.0439  0.4651
    7ASP     CA   64   0.678   1.905   3.456  0.2763 -0.7632 -0.3286
    7ASP     HA   65   0.617   1.902   3.366  2.9683  2.4766 -2.5198
    7ASP     CB   66   0.634   1.795   3.561 -0.9915 -0.6284  0.1392
    7ASP    HB1   67   0.524   1.807   3.569 -1.2095 -1.3218 -1.3783
    7ASP    HB2   68   0.695   1.807   3.653  0.6363  1.0108 -1.0835
    7ASP     CG   69   0.653   1.661   3.502  0.2203 -0.7147  0.7302
    7ASP    OD1   70   0.737   1.585   3.551  0.2100 -0.1005 -0.1208
    7ASP    OD2   71   0.598   1.628   3.396 -0.0597  0.3074 -0.3163
    7ASP      C   72   0.652   2.043   3.524  0.4384 -0.7462  0.0971
    7ASP      O   73   0.744   2.095   3.587 -0.0080  0.6371 -0.2392
    8PRO      N   74   0.535   2.113   3.516  0.1657  0.4124 -0.8170
    8PRO     CD   75   0.420   2.065   3.443  0.0062  0.1569  0.1567
    8PRO    HD1   76   0.375   1.979   3.496 -0.0936 -1.0211 -1.7332
    8PRO    HD2   77   0.436   2.044   3.335  0.1624 -0.0385  0.2166
    8PRO     CA   78   0.506   2.230   3.595  0.1032  0.2818 -0.3340
    8PRO     HA   79   0.564   2.317   3.565 -1.7554  2.2727  1.4734
    8PRO     CB   80   0.354   2.244   3.582  0.3763  0.1923 -0.3833
    8PRO    HB1   81   0.302   2.342   3.595  0.6497  0.3113 -0.1809
    8PRO    HB2   82   0.305   2.175   3.653  1.3598  0.2800  0.4041
    8PRO     CG   83   0.324   2.189   3.441  0.9297 -0.0341 -0.3595
    8PRO    HG1   84   0.214   2.174   3.429  0.6204  2.1036 -0.5932
    8PRO    HG2   85   0.362   2.260   3.364  0.4420 -2.0051 -2.5368
    8PRO      C   86   0.545   2.225   3.745 -0.8457  0.3215  0.0617
    8PRO      O   87   0.535   2.120   3.806 -0.6324  0.1117  0.1942
    9GLY      N   88   0.596   2.331   3.812  0.1606 -0.1411 -0.2207
    9GLY     HN   89   0.586   2.420   3.769  1.8889  0.0888 -0.1887
    9GLY     CA   90   0.627   2.328   3.960  0.0578 -0.3610 -0.2418
    9GLY    HA1   91   0.719   2.382   3.974  0.4124 -0.8340 -0.6866
    9GLY    HA2   92   0.634   2.224   3.988 -0.8501 -0.3915 -0.0884
    9GLY      C   93   0.520   2.388   4.051  0.5208  0.8859 -0.2397
    9GLY      O   94   0.425   2.452   4.013 -0.1052  0.0462  0.5072
   10ASP      N   95   0.531   2.368   4.184 -0.6528 -0.2171  0.2586
   10ASP     HN   96   0.618   2.331   4.214 -1.6098 -1.8308  1.1226
   10ASP     CA   97   0.440   2.418   4.284 -0.3417  0.5809  0.1551
   10ASP     HA   98   0.343   2.393   4.245 -1.0086  0.9914  1.5066
   10ASP     CB   99   0.456   2.342   4.408 -0.5795  0.4936 -0.4438
   10ASP    HB1  100   0.375   2.373   4.477  0.0701  1.6757 -0.1863
   10ASP    HB2  101   0.556   2.354   4.456 -1.5623 -2.2584  2.7390
   10ASP     CG  102   0.439   2.190   4.385 -0.4417 -0.2876 -0.3782
   10ASP    OD1  103   0.352   2.145   4.304 -0.4910 -0.1270 -0.1975
   10ASP    OD2  104   0.504   2.110   4.458 -0.2491 -0.3648  0.3779
   10ASP      C  105   0.444   2.565   4.304 -0.0215 -0.0003 -0.3082
   10ASP      O  106   0.550   2.629   4.311 -0.2603 -0.3900 -0.1557
   11GLY      N  107   0.323   2.621   4.330 -0.3924  0.6297  0.0018
   11GLY     HN  108   0.243   2.563   4.324  0.8770 -1.4797  1.8399
   11GLY     CA  109   0.301   2.758   4.368  0.3573 -1.2629 -0.3576
   11GLY    HA1  110   0.375   2.781   4.443 -0.3106  0.1866 -0.1236
   11GLY    HA2  111   0.198   2.765   4.399  0.7990 -0.7394  1.0713
   11GLY      C  112   0.307   2.854   4.248  0.0623 -0.3858  0.0313
   11GLY    OT1  113   0.388   2.953   4.242 -0.3698  0.2195 -0.0008
   11GLY    OT2  114   0.239   2.824   4.147 -0.3915 -0.2313  0.4784
   12LIT    LIT  115   1.317   6.408   3.498  0.0585 -0.9685 -0.3269
   13LIT    LIT  116   6.965   6.249   4.377 -0.0555  0.3532 -0.7774
   14LIT    LIT  117   3.175   5.387   0.436 -0.1222  0.8588  0.6704
   15LIT    LIT  118   1.370   0.214   0.147  0.7841 -0.4447 -0.1395
   16LIT    LIT  119   0.391   2.939   4.055 -0.3571 -1.0072 -0.1714
   17LIT    LIT  120   4.445   5.976   3.358 -0.2146  0.6762 -0.4934
   18LIT    LIT  121   4.019   1.445   0.097 -0.1621 -0.0904 -1.0059
   19LIT    LIT  122   5.402   2.589   2.028  0.3645 -1.1743 -0.3709
   20LIT    LIT  123   2.562   6.119   0.578  1.1215 -1.1887  0.9715
   21LIT    LIT  124   1.860   5.987   0.475 -0.8512 -0.8452  0.2199
   22LIT    LIT  125   4.837   5.423   4.497 -0.4284  0.0325 -0.3235
   23LIT    LIT  126   1.656   1.058   5.676  0.4813 -0.8946  0.8665
   24LIT    LIT  127   4.438   6.008   4.491 -0.8039  0.2314  0.0913
   25LIT    LIT  128   0.679   1.459   3.374  0.9636  0.5496  0.5759
   26LIT    LIT  129   0.407   1.966   4.364  0.0797 -0.0343 -0.7425
   27LIT    LIT  130   5.931   2.510   1.401  0.0192 -0.5270  0.4507
   28LIT    LIT  131   0.353   5.080   4.578  0.1055  0.0612  0.9193
   29LIT    LIT  132   1.495   0.425   0.922  0.9116 -0.3374 -0.5909
   30LIT    LIT  133   5.701   0.378   2.270  0.1122 -0.2352 -0.2808
   31LIT    LIT  134   2.587   6.213   1.978 -0.7504  0.1032  0.1460
   32LIT    LIT  135   5.085   3.464   1.814  0.7914  0.0427  1.1496
   33LIT    LIT  136   4.945   2.167   1.180 -0.2900  0.2034 -1.4277
   34LIT    LIT  137   6.210   4.860   4.482 -0.1401 -0.9710 -0.9846
   35LIT    LIT  138   1.400   2.617   4.509  1.3232 -0.2776  0.3979
   36LIT    LIT  139   6.150   2.126   2.204 -0.0377 -0.2038 -0.0966
   37LIT    LIT  140   1.854   2.977   0.381 -0.1443 -0.6016 -0.8805
   38LIT    LIT  141   2.408   6.348   3.137 -0.5375  0.7061 -0.1299
   39LIT    LIT  142   2.742   1.926   2.397  0.8303  0.7618 -0.2959
   40LIT    LIT  143   0.671   2.961   4.532  0.1709  0.1265 -0.2407
   41LIT    LIT  144   6.588   0.997   5.078 -0.4582 -0.5691  0.5620
   42LIT    LIT  145   1.842   1.529   3.442  0.0943  0.3123  0.1203
   43CLA    CLA  146   4.210   2.226   2.571 -0.0158  0.0189  0.0571
   44CLA    CLA  147   5.326   2.227   3.195  0.0183 -0.5358 -0.0564
   45CLA    CLA  148   5.096   2.490   1.698  0.5093  0.6438 -0.0307
   46CLA    CLA  149   6.414   6.055   5.660 -0.0058 -0.1294  0.2517
   47CLA    CLA  150   1.022   2.260   4.494  0.2379 -0.6002  0.0390
   48CLA    CLA  151   7.009   2.152   5.315  0.0818  0.5923 -0.1128
   49CLA    CLA  152   7.053   6.076   2.193 -0.1106 -0.1835  0.3777
   50CLA    CLA  153   3.575   0.139   0.362 -0.0171  0.0615  0.4803
   51CLA    CLA  154   4.909   3.770   4.179 -0.2334  0.3279 -0.1498
   52CLA    CLA  155   0.014   6.009   0.761  0.5449 -0.0468  0.3836
   53CLA    CLA  156   3.623   1.267   2.765 -0.4332 -0.4853  0.2712
   54CLA    CLA  157   5.668   4.841   0.004 -0.0045 -0.0164  0.2027
   55CLA    CLA  158   7.161   5.547   4.387 -0.4338 -0.6715 -0.0090
   56CLA    CLA  159   0.938   6.611   2.646  0.1303 -0.1084  0.2821
   57CLA    CLA  160   1.140   3.428   5.036 -0.0403  0.0710 -0.4583
   58CLA    CLA  161   5.060   1.966   1.234 -0.3622 -0.2523 -0.2527
   59CLA    CLA  162   2.199   2.279   1.988 -0.4902  0.3025  0.4778
   60CLA    CLA  163   0.591   2.398   5.670  0.2928 -0.2636 -0.2147
   61CLA    CLA  164   6.083   5.226   1.589 -0.1557  0.2508  0.5308
   62CLA    CLA  165   4.576   0.784   3.151  0.2109 -0.0920 -0.0836
   63CLA    CLA  166   4.795   2.843   4.793 -0.1573 -0.2046  0.4734
   64CLA    CLA  167   6.827   4.121   5.552 -0.1862 -0.0005  0.1122
   65CLA    CLA  168   5.185   5.511   1.641 -0.1339  0.0805  0.0488
   66CLA    CLA  169   0.189   5.135   4.156 -0.0199 -0.1156  0.1162
   67CLA    CLA  170   5.103   3.740   1.477  0.1211 -0.3584 -0.2605
   68CLA    CLA  171   4.320   2.282   0.300  0.3341  0.1532  0.3643
   69CLA    CLA  172   7.129   0.312   4.570 -0.3270 -0.5199  0.7086
   70TIP3   OH2  173   2.659   5.114   5.554 -0.2175  0.3369  0.0460
   70TIP3    H1  174   2.723   5.090   5.621  0.3082  1.4628 -0.0428
   70TIP3    H2  175   2.693   5.075   5.473  0.3999  0.9892 -0.0137
   71TIP3   OH2  176   5.267   4.078   0.191 -0.4600 -0.2262  0.0025
   71TIP3    H1  177   5.327   4.013   0.156 -0.9028 -0.4867 -0.2731
   71TIP3    H2  178   5.279   4.073   0.286  1.4816  1.1891 -0.0981
   72TIP3   OH2  179   6.911   5.527   1.597  0.0629 -0.4736 -0.2380
   72TIP3    H1  180   6.865   5.518   1.680 -0.3227 -0.5986 -0.4612
   72TIP3    H2  181   6.993   5.572   1.619  0.2687 -1.1037  0.3095
   73TIP3   OH2  182   2.480  -0.015   5.104 -0.5026  0.1405  0.3361
   73TIP3    H1  183   2.571   0.011   5.090 -0.2754  1.7453  3.6911
   73TIP3    H2  184   2.429   0.059   5.071 -0.4811  0.1194  0.2549
   74TIP3   OH2  185   3.682   6.254   1.962 -0.4287  0.3953 -0.4953
   74TIP3    H1  186   3.699   6.285   2.051  0.7295 -0.7979 -0.2652
   74TIP3    H2  187   3.663   6.161   1.973  1.3513 -0.1448 -1.6278
   75TIP3   OH2  188   1.071   4.849   1.270  0.0961 -0.4272 -0.0102
   75TIP3    H1  189   1.067   4.872   1.177 -1.7134 -0.3981  0.0301
   75TIP3    H2  190   1.107   4.761   1.272  0.6907 -0.2065 -0.6930
   76TIP3   OH2  191   4.535   4.769   2.383 -0.4826 -0.0745 -0.1500
   76TIP3    H1  192   4.551   4.862   2.364  0.3603 -0.2551 -0.3712
   76TIP3    H2  193   4.621   4.734   2.405 -0.3703 -1.3522 -2.3797
   77TIP3   OH2  194   4.130   6.008   2.385  0.3361  0.0251 -0.7304
   77TIP3    H1  195   4.203   6.021   2.325  0.4759 -0.4750 -0.6746
   77TIP3    H2  196   4.168   5.966   2.461 -0.0797 -0.6786 -0.8967
   78TIP3   OH2  197   5.453   1.414   1.122 -0.1694 -0.2055 -0.2167
   78TIP3    H1  198   5.456   1.318   1.116 -0.6900 -0.2864  0.6917
   78TIP3    H2  199   5.398   1.432   1.198 -1.5244  0.8358 -1.3735
   79TIP3   OH2  200   2.718   3.813   4.671 -0.1216  0.5737 -0.2607
   79TIP3    H1  201   2.675   3.844   4.751  0.3129 -0.0081  0.2125
   79TIP3    H2  202   2.654   3.755   4.630  0.2487 -0.4134  0.5200
   80TIP3   OH2  203   5.737   0.192   2.196  0.5177  0.6040 -0.1775
   80TIP3    H1  204   5.800   0.187   2.124 -0.6560 -1.1795 -1.1507
   80TIP3    H2  205   5.751   0.112   2.247 -0.3438  0.6261  0.1138
   81TIP3   OH2  206   5.706   3.890   2.821 -0.4642 -0.4010  0.1488
   81TIP3    H1  207   5.721   3.933   2.737  0.8307 -1.5139 -0.2278
   81TIP3    H2  208   5.648   3.818   2.800  0.8795 -1.4660 -0.0832
   82TIP3   OH2  209   0.377   2.151   1.630  0.2745  0.2539  0.4777
   82TIP3    H1  210   0.433   2.084   1.669  0.2857  1.0970  1.9858
   82TIP3    H2  211   0.291   2.137   1.669 -0.3881 -0.4718 -1.1523
   83TIP3   OH2  212   4.489   2.563   5.202  0.3103  0.5065  0.6379
   83TIP3    H1  213   4.449   2.562   5.289 -0.4122  2.7289  0.4107
   83TIP3    H2  214   4.419   2.594   5.144  0.8241 -0.7887 -0.7250
   84TIP3   OH2  215   4.685   6.616   4.815  0.1209  0.0516  0.3405
   84TIP3    H1  216   4.716   6.545   4.760 -1.7500 -0.2335 -0.4254
   84TIP3    H2  217   4.737   6.692   4.789 -0.1478 -0.2813 -1.2612
   85TIP3   OH2  218   2.013   4.754   2.851  0.0410  0.0460 -0.3338
   85TIP3    H1  219   2.013   4.786   2.761  0.7316  1.2314  0.0708
   85TIP3    H2  220   1.992   4.832   2.904  0.9396 -0.3342  0.6174
   86TIP3   OH2  221   2.402   5.871   2.692 -0.1505  0.4698 -0.2819
   86TIP3    H1  222   2.383   5.957   2.730 -0.2688 -1.0007  3.4595
   86TIP3    H2  223   2.488   5.848   2.726 -1.2566 -1.9472  1.1354
   87TIP3   OH2  224   7.110   1.523   2.477  0.8405  0.0207  0.7224
   87TIP3    H1  225   7.135   1.547   2.566  0.1322  1.8455  0.4688
   87TIP3    H2  226   7.186   1.544   2.423  0.9754 -0.3198  0.7752
   88TIP3   OH2  227   6.609   3.302   5.036  0.0413 -0.2898  0.2724
   88TIP3    H1  228   6.699   3.271   5.025  0.1467  0.3422 -0.8141
   88TIP3    H2  229   6.596   3.362   4.963 -0.8838  0.5276  1.0861
   89TIP3   OH2  230   2.697   0.087   5.291 -0.0138 -0.6348  0.3006
   89TIP3    H1  231   2.733   0.026   5.355  0.8834  0.5420  0.9518
   89TIP3    H2  232   2.750   0.073   5.213  1.8293  0.9311  1.1821
   90TIP3   OH2  233   3.480   2.810   0.772 -0.3489 -0.0974 -0.0579
   90TIP3    H1  234   3.442   2.820   0.859 -1.1937  1.7274 -0.5781
   90TIP3    H2  235   3.477   2.716   0.754 -0.4086 -0.4698  1.7469
   91TIP3   OH2  236   1.869   4.320   3.047 -0.2912 -0.0704  0.1394
   91TIP3    H1  237   1.886   4.395   2.990  1.9294  0.0373  0.8295
   91TIP3    H2  238   1.774   4.313   3.051 -0.5272  1.6013 -1.3553
   92TIP3   OH2  239   4.027   4.989   3.929  0.4242 -0.0513 -0.3816
   92TIP3    H1  240   3.935   4.983   3.905  0.2973  0.9609 -0.1987
   92TIP3    H2  241   4.030   5.061   3.992  1.8746  2.6322 -3.2627
   93TIP3   OH2  242   7.063   5.205   4.780  0.2383  0.2628  0.6913
   93TIP3    H1  243   7.130   5.189   4.713  0.4188  1.5932  0.5148
   93TIP3    H2  244   6.980   5.202   4.733  0.2835  0.0765  0.6233
   94TIP3   OH2  245   2.210   5.273   5.084  0.9520  0.4077 -0.3693
   94TIP3    H1  246   2.224   5.245   5.175 -0.4553  1.4497  0.1909
   94TIP3    H2  247   2.229   5.195   5.032 -0.1249 -0.7919  0.9561
   95TIP3   OH2  248   6.976   2.196   4.259  0.0821  0.0069 -0.7488
   95TIP3    H1  249   7.004   2.209   4.168 -1.1223  0.2793 -1.1120
   95TIP3    H2  250   7.039   2.134   4.295  0.1614 -0.6852 -2.0035
   96TIP3   OH2  251   3.960   4.839   2.987 -0.2406  1.0692 -0.4429
   96TIP3    H1  252   3.938   4.770   3.050  1.3404  0.2492 -0.7377
   96TIP3    H2  253   3.977   4.793   2.905  1.3524  1.7352 -0.5125
   97TIP3   OH2  254   4.558   3.725   1.080 -0.1704 -0.7070  0.0407
   97TIP3    H1  255   4.486   3.674   1.118 -0.6331  1.0055  1.6354
   97TIP3    H2  256   4.543   3.815   1.111  2.7894 -0.3102  0.6710
   98TIP3   OH2  257   5.888   2.413   3.965  0.5033 -0.1138 -0.5868
   98TIP3    H1  258   5.794   2.432   3.960  0.5003 -0.2729 -1.2852
   98TIP3    H2  259   5.929   2.480   3.909  0.7656 -0.2971 -0.6168
   99TIP3   OH2  260   2.010   3.625   2.617  0.4282  0.4549 -0.2191
   99TIP3    H1  261   1.925   3.646   2.578 -0.5786  0.2459  1.7261
   99TIP3    H2  262   1.996   3.539   2.658  2.0855 -0.3392 -1.2179
  100TIP3   OH2  263   6.528   0.945   1.174 -0.4299  0.0917 -0.0044
  100TIP3    H1  264   6.515   0.973   1.084 -0.0622 -0.8277 -0.3588
  100TIP3    H2  265   6.447   0.901   1.198 -0.2742 -0.2656 -0.1254
  101TIP3   OH2  266   4.520   0.417   0.596  0.3831 -0.4100  0.0597
  101TIP3    H1  267   4.538   0.509   0.578 -0.8706 -0.3620 -1.0331
  101TIP3    H2  268   4.584   0.369   0.544  0.4812 -0.1793 -0.0321
  102TIP3   OH2  269   1.951   5.699   5.765  0.0368  0.1376 -0.0004
  102TIP3    H1  270   1.894   5.625   5.745 -0.5123 -0.2452  2.5976
  102TIP3    H2  271   1.937   5.760   5.692  0.2446 -2.0870 -2.0351
  103TIP3   OH2  272   1.573   1.120   5.835 -0.0689  0.5544 -0.5192
  103TIP3    H1  273   1.620   1.172   5.900  1.2792  0.0565 -1.0605
  103TIP3    H2  274   1.534   1.049   5.885  0.2164  0.6693 -0.1275
  104TIP3   OH2  275   0.854   1.603   3.856  0.2380  0.1930  0.0442
  104TIP3    H1  276   0.803   1.617   3.776  1.0049  1.7426 -0.2143
  104TIP3    H2  277   0.935   1.650   3.841  2.1847 -2.8460  0.0993
  105TIP3   OH2  278   0.020   1.419   1.774  0.1314 -0.1579 -0.8262
  105TIP3    H1  279   0.064   1.486   1.721  3.1781 -2.3027 -1.2638
  105TIP3    H2  280  -0.037   1.373   1.711  2.7636 -1.8669 -2.1534
  106TIP3   OH2  281   2.307   6.438   4.435 -0.0208  0.0622 -0.0759
  106TIP3    H1  282   2.385   6.382   4.429  1.2266  1.7413 -0.1759
  106TIP3    H2  283   2.242   6.392   4.382  1.2311 -0.8509 -0.9122
  107TIP3   OH2  284   1.590   3.025   0.614 -0.1028 -0.1804 -0.4143
  107TIP3    H1  285   1.563   3.116   0.605  0.5493 -0.0878 -1.5408
  107TIP3    H2  286   1.515   2.974   0.583 -0.5876 -0.0485  0.5124
  108TIP3   OH2  287   1.464   1.476   2.818  0.0506 -0.4165 -0.6434
  108TIP3    H1  288   1.491   1.500   2.730 -0.7603 -2.7671 -1.5896
  108TIP3    H2  289   1.505   1.392   2.834 -0.7937 -0.5993  0.7527
  109TIP3   OH2  290   6.558   4.008   0.115 -0.2151 -0.4311 -0.3568
  109TIP3    H1  291   6.542   3.923   0.072  0.2650 -1.1293  0.8127
  109TIP3    H2  292   6.581   4.067   0.043  2.0708 -1.9289 -0.9553
  110TIP3   OH2  293   0.032   5.370   5.147  0.3000 -0.0357 -0.0142
  110TIP3    H1  294   0.068   5.282   5.159  0.5829 -0.1864 -1.7076
  110TIP3    H2  295   0.102   5.428   5.176  0.9032 -0.3647 -0.7574
  111TIP3   OH2  296   1.848   2.269   0.071  0.1281 -0.4137 -0.2279
  111TIP3    H1  297   1.929   2.236   0.110  0.0311  0.1912  0.5279
  111TIP3    H2  298   1.835   2.355   0.112 -0.3822 -0.0803 -1.0605
  112TIP3   OH2  299   0.522   2.493   3.172  0.0114 -0.1359  0.2011
  112TIP3    H1  300   0.579   2.546   3.227 -0.0708 -0.6359  0.7819
  112TIP3    H2  301   0.433   2.516   3.200 -0.1000  0.7468 -0.7974
  113TIP3   OH2  302   3.773   0.261   2.666  0.0638 -0.4913  0.3182
  113TIP3    H1  303   3.830   0.336   2.681 -0.6959 -0.0412  1.0330
  113TIP3    H2  304   3.739   0.238   2.753 -0.4997 -1.0218 -0.0292
  114TIP3   OH2  305   2.274   0.293   1.925  0.0242  0.1056  0.1559
  114TIP3    H1  306   2.194   0.327   1.963 -0.2665  0.5640 -0.8593
  114TIP3    H2  307   2.254   0.202   1.904 -0.2140  0.2110 -0.0661
  115TIP3   OH2  308   5.383   3.982   4.881 -0.1076  0.5485 -0.3451
  115TIP3    H1  309   5.422   3.907   4.836  0.3730  0.0272  0.9069
  115TIP3    H2  310   5.291   3.957   4.892  0.3069 -0.4403  1.1741
  116TIP3   OH2  311   3.072   3.403   1.756  0.8941  0.1142  0.7239
  116TIP3    H1  312   3.046   3.316   1.785  0.6103 -0.7764 -1.9240
  116TIP3    H2  313   2.999   3.460   1.781 -1.5030 -1.4252 -2.1119
  117TIP3   OH2  314   4.564   2.997   2.908 -0.2123 -0.0030  0.3682
  117TIP3    H1  315   4.533   3.075   2.862 -0.9698 -0.4740  0.0480
  117TIP3    H2  316   4.569   2.930   2.840  1.5568  0.0401  0.4100
  118TIP3   OH2  317   1.779   3.871   4.983 -0.1705 -0.1419 -0.0479
  118TIP3    H1  318   1.686   3.862   5.004 -0.2170  0.8704  0.2560
  118TIP3    H2  319   1.782   3.872   4.887 -0.2640 -1.9327 -0.1037
  119TIP3   OH2  320   6.465   3.621   0.591  0.1512  0.1623  0.3156
  119TIP3    H1  321   6.409   3.603   0.516  0.5210 -0.0220  0.0795
  119TIP3    H2  322   6.460   3.541   0.644  0.9482 -0.2405 -0.1942
  120TIP3   OH2  323   4.558   5.341   5.396  0.1406  0.0841  0.3279
  120TIP3    H1  324   4.603   5.353   5.480  0.3743  1.2426  0.0594
  120TIP3    H2  325   4.488   5.406   5.397 -1.0976 -1.2223  0.4262
  121TIP3   OH2  326   2.966   1.671   4.331  0.0386  0.1861 -0.0637
  121TIP3    H1  327   2.976   1.753   4.283 -1.5130 -0.1430 -0.9965
  121TIP3    H2  328   2.900   1.691   4.398  1.7751  0.4850  1.6651
  122TIP3   OH2  329   3.867   2.783   0.592  0.3994  0.1114 -0.2092
  122TIP3    H1  330   3.775   2.763   0.609  0.4822 -1.6857 -1.5573
  122TIP3    H2  331   3.885   2.742   0.507  2.8323 -0.9088  0.7025
  123TIP3   OH2  332   4.518   3.260   2.573 -0.1137 -0.0720 -0.1234
  123TIP3    H1  333   4.553   3.199   2.508 -0.5069  0.7104 -1.0973
  123TIP3    H2  334   4.468   3.323   2.522 -0.6687  0.4069  0.9776
  124TIP3   OH2  335   3.974   4.150   4.986 -0.2529 -0.3048 -0.9229
  124TIP3    H1  336   3.891   4.152   5.035  1.3359  0.7879  1.9771
  124TIP3    H2  337   3.977   4.233   4.940  0.2317  0.7788  0.9471
  125TIP3   OH2  338   3.060   1.901   0.006 -0.9667  0.4784  0.3496
  125TIP3    H1  339   2.980   1.949   0.027 -1.3297 -0.4490  1.1455
  125TIP3    H2  340   3.037   1.809   0.019  0.2958  0.2131  0.8476
  126TIP3   OH2  341   3.014   6.652   2.371 -0.2952  0.4535  0.2874
  126TIP3    H1  342   3.029   6.711   2.444 -0.8380  0.6847  0.2172
  126TIP3    H2  343   2.923   6.666   2.347  0.3876  1.8368 -1.7241
  127TIP3   OH2  344   2.961   4.857   0.445  0.0205 -0.3209  0.0140
  127TIP3    H1  345   2.876   4.897   0.460 -0.2198 -0.1849 -1.5682
  127TIP3    H2  346   3.022   4.911   0.495 -0.5978  0.6074 -0.2146
  128TIP3   OH2  347   2.686   6.791   2.801  0.0995  1.0133 -0.8020
  128TIP3    H1  348   2.651   6.707   2.771  0.5798  1.2068 -1.9759
  128TIP3    H2  349   2.649   6.803   2.888 -0.2375 -0.2594 -0.7514
  129TIP3   OH2  350   3.599   3.050   5.318  0.7388 -0.3675 -0.7222
  129TIP3    H1  351   3.693   3.048   5.340  0.4705  0.2043  0.6003
  129TIP3    H2  352   3.560   3.106   5.386 -0.3455  0.6536 -2.1242
  130TIP3   OH2  353   0.037   3.861   2.564  0.3106 -0.1926  0.4654
  130TIP3    H1  354   0.018   3.916   2.488 -0.3920 -0.1585  0.6603
  130TIP3    H2  355  -0.037   3.874   2.623  0.2325 -1.1777  0.6100
  131TIP3   OH2  356   3.691   1.664   1.209 -1.0048 -0.0171  0.1656
  131TIP3    H1  357   3.766   1.609   1.230 -0.6891 -0.5976 -2.1891
  131TIP3    H2  358   3.713   1.750   1.245  1.5407  0.2363 -1.7468
  132TIP3   OH2  359   1.169   6.673   5.577  0.3218  0.4493  0.2772
  132TIP3    H1  360   1.123   6.757   5.580 -0.4633  0.0167  0.5688
  132TIP3    H2  361   1.259   6.696   5.555 -0.2836  1.2203 -1.5809
  133TIP3   OH2  362   6.025   5.770   0.912 -0.8650  0.3060 -0.2952
  133TIP3    H1  363   6.027   5.691   0.858  0.9455  0.2006 -0.1371
  133TIP3    H2  364   5.982   5.836   0.857  0.6509  0.1239 -1.7872
  134TIP3   OH2  365   3.158   0.457   5.494  0.1165  0.2983 -0.3767
  134TIP3    H1  366   3.220   0.487   5.428  0.5306 -0.4938 -0.3549
  134TIP3    H2  367   3.091   0.526   5.498  0.1516  0.4067 -1.5324
  135TIP3   OH2  368   2.527   4.413   3.790 -0.1002 -0.4393 -0.1082
  135TIP3    H1  369   2.435   4.411   3.761 -1.1317  0.9169  2.6785
  135TIP3    H2  370   2.533   4.343   3.855  1.1272 -1.1220 -0.9334
  136TIP3   OH2  371   6.431   0.478   0.088 -0.1716  0.6054 -0.4830
  136TIP3    H1  372   6.440   0.512   0.177  1.7491  0.9644 -0.7608
  136TIP3    H2  373   6.402   0.387   0.099  1.1553  0.2739  0.5968
  137TIP3   OH2  374   4.676   5.328   4.536  0.4482  0.0548  0.5711
  137TIP3    H1  375   4.619   5.275   4.590  1.1991 -0.4550  0.8793
  137TIP3    H2  376   4.629   5.338   4.453  0.2205 -0.9266  0.5786
  138TIP3   OH2  377   2.749   6.050   1.217  0.6604 -0.7087 -0.6405
  138TIP3    H1  378   2.773   6.097   1.137  0.9749 -0.3231 -0.3237
  138TIP3    H2  379   2.669   6.092   1.247  2.1081  1.1532  0.8561
  139TIP3   OH2  380   4.563   6.552   0.919  0.4977 -0.2963  0.1774
  139TIP3    H1  381   4.583   6.458   0.919 -0.1301 -0.4965 -2.6227
  139TIP3    H2  382   4.471   6.556   0.946  0.3986 -0.5341 -0.1134
  140TIP3   OH2  383   1.518   1.794   0.729  0.4855 -0.5254 -0.3132
  140TIP3    H1  384   1.542   1.846   0.652 -0.5769  1.8982  0.9053
  140TIP3    H2  385   1.589   1.730   0.737  1.5317  0.2850 -2.2588
  141TIP3   OH2  386   5.694   5.922   5.354  0.4999 -0.7956 -0.0911
  141TIP3    H1  387   5.760   5.944   5.420 -0.9254 -0.0748  1.1475
  141TIP3    H2  388   5.629   5.870   5.401 -0.4828 -0.3932 -0.9576
  142TIP3   OH2  389   1.791   5.882   3.184 -0.2889  0.4998 -0.2573
  142TIP3    H1  390   1.722   5.948   3.179 -0.3150  0.4237 -0.9304
  142TIP3    H2  391   1.837   5.889   3.100 -0.7639 -0.8652 -0.6584
  143TIP3   OH2  392   0.210   1.242   3.295  0.7755  0.1595 -0.7153
  143TIP3    H1  393   0.232   1.162   3.247  0.3299 -0.2727 -0.2030
  143TIP3    H2  394   0.183   1.212   3.381  4.3266  1.0354  0.9130
  144TIP3   OH2  395   5.924   5.967   2.992  0.3429 -0.1480  0.3859
  144TIP3    H1  396   5.830   5.961   2.976  0.1762  0.8203  0.9072
  144TIP3    H2  397   5.944   6.061   2.984  1.0885 -0.2207  1.1658
  145TIP3   OH2  398   1.915   2.425   3.477 -0.1634 -0.3999 -0.4330
  145TIP3    H1  399   1.900   2.356   3.541 -2.6623  2.0774  1.9002
  145TIP3    H2  400   1.847   2.412   3.411 -0.6221 -0.1914 -0.0039
  146TIP3   OH2  401   2.347   5.653   1.436 -0.4321 -0.9950 -0.7219
  146TIP3    H1  402   2.428   5.612   1.405 -0.7470 -2.7188  0.6503
  146TIP3    H2  403   2.300   5.584   1.482 -1.5642  0.5936  0.6377
  147TIP3   OH2  404   1.334   6.587   5.178 -0.3122  0.1461  0.2985
  147TIP3    H1  405   1.309   6.576   5.086 -1.5738  0.8302  0.5402
  147TIP3    H2  406   1.330   6.499   5.216 -1.5607  0.1182  0.1225
  148TIP3   OH2  407   1.463   6.338   4.024 -0.0030 -0.5986  0.1267
  148TIP3    H1  408   1.475   6.360   4.116  1.2621  0.9450 -0.3536
  148TIP3    H2  409   1.538   6.284   4.001 -0.1201 -0.6742 -0.0911
  149TIP3   OH2  410   2.607   0.636   2.658 -0.0819  0.5607  0.0757
  149TIP3    H1  411   2.657   0.658   2.579 -0.6391 -0.7377 -0.6700
  149TIP3    H2  412   2.534   0.584   2.626  0.0511 -0.5673  1.5186
  150TIP3   OH2  413   4.996   2.777   1.114 -0.8989  0.2864 -0.1818
  150TIP3    H1  414   5.070   2.771   1.174 -0.7474  3.2677  0.1187
  150TIP3    H2  415   4.930   2.826   1.163 -1.6742  0.7505 -1.6231
  151TIP3   OH2  416   6.902   2.074   1.325  0.8328  0.7555  0.0951
  151TIP3    H1  417   6.868   2.164   1.324  2.4535  1.4015  0.0330
  151TIP3    H2  418   6.934   2.060   1.235  1.1637  0.3516  0.2748
  152TIP3   OH2  419   5.046   4.290   1.501  0.1942  0.1459  0.0444
  152TIP3    H1  420   4.974   4.316   1.443 -0.3952  1.7837  1.4091
  152TIP3    H2  421   5.111   4.359   1.492  1.9535 -1.6003 -1.6034
  153TIP3   OH2  422   0.346   3.316   5.242 -0.4264 -0.0910  0.3141
  153TIP3    H1  423   0.258   3.346   5.220 -1.0076 -1.9479  0.0030
  153TIP3    H2  424   0.381   3.385   5.299 -2.5416  0.0959  1.4699
  154TIP3   OH2  425   2.295   6.072   1.693  0.2225  0.3444  0.0740
  154TIP3    H1  426   2.249   6.156   1.689  1.4246  0.9822 -0.6613
  154TIP3    H2  427   2.285   6.044   1.784 -2.0120  0.2155 -0.1554
  155TIP3   OH2  428   5.691   4.414   4.334 -0.4666 -0.0487 -0.1861
  155TIP3    H1  429   5.772   4.396   4.288  0.0161  1.3511  0.0624
  155TIP3    H2  430   5.707   4.383   4.423 -0.4229 -0.2993 -0.2796
  156TIP3   OH2  431   1.135   1.057   4.711 -0.2972 -0.0595  0.1501
  156TIP3    H1  432   1.151   1.102   4.628  0.3583 -0.2660  0.1584
  156TIP3    H2  433   1.061   0.999   4.694  0.1947 -0.5173 -0.4491
  157TIP3   OH2  434   1.513   4.280   4.733 -0.2268 -0.1366  0.2048
  157TIP3    H1  435   1.530   4.261   4.825 -3.3389 -0.6490  0.7685
  157TIP3    H2  436   1.492   4.196   4.694 -0.1059  0.2433 -0.7202
  158TIP3   OH2  437   1.097   4.235   5.221  0.0173  0.0379 -0.6133
  158TIP3    H1  438   1.090   4.193   5.307 -1.1138  1.6566  0.1276
  158TIP3    H2  439   1.183   4.277   5.223  0.5223 -0.9392 -0.7900
  159TIP3   OH2  440   1.153   2.557   1.689 -0.1298 -0.6124  0.3853
  159TIP3    H1  441   1.242   2.522   1.690 -0.7749 -2.3578  1.7381
  159TIP3    H2  442   1.113   2.524   1.769 -1.9121  0.3868 -0.0333
  160TIP3   OH2  443   5.004   5.836   2.826 -0.5098  0.1686  0.2760
  160TIP3    H1  444   5.045   5.792   2.751  0.2845  0.9811  0.2207
  160TIP3    H2  445   5.010   5.771   2.897  2.1424  0.6867  0.6543
  161TIP3   OH2  446   4.354   2.744   0.220 -0.4600 -0.3452  0.2674
  161TIP3    H1  447   4.332   2.658   0.184 -3.3076  0.3463  0.0937
  161TIP3    H2  448   4.321   2.806   0.154  1.2679  0.9095  0.5227
  162TIP3   OH2  449   4.556   0.043   2.159 -0.3337  0.1760 -0.0997
  162TIP3    H1  450   4.475  -0.007   2.169 -1.1580  1.6642  1.1288
  162TIP3    H2  451   4.563   0.058   2.065 -2.7152  1.8820 -0.0810
  163TIP3   OH2  452   6.284   2.520   5.386 -0.0183 -0.1528 -0.6291
  163TIP3    H1  453   6.311   2.444   5.438 -0.0230  0.2803  0.0272
  163TIP3    H2  454   6.359   2.579   5.390 -0.5857  0.5304  0.1619
  164TIP3   OH2  455   1.474   5.389   4.944  0.2267 -0.6717  0.1298
  164TIP3    H1  456   1.446   5.444   5.018  0.4651  2.1714 -1.7493
  164TIP3    H2  457   1.539   5.330   4.982  0.3487  0.6832  2.2107
  165TIP3   OH2  458   0.086   3.096   5.246  0.1791 -0.5627 -0.6629
  165TIP3    H1  459   0.075   3.191   5.241  0.8665 -0.5033 -1.2020
  165TIP3    H2  460   0.007   3.065   5.290  0.9088  0.4692  1.4822
  166TIP3   OH2  461   2.024   4.456   4.945  0.5672 -0.2050  0.4168
  166TIP3    H1  462   2.061   4.525   4.890  1.9673 -1.0171  0.3080
  166TIP3    H2  463   2.083   4.450   5.019 -0.2611 -0.4205  1.0743
  167TIP3   OH2  464   6.480   4.600   4.082 -0.2058 -0.0127 -0.0254
  167TIP3    H1  465   6.402   4.572   4.130 -0.6901  2.2781  0.6558
  167TIP3    H2  466   6.490   4.535   4.011 -0.0875 -2.9002  2.4314
  168TIP3   OH2  467   7.047   5.532   2.287  0.0246 -1.0643  0.2165
  168TIP3    H1  468   6.956   5.553   2.307  0.4154  2.3285 -1.0269
  168TIP3    H2  469   7.089   5.616   2.270  3.5599 -2.4482  1.1300
  169TIP3   OH2  470   3.779   4.899   4.580  0.4772  0.6747  0.2647
  169TIP3    H1  471   3.757   4.991   4.593  0.0682  0.6605 -0.2882
  169TIP3    H2  472   3.794   4.865   4.668  1.6195  1.5070  0.4103
  170TIP3   OH2  473   0.741   1.279   4.553  0.1165  0.6084 -0.0380
  170TIP3    H1  474   0.688   1.359   4.554  0.4798  0.8736 -1.2649
  170TIP3    H2  475   0.823   1.304   4.596 -0.8001  0.1206  2.1353
  171TIP3   OH2  476   3.911   5.503   2.469 -0.5927  0.3548 -0.5268
  171TIP3    H1  477   3.928   5.574   2.408 -1.6813  0.4432 -0.7438
  171TIP3    H2  478   3.867   5.545   2.543 -1.9949 -0.2001 -1.0214
  172TIP3   OH2  479   4.404   5.412   3.761  0.4037 -0.3805 -0.5001
  172TIP3    H1  480   4.321   5.409   3.808  0.7403  0.3154  0.1554
  172TIP3    H2  481   4.403   5.333   3.706 -0.2595 -0.9007  0.2306
  173TIP3   OH2  482   2.202   4.925   1.265 -0.6965 -0.0789 -0.1427
  173TIP3    H1  483   2.231   4.994   1.206  0.4449 -0.3502  0.0780
  173TIP3    H2  484   2.165   4.971   1.340 -1.1180  0.2710 -0.5592
  174TIP3   OH2  485   6.907   5.904   0.135 -0.2324 -0.6721 -0.1491
  174TIP3    H1  486   6.928   5.855   0.215  0.3726 -1.1514 -0.5966
  174TIP3    H2  487   6.923   5.996   0.158  1.5169 -0.9434 -0.2023
  175TIP3   OH2  488   2.576   1.132   1.592  0.6927 -0.3530  0.1301
  175TIP3    H1  489   2.585   1.225   1.612 -0.2721  0.3967 -2.4606
  175TIP3    H2  490   2.582   1.088   1.677 -1.0484  2.2231  1.7157
  176TIP3   OH2  491   0.771   4.698   1.259  0.0662 -0.7752  0.5452
  176TIP3    H1  492   0.850   4.644   1.258  0.5417 -0.0961  0.7138
  176TIP3    H2  493   0.770   4.736   1.347  1.4607  1.9576 -0.5287
  177TIP3   OH2  494   6.651   1.340   0.249 -0.3360  0.1619  0.0318
  177TIP3    H1  495   6.601   1.307   0.175 -0.4576  2.1982 -0.8614
  177TIP3    H2  496   6.596   1.409   0.287  1.0682  1.3410  0.0102
  178TIP3   OH2  497   1.404   1.244   2.534 -0.3845  0.0840 -0.1443
  178TIP3    H1  498   1.423   1.303   2.461 -0.1316 -2.2113 -2.0675
  178TIP3    H2  499   1.481   1.249   2.590  0.2610  0.4859 -1.0505
  179TIP3   OH2  500   3.239   4.336   0.974  0.2434 -0.8078 -0.0917
  179TIP3    H1  501   3.174   4.399   0.943  2.6743  1.8813 -0.1334
  179TIP3    H2  502   3.281   4.304   0.894 -0.7609 -2.3536 -0.0484
  180TIP3   OH2  503   4.447   3.539   5.536 -0.2906 -0.2496 -0.4324
  180TIP3    H1  504   4.504   3.497   5.471 -0.3487 -3.1064  1.2384
  180TIP3    H2  505   4.365   3.491   5.531 -0.6209  0.1234  1.1145
  181TIP3   OH2  506   4.320   3.349   1.650 -0.5447 -0.0652  0.0721
  181TIP3    H1  507   4.319   3.396   1.734  0.1241 -1.9777  1.2174
  181TIP3    H2  508   4.231   3.359   1.617 -0.8499  0.6848  1.0568
  182TIP3   OH2  509   4.922   1.201   3.277 -0.0650  0.1443  0.5482
  182TIP3    H1  510   4.988   1.264   3.249 -1.2271  0.4775 -1.7130
  182TIP3    H2  511   4.850   1.255   3.311 -0.0363 -0.0853  0.9690
  183TIP3   OH2  512   1.252   6.697   0.154 -0.4129  0.2290  0.0329
  183TIP3    H1  513   1.241   6.779   0.203  2.2305 -0.0195  1.2332
  183TIP3    H2  514   1.310   6.721   0.082  0.4581 -0.5571  0.4489
  184TIP3   OH2  515   2.882   4.323   2.152 -0.0691 -0.8654 -0.2144
  184TIP3    H1  516   2.959   4.327   2.210  1.1590  0.4623 -1.8547
  184TIP3    H2  517   2.907   4.260   2.085 -1.4168 -2.2573  0.5232
  185TIP3   OH2  518   0.684   1.843   0.091 -0.2055  0.3354  0.2472
  185TIP3    H1  519   0.639   1.820   0.172  2.1600 -0.5822  1.4009
  185TIP3    H2  520   0.770   1.802   0.099  2.0369  4.3905 -0.4053
  186TIP3   OH2  521   4.360   0.130   1.622  0.4721 -0.1373  0.1990
  186TIP3    H1  522   4.396   0.088   1.545  0.4151  0.8691 -0.3936
  186TIP3    H2  523   4.275   0.164   1.594  0.1880 -0.2649  0.8709
  187TIP3   OH2  524   3.603   6.459   1.259 -1.0257 -0.0751 -0.1759
  187TIP3    H1  525   3.555   6.525   1.308  0.0407  1.3445 -0.9609
  187TIP3    H2  526   3.558   6.377   1.277 -1.0003  0.4653  2.7316
  188TIP3   OH2  527   4.172   4.578   3.117 -0.7632  0.2844 -0.6785
  188TIP3    H1  528   4.141   4.504   3.065 -2.2562  0.4719 -0.0832
  188TIP3    H2  529   4.222   4.631   3.055  0.6173 -1.3426 -1.0509
  189TIP3   OH2  530   7.046   2.965   5.523 -0.5834 -0.1887  0.6036
  189TIP3    H1  531   7.123   2.909   5.518 -0.9885 -0.6665 -0.2622
  189TIP3    H2  532   6.972   2.907   5.510 -1.1400  0.2073  1.7839
  190TIP3   OH2  533   5.325   0.129   1.352 -0.2447 -0.5930 -0.2456
  190TIP3    H1  534   5.308   0.147   1.259  2.1181  0.4021 -0.5461
  190TIP3    H2  535   5.372   0.045   1.352 -0.4161 -0.6893  0.0682
  191TIP3   OH2  536   6.206   3.171   3.759 -0.9212  0.1448  0.7472
  191TIP3    H1  537   6.301   3.184   3.748 -1.0199  0.9587  0.7816
  191TIP3    H2  538   6.196   3.140   3.849 -0.5635 -1.4979  0.2632
  192TIP3   OH2  539   2.928   5.871   3.173 -0.7308  0.2344 -0.3538
  192TIP3    H1  540   2.969   5.928   3.238  0.9814 -1.3934  0.0968
  192TIP3    H2  541   2.950   5.911   3.089 -1.1857  1.2360 -0.0157
  193TIP3   OH2  542   3.638   0.091   1.158 -0.3862  0.3825 -0.6529
  193TIP3    H1  543   3.657   0.182   1.139 -1.0152  0.8410  0.7602
  193TIP3    H2  544   3.560   0.071   1.106  0.3256  0.3285 -1.7255
  194TIP3   OH2  545   2.791   6.009   2.247  0.6138 -0.0887  0.1535
  194TIP3    H1  546   2.859   6.060   2.204 -1.5355  3.1256  0.2001
  194TIP3    H2  547   2.751   5.958   2.177  0.1384  1.5747 -0.8557
  195TIP3   OH2  548   5.420   4.124   3.482 -0.3745  0.1661  0.2768
  195TIP3    H1  549   5.459   4.039   3.460 -1.3927 -0.3457  0.3776
  195TIP3    H2  550   5.327   4.105   3.494 -0.4136  1.0663  1.5695
  196TIP3   OH2  551   2.670   6.463   2.325 -0.0499  0.8501 -0.1087
  196TIP3    H1  552   2.734   6.439   2.391  0.3051 -0.1915 -0.8016
  196TIP3    H2  553   2.706   6.541   2.283 -0.3448  1.5912  1.0028
  197TIP3   OH2  554   3.886   1.572   0.800  0.2233  0.5920 -0.2100
  197TIP3    H1  555   3.834   1.595   0.877  1.4877  1.3697  0.4416
  197TIP3    H2  556   3.833   1.602   0.726 -1.2652 -0.6546  0.2858
  198TIP3   OH2  557   2.706   3.279   5.625 -0.0306  1.0712  0.0410
  198TIP3    H1  558   2.656   3.207   5.586  1.5670 -1.3369  2.0807
  198TIP3    H2  559   2.641   3.334   5.668 -1.1497 -0.5693  0.5298
  199TIP3   OH2  560   1.967   0.854   5.888 -0.0720 -0.2004  0.2332
  199TIP3    H1  561   1.947   0.854   5.794  1.7806 -0.1306 -0.1976
  199TIP3    H2  562   1.886   0.882   5.929 -1.0033 -0.4548 -1.3295
  200TIP3   OH2  563   6.906   6.418   5.228  0.0326  0.0633  0.5032
  200TIP3    H1  564   6.812   6.411   5.211  0.3166  1.6725 -2.1290
  200TIP3    H2  565   6.914   6.493   5.287 -0.3311 -0.0814  0.7405
  201TIP3   OH2  566   1.774   4.206   3.409  0.2320  0.2627 -0.0114
  201TIP3    H1  567   1.747   4.148   3.481  0.1129 -1.3322 -1.2791
  201TIP3    H2  568   1.704   4.271   3.404 -0.4767 -0.4342  0.4301
  202TIP3   OH2  569   3.121   2.043   0.294  0.3744  0.1472  0.2638
  202TIP3    H1  570   3.214   2.033   0.275  0.3237 -0.2051  0.1931
  202TIP3    H2  571   3.087   1.953   0.294  0.1785  0.2162  1.0379
  203TIP3   OH2  572   3.500   5.188   1.330  0.4538  0.1554 -0.5429
  203TIP3    H1  573   3.509   5.126   1.402 -0.8132 -1.1196 -1.4335
  203TIP3    H2  574   3.442   5.256   1.363  0.4962 -0.0187 -0.1077
  204TIP3   OH2  575   6.027   0.654   3.966  0.5366 -0.2587  0.1775
  204TIP3    H1  576   5.932   0.643   3.960  0.4058  0.6002  0.5835
  204TIP3    H2  577   6.049   0.626   4.055  0.5346  0.4416  0.3971
  205TIP3   OH2  578   5.216   4.678   0.396 -0.6310 -0.4925  0.6664
  205TIP3    H1  579   5.149   4.723   0.447  0.2820 -1.2533  2.6231
  205TIP3    H2  580   5.295   4.680   0.451  0.4904 -1.1020 -0.8325
  206TIP3   OH2  581   1.540   3.592   1.895  0.2670  0.2804  0.3976
  206TIP3    H1  582   1.549   3.687   1.902  3.3364  0.1066  0.0731
  206TIP3    H2  583   1.629   3.558   1.906 -0.4192 -2.4475 -1.3898
  207TIP3   OH2  584   1.949   2.111   2.045 -0.4171 -1.0934 -0.1527
  207TIP3    H1  585   1.983   2.034   2.000 -2.4875 -2.0229 -0.2076
  207TIP3    H2  586   2.013   2.180   2.026 -0.5401 -1.7388 -3.4875
  208TIP3   OH2  587   6.857   3.597   0.795  0.2825 -0.2067 -0.6927
  208TIP3    H1  588   6.901   3.571   0.714 -1.0318  1.0922 -1.9129
  208TIP3    H2  589   6.791   3.530   0.809  1.3788 -1.1458  0.0749
  209TIP3   OH2  590   4.975   5.305   3.267  0.6091 -0.0298  0.3569
  209TIP3    H1  591   4.965   5.215   3.297 -0.2585  0.2286  0.8764
  209TIP3    H2  592   4.920   5.312   3.189  1.8243 -0.3372 -0.5498
  210TIP3   OH2  593   6.091   0.756   3.328  0.0649 -0.6092 -0.1253
  210TIP3    H1  594   6.047   0.804   3.258  2.1407 -0.9387 -1.7863
  210TIP3    H2  595   6.123   0.824   3.387  0.2998 -0.1299 -0.7893
  211TIP3   OH2  596   4.076   2.799   1.879 -0.4721  0.0736 -0.1538
  211TIP3    H1  597   4.158   2.828   1.920  0.2609  0.4520 -1.8206
  211TIP3    H2  598   4.090   2.706   1.862  0.2735  0.4539 -1.8397
  212TIP3   OH2  599   6.307   1.044   3.465  0.3543  0.0762 -0.3281
  212TIP3    H1  600   6.259   0.974   3.508  1.8107  0.6568  2.4616
  212TIP3    H2  601   6.392   1.004   3.443  0.9333  0.7349  0.6465
  213TIP3   OH2  602   1.568   5.049   3.322  0.3148 -0.6748 -0.1607
  213TIP3    H1  603   1.663   5.039   3.329  0.4058 -0.0736 -0.5189
  213TIP3    H2  604   1.555   5.137   3.286 -0.4591  0.3753  2.4548
  214TIP3   OH2  605   5.070   3.253   4.861  0.0991  0.4727  0.6477
  214TIP3    H1  606   5.134   3.222   4.926  1.7296 -0.3605 -1.2259
  214TIP3    H2  607   4.992   3.202   4.878  1.8656 -2.9740 -0.6498
  215TIP3   OH2  608   5.349   2.643   1.848  0.6448 -0.3663 -0.8720
  215TIP3    H1  609   5.382   2.705   1.783 -1.4614  1.7110 -0.1027
  215TIP3    H2  610   5.282   2.593   1.801 -0.1078  0.3899 -0.6394
  216TIP3   OH2  611   3.079   6.494   0.123 -0.6610 -0.1472 -0.1249
  216TIP3    H1  612   3.033   6.411   0.113 -1.5090  0.4380 -1.2977
  216TIP3    H2  613   3.014   6.561   0.102  0.9849  0.6884 -3.1435
  217TIP3   OH2  614   4.399   6.160   4.383  0.4002  0.2523  0.3803
  217TIP3    H1  615   4.426   6.223   4.316 -2.6386  0.2463 -1.0364
  217TIP3    H2  616   4.305   6.172   4.391  0.1420 -2.1145  2.2359
  218TIP3   OH2  617   3.168   3.598   0.322 -0.0772  0.0602 -0.7915
  218TIP3    H1  618   3.112   3.668   0.356 -1.0342 -1.7742  1.7219
  218TIP3    H2  619   3.113   3.553   0.258 -1.1421 -0.9968  0.7924
  219TIP3   OH2  620   4.549   1.586   1.652  0.2072  0.4310 -0.2907
  219TIP3    H1  621   4.643   1.585   1.636  0.5066  1.2239  1.2475
  219TIP3    H2  622   4.513   1.527   1.585  1.6416  1.0821 -1.7137
  220TIP3   OH2  623   2.807   3.555   2.246 -0.2813 -0.1342  0.2588
  220TIP3    H1  624   2.766   3.615   2.308  0.3898  1.0628 -0.4207
  220TIP3    H2  625   2.901   3.574   2.253 -0.1020 -0.7840 -0.2963
  221TIP3   OH2  626   6.276   0.180   5.087 -0.2411  0.0093 -0.5495
  221TIP3    H1  627   6.256   0.257   5.141 -0.8699 -0.7678  0.3519
  221TIP3    H2  628   6.366   0.157   5.111  0.3045  1.0070 -1.5270
  222TIP3   OH2  629   3.878   4.238   5.784 -0.0068  0.2077  0.2343
  222TIP3    H1  630   3.918   4.305   5.840  1.9197  0.8681 -1.7763
  222TIP3    H2  631   3.860   4.283   5.701 -0.6739 -1.2511 -0.4524
  223TIP3   OH2  632   6.232   4.447   2.916  0.2616  0.7327 -0.0507
  223TIP3    H1  633   6.148   4.482   2.947  1.0192  1.6376  1.0323
  223TIP3    H2  634   6.227   4.353   2.935 -0.5233  0.7632 -0.0620
  224TIP3   OH2  635   2.056   6.575   0.461 -0.2084 -0.1286  0.0523
  224TIP3    H1  636   2.102   6.568   0.378  0.3292 -2.1341  0.4689
  224TIP3    H2  637   1.994   6.647   0.448  1.1048  0.8104 -1.4404
  225TIP3   OH2  638   4.424   0.332   1.227  0.1640  0.6592  0.2172
  225TIP3    H1  639   4.484   0.395   1.189  1.2836 -0.6876 -0.3232
  225TIP3    H2  640   4.380   0.292   1.151 -0.1407  0.4108  0.5188
  226TIP3   OH2  641   4.936   5.865   2.108 -0.5520  0.2076 -0.0423
  226TIP3    H1  642   4.977   5.877   2.022 -1.1763  0.2615 -0.3322
  226TIP3    H2  643   4.981   5.788   2.145 -0.7403 -0.2266 -0.6985
  227TIP3   OH2  644   2.519   3.989   2.657 -0.2099  0.7528 -0.2148
  227TIP3    H1  645   2.555   4.077   2.651 -1.3833  1.2227 -0.6179
  227TIP3    H2  646   2.586   3.933   2.616 -1.4826  2.0420 -4.6572
  228TIP3   OH2  647   1.396   5.108   1.323 -0.0772  0.1366 -0.5674
  228TIP3    H1  648   1.398   5.013   1.312 -0.1099  0.0495  0.1763
  228TIP3    H2  649   1.303   5.131   1.317 -0.3436 -0.1811  1.6933
  229TIP3   OH2  650   7.108   4.108   4.120  0.5302 -0.2452  0.8515
  229TIP3    H1  651   7.182   4.168   4.128 -0.1241  0.5517  1.0503
  229TIP3    H2  652   7.034   4.156   4.157 -0.0947 -1.0154  0.6227
  230TIP3   OH2  653   6.358   3.486   0.363 -0.0315  0.1156 -0.9002
  230TIP3    H1  654   6.447   3.477   0.328 -0.3799 -0.8484 -1.5868
  230TIP3    H2  655   6.321   3.398   0.356  0.9011 -1.1437  4.8535
  231TIP3   OH2  656   1.979   6.401   3.341 -0.2752 -0.0925  0.0500
  231TIP3    H1  657   1.983   6.418   3.247 -0.8419 -0.1786  0.0098
  231TIP3    H2  658   1.886   6.408   3.363 -0.2260 -0.7221  0.4848
  232TIP3   OH2  659   6.439   5.953   3.766  0.8286  0.1623 -0.1095
  232TIP3    H1  660   6.518   5.929   3.717  0.0846  1.7994 -2.3175
  232TIP3    H2  661   6.377   5.979   3.698 -1.6329 -1.0203  1.5667
  233TIP3   OH2  662   5.373   1.760   4.591 -0.3000  0.1884  0.3249
  233TIP3    H1  663   5.361   1.684   4.535 -0.4514  1.3432 -1.2745
  233TIP3    H2  664   5.358   1.835   4.534  2.9173  1.5358  1.0076
  234TIP3   OH2  665   0.140   3.613   3.640 -0.5067  0.4955 -0.3518
  234TIP3    H1  666   0.054   3.591   3.603  0.1909 -0.9755 -1.1846
  234TIP3    H2  667   0.188   3.531   3.638  0.3539  0.8815  1.7652
  235TIP3   OH2  668   3.064   1.000   5.329  0.0039  0.3548  0.5786
  235TIP3    H1  669   3.024   0.998   5.242 -1.0939 -1.3285  1.0660
  235TIP3    H2  670   3.058   1.091   5.356 -1.7515  0.5158 -0.1858
  236TIP3   OH2  671   2.876   3.009   5.645  0.5687  0.0495 -0.8667
  236TIP3    H1  672   2.861   3.021   5.552  0.2327  0.7187 -0.7348
  236TIP3    H2  673   2.796   2.967   5.677  0.6133 -0.0245 -0.8528
  237TIP3   OH2  674   1.704   3.942   0.859  0.1263  0.1921 -0.0463
  237TIP3    H1  675   1.780   3.884   0.860  0.7217  0.9676  0.3216
  237TIP3    H2  676   1.678   3.950   0.950  1.2817  2.0641  0.1710
  238TIP3   OH2  677   2.155   1.095   4.571 -0.5289  0.5577 -0.1729
  238TIP3    H1  678   2.101   1.090   4.491 -1.2835 -0.2771  0.3741
  238TIP3    H2  679   2.107   1.043   4.635  0.2863  0.8845  0.7131
  239TIP3   OH2  680   1.039   6.666   5.849  0.0091 -0.5250  0.5317
  239TIP3    H1  681   1.072   6.622   5.771 -0.8311 -1.9382  0.9488
  239TIP3    H2  682   0.997   6.745   5.816 -1.0017 -1.4828 -0.5409
  240TIP3   OH2  683   0.078   1.457   4.595 -0.1354  0.1260  0.8895
  240TIP3    H1  684   0.119   1.371   4.598 -0.0761  0.1072 -0.1589
  240TIP3    H2  685   0.105   1.499   4.677  1.8856  0.0497  0.3283
  241TIP3   OH2  686   3.421   2.960   0.091 -0.0118  0.2612 -0.5597
  241TIP3    H1  687   3.488   2.891   0.095  0.0284  0.2096 -1.8650
  241TIP3    H2  688   3.449   3.024   0.157  1.8273  0.6643 -1.6586
  242TIP3   OH2  689   0.861   4.925   1.413  0.5826 -0.6157 -0.3548
  242TIP3    H1  690   0.852   4.992   1.345  1.7634 -1.3962 -1.3238
  242TIP3    H2  691   0.937   4.874   1.386  1.0179 -1.0244  1.5126
  243TIP3   OH2  692   2.711   4.681   4.081 -0.2569 -0.0639 -0.2085
  243TIP3    H1  693   2.763   4.679   4.161  1.3836  0.1595 -1.2283
  243TIP3    H2  694   2.670   4.595   4.077  0.7667 -0.5808  0.1685
  244TIP3   OH2  695   3.813   2.520   2.920  0.5215 -0.2363 -0.1951
  244TIP3    H1  696   3.861   2.440   2.901 -1.7984 -1.7811  0.0843
  244TIP3    H2  697   3.776   2.546   2.836 -0.7539 -0.8878  0.1474
  245TIP3   OH2  698   6.537   6.211   2.146 -0.1702 -0.4621 -0.3336
  245TIP3    H1  699   6.463   6.205   2.207 -0.5692 -1.8952 -0.9099
  245TIP3    H2  700   6.514   6.283   2.087 -0.1981  0.3486  0.6407
  246TIP3   OH2  701   7.000   5.675   5.809 -0.6997 -0.8027 -0.4864
  246TIP3    H1  702   6.985   5.705   5.720  0.9665 -0.3956 -0.6706
  246TIP3    H2  703   6.954   5.738   5.865  0.6429  0.6840 -0.9745
  247TIP3   OH2  704   0.867   5.324   0.533  0.2208 -0.4974 -0.0358
  247TIP3    H1  705   0.841   5.310   0.442  0.6603  0.8774 -0.4126
  247TIP3    H2  706   0.838   5.413   0.553  1.4840 -0.2041  0.6595
  248TIP3   OH2  707   0.462   5.492   4.360  0.0939 -0.1606  0.1191
  248TIP3    H1  708   0.483   5.498   4.267  0.3576 -0.1451  0.1776
  248TIP3    H2  709   0.377   5.448   4.363  0.1426 -0.2734 -0.1224
  249TIP3   OH2  710   5.085   4.261   2.742  0.5080 -0.1903  0.3718
  249TIP3    H1  711   5.117   4.290   2.828  1.3418  1.9231 -0.5827
  249TIP3    H2  712   5.134   4.314   2.679  0.1421 -1.9085 -1.4500
  250TIP3   OH2  713   5.736   4.010   4.249 -0.2138  0.0329 -0.4889
  250TIP3    H1  714   5.715   3.934   4.302 -1.2509  0.8747  0.3524
  250TIP3    H2  715   5.701   3.989   4.162  0.3412 -0.8200 -0.5159
  251TIP3   OH2  716   1.363   2.870   3.664 -0.1576 -0.1842  0.1335
  251TIP3    H1  717   1.291   2.855   3.725 -0.3166  0.4364  0.0994
  251TIP3    H2  718   1.441   2.876   3.719 -0.4592  1.6435  0.4160
  252TIP3   OH2  719   1.358   0.136   4.782  0.1722  0.2048  0.4210
  252TIP3    H1  720   1.286   0.189   4.814  0.3346  0.3524  0.5469
  252TIP3    H2  721   1.393   0.092   4.860 -1.7057 -2.2876 -0.0370
  253TIP3   OH2  722   2.805   5.102   1.373  0.2039 -0.2641 -0.0408
  253TIP3    H1  723   2.750   5.110   1.450 -0.8292 -0.8832 -0.6935
  253TIP3    H2  724   2.867   5.175   1.380 -1.1550  0.9004  0.3240
  254TIP3   OH2  725   3.696   3.675   5.290 -0.1445  0.0502 -0.2905
  254TIP3    H1  726   3.689   3.750   5.231  3.4487  1.5821  0.9386
  254TIP3    H2  727   3.607   3.658   5.319 -1.2428  3.0134 -1.6156
  255TIP3   OH2  728   0.945   3.707   0.306 -0.4475 -0.3407  0.2571
  255TIP3    H1  729   0.971   3.644   0.373  0.7257  0.7570  0.8944
  255TIP3    H2  730   1.015   3.773   0.307 -1.5132  0.8508 -0.5207
  256TIP3   OH2  731   2.617   4.399   0.807 -0.4325  0.0398 -0.1993
  256TIP3    H1  732   2.602   4.306   0.825  1.3964  0.1019  2.3345
  256TIP3    H2  733   2.538   4.443   0.838 -0.9889 -0.6015 -0.6906
  257TIP3   OH2  734   5.231   4.514   4.114  0.4535 -0.2358 -0.0386
  257TIP3    H1  735   5.234   4.471   4.199  0.8425 -0.4241 -0.1483
  257TIP3    H2  736   5.313   4.562   4.108  2.5410 -3.6700 -2.1009
  258TIP3   OH2  737   6.800   2.385   4.977 -0.1785 -0.1811 -0.0273
  258TIP3    H1  738   6.715   2.357   4.943 -0.0722 -1.0906  0.4056
  258TIP3    H2  739   6.856   2.392   4.900 -0.4084 -0.4897 -0.2246
  259TIP3   OH2  740   0.802   1.497   5.438  0.1010 -0.0405 -0.3504
  259TIP3    H1  741   0.812   1.577   5.386 -1.4156  0.0137 -0.6265
  259TIP3    H2  742   0.800   1.427   5.373 -0.9791 -0.0485 -0.3317
  260TIP3   OH2  743   1.450   2.010   0.513  0.7155 -0.3167 -0.0440
  260TIP3    H1  744   1.466   2.067   0.588 -1.0849 -0.8356  0.8032
  260TIP3    H2  745   1.354   2.005   0.508  0.7772  0.0707 -2.6786
  261TIP3   OH2  746   0.981   6.420   0.667  0.5133 -1.0380  0.1328
  261TIP3    H1  747   1.076   6.413   0.654  0.6207 -0.5211  0.5734
  261TIP3    H2  748   0.948   6.453   0.583  0.7176 -1.2789 -0.0423
  262TIP3   OH2  749   3.974   1.035   2.898  0.2979  0.1122 -0.2948
  262TIP3    H1  750   4.068   1.040   2.917  0.4941 -0.1049 -1.1655
  262TIP3    H2  751   3.932   1.064   2.979  1.1352  2.4964 -0.6463
  263TIP3   OH2  752   4.540   2.041   3.404  0.3988 -0.0588 -0.1453
  263TIP3    H1  753   4.618   2.069   3.453 -0.4765  0.3915  1.0346
  263TIP3    H2  754   4.541   1.945   3.411  1.8451 -0.2220 -1.7660
  264TIP3   OH2  755   0.753   6.771   0.912 -0.1762  0.0411 -0.0143
  264TIP3    H1  756   0.686   6.828   0.950  2.6336  3.0177  0.9384
  264TIP3    H2  757   0.748   6.691   0.964 -3.4478 -0.2377 -0.5547
  265TIP3   OH2  758   1.765   1.380   3.067 -1.0403 -0.3349  0.1483
  265TIP3    H1  759   1.680   1.364   3.109 -2.3356  2.5017 -1.1066
  265TIP3    H2  760   1.801   1.455   3.114 -0.1655 -0.2690 -0.6048
  266TIP3   OH2  761   6.701   1.066   3.330 -0.2629 -0.0670  0.2325
  266TIP3    H1  762   6.792   1.092   3.343 -0.1197  0.7638 -1.9388
  266TIP3    H2  763   6.651   1.147   3.340 -0.3788  0.1323 -1.6102
  267TIP3   OH2  764   4.942   3.134   4.199 -0.0075  0.0062 -0.4588
  267TIP3    H1  765   4.966   3.070   4.267 -0.2316  0.0679 -0.3196
  267TIP3    H2  766   5.003   3.207   4.212 -2.0816  1.4952  1.8231
  268TIP3   OH2  767   0.286   5.452   3.067 -0.6941  0.5354  0.1036
  268TIP3    H1  768   0.293   5.528   3.124 -2.6522  0.7683  0.0721
  268TIP3    H2  769   0.232   5.390   3.116 -0.6443 -0.1075 -0.6334
  269TIP3   OH2  770   3.305   6.338   1.302 -0.1827 -0.2274 -0.8149
  269TIP3    H1  771   3.324   6.414   1.247 -1.1345 -0.3755 -1.3708
  269TIP3    H2  772   3.217   6.355   1.337  0.5478  0.0428  0.9906
  270TIP3   OH2  773   4.191   4.351   2.572 -0.2572  0.0413  0.5265
  270TIP3    H1  774   4.222   4.415   2.508 -1.4588 -0.1396 -0.2783
  270TIP3    H2  775   4.102   4.330   2.543 -1.0364  0.3459  2.5379
  271TIP3   OH2  776   3.012   3.421   2.720 -0.4351  0.2756  0.2273
  271TIP3    H1  777   3.049   3.354   2.662 -1.7286 -0.8089  0.6028
  271TIP3    H2  778   2.943   3.375   2.768 -0.8214  1.6994  1.0752
  272TIP3   OH2  779   0.887   3.471   4.414  0.4122 -0.2490 -0.3116
  272TIP3    H1  780   0.841   3.521   4.347  0.1230  0.3747  0.3411
  272TIP3    H2  781   0.818   3.420   4.457  0.5309 -0.3189 -0.2034
  273TIP3   OH2  782   5.130   1.873   3.394  0.4020  0.0299 -0.0322
  273TIP3    H1  783   5.135   1.784   3.429 -0.6378  0.6112  1.7559
  273TIP3    H2  784   5.219   1.894   3.369  1.4001 -0.3071  2.8216
  274TIP3   OH2  785   3.141   0.227   0.029  0.2350  0.4860  0.3149
  274TIP3    H1  786   3.054   0.187   0.020 -0.6713  2.5383 -0.5403
  274TIP3    H2  787   3.192   0.162   0.077 -1.0947 -1.7548 -1.1147
  275TIP3   OH2  788   2.778   0.182   3.361 -0.1271  0.0844 -0.0478
  275TIP3    H1  789   2.787   0.127   3.439 -0.7899 -0.4137 -0.3147
  275TIP3    H2  790   2.788   0.121   3.287  0.7158  0.5865 -0.3692
  276TIP3   OH2  791   3.928   3.341   0.624  0.4433 -0.1112 -0.2007
  276TIP3    H1  792   3.914   3.420   0.675  1.6154 -0.3320  0.5143
  276TIP3    H2  793   3.898   3.270   0.680  0.3501 -0.2558 -0.4284
  277TIP3   OH2  794   0.501   1.255   5.447 -0.3688  0.0642  0.5327
  277TIP3    H1  795   0.589   1.279   5.417  0.0625 -1.5087  0.4004
  277TIP3    H2  796   0.500   1.277   5.540  0.7849 -1.3541  0.9327
  278TIP3   OH2  797   1.235   3.502   0.533 -0.3126 -0.4713  0.6751
  278TIP3    H1  798   1.296   3.479   0.462 -0.3298  0.6290  0.2731
  278TIP3    H2  799   1.254   3.440   0.603  2.4262  0.7714  1.1938
  279TIP3   OH2  800   3.499   4.604   0.225  0.6750 -0.0592  0.5197
  279TIP3    H1  801   3.547   4.682   0.253  0.9252 -0.2098  0.5146
  279TIP3    H2  802   3.441   4.635   0.157  0.3231  0.2434  0.9534
  280TIP3   OH2  803   2.379   5.463   2.555  0.6314 -0.5617 -0.9083
  280TIP3    H1  804   2.430   5.511   2.490 -0.1325 -0.4600 -1.4455
  280TIP3    H2  805   2.301   5.434   2.508 -0.7698  0.9502  0.3488
  281TIP3   OH2  806   2.793   3.927   5.854 -0.5347 -0.0707  0.3116
  281TIP3    H1  807   2.861   3.861   5.843  0.6820  1.4441 -1.7890
  281TIP3    H2  808   2.714   3.876   5.876  0.5799 -2.1137 -0.1760
  282TIP3   OH2  809   3.973   5.882   2.815  0.0711  0.1719  0.1698
  282TIP3    H1  810   4.062   5.885   2.779 -0.1204 -3.3858 -0.9869
  282TIP3    H2  811   3.985   5.884   2.910  1.2999  0.5367  0.0206
  283TIP3   OH2  812   0.787   0.997   5.539 -0.1208  0.1365 -0.0342
  283TIP3    H1  813   0.788   1.006   5.634 -0.8195  0.3759 -0.0471
  283TIP3    H2  814   0.696   0.979   5.517 -0.4415  2.3566 -0.8448
  284TIP3   OH2  815   0.723   1.363   0.836 -0.0774  0.6939 -0.4198
  284TIP3    H1  816   0.800   1.359   0.780  0.7788  0.1855  0.7467
  284TIP3    H2  817   0.751   1.321   0.918 -0.4571  3.6067  1.3540
  285TIP3   OH2  818   1.749   4.919   3.598 -0.3364  0.1489 -0.2172
  285TIP3    H1  819   1.801   4.915   3.518 -0.4822  1.2581 -0.3906
  285TIP3    H2  820   1.813   4.916   3.669 -0.0896  0.6594 -0.4134
  286TIP3   OH2  821   0.431   5.548   1.480  0.7016  0.1018 -0.5468
  286TIP3    H1  822   0.499   5.484   1.459  0.4051 -0.1416 -0.7665
  286TIP3    H2  823   0.478   5.630   1.491  1.0846 -0.1528 -0.2641
  287TIP3   OH2  824   7.098   1.723   3.614  0.3698  0.4864 -0.7313
  287TIP3    H1  825   7.069   1.697   3.701 -1.0450 -0.4089 -1.4425
  287TIP3    H2  826   7.191   1.743   3.625  0.7742 -1.7521  0.5528
  288TIP3   OH2  827   3.608   6.348   2.924  0.0523 -0.2331 -0.2355
  288TIP3    H1  828   3.560   6.265   2.924  1.0720 -0.8379 -0.5055
  288TIP3    H2  829   3.539   6.415   2.928 -0.7284 -1.0948  2.2456
  289TIP3   OH2  830   5.174   3.056   2.893 -0.1843 -0.3437 -0.0520
  289TIP3    H1  831   5.105   2.998   2.923 -0.7876  0.0174 -0.7089
  289TIP3    H2  832   5.149   3.142   2.927  1.0375 -0.5369  1.4671
  290TIP3   OH2  833   6.669   2.898   1.444  0.1630 -0.0937  0.5320
  290TIP3    H1  834   6.663   2.803   1.436 -0.2595 -0.4337  3.5249
  290TIP3    H2  835   6.734   2.924   1.378  0.5474 -2.4891 -0.1286
  291TIP3   OH2  836   4.669   4.133   3.884  0.3456 -0.3966  0.0385
  291TIP3    H1  837   4.629   4.053   3.918 -0.5466 -0.4535 -1.0746
  291TIP3    H2  838   4.763   4.118   3.891  0.2154 -0.5709  2.0283
  292TIP3   OH2  839   4.699   4.738   1.943 -0.1107  0.5674  0.4221
  292TIP3    H1  840   4.611   4.770   1.922 -1.1007 -1.2068  1.6085
  292TIP3    H2  841   4.689   4.696   2.029  1.9876  0.6483  0.7467
  293TIP3   OH2  842   5.115   2.339   3.999 -0.0386  0.1359  0.2514
  293TIP3    H1  843   5.114   2.424   4.043  0.9883 -0.2687  1.1168
  293TIP3    H2  844   5.120   2.360   3.906  1.2877  1.0542  0.4963
  294TIP3   OH2  845   6.561   2.269   4.935 -0.5968  0.2926  0.0719
  294TIP3    H1  846   6.473   2.274   4.897 -0.2760 -0.6716 -0.8460
  294TIP3    H2  847   6.549   2.223   5.018 -1.1260  1.3225  0.5943
  295TIP3   OH2  848   1.436   0.772   0.198  0.3745 -0.5091 -0.0354
  295TIP3    H1  849   1.346   0.741   0.207 -0.1260  0.8234 -0.3105
  295TIP3    H2  850   1.443   0.801   0.107  1.9033 -3.0158 -0.8536
  296TIP3   OH2  851   6.547   1.050   1.634  0.0823 -0.1578  0.1650
  296TIP3    H1  852   6.616   0.991   1.662 -0.4007 -0.9079 -0.1739
  296TIP3    H2  853   6.466   1.008   1.665 -0.2824  0.1856 -0.3028
  297TIP3   OH2  854   3.901   0.196   5.464 -0.0561  0.3107  0.1845
  297TIP3    H1  855   3.870   0.286   5.455 -0.6469  0.1408  0.4463
  297TIP3    H2  856   3.977   0.191   5.406  1.9349  1.8562  2.4648
  298TIP3   OH2  857   0.870   3.846   4.346 -0.4805  0.1245  0.3097
  298TIP3    H1  858   0.876   3.832   4.440  0.8967 -0.2493  0.1771
  298TIP3    H2  859   0.813   3.776   4.315  1.4929 -1.6408  0.4775
  299TIP3   OH2  860   1.775   2.436   4.221 -0.0304 -0.3353 -0.2864
  299TIP3    H1  861   1.830   2.513   4.206 -1.4199  0.6545 -0.4003
  299TIP3    H2  862   1.816   2.392   4.296  1.9447 -0.6276 -1.4505
  300TIP3   OH2  863   3.426   0.103   2.657 -0.1816  0.2213 -0.3390
  300TIP3    H1  864   3.517   0.110   2.630 -0.7267 -0.8886 -2.6980
  300TIP3    H2  865   3.406   0.010   2.651 -1.0717  0.2072  1.7770
  301TIP3   OH2  866   1.155   1.600   0.205  0.1586  0.5929  0.4043
  301TIP3    H1  867   1.216   1.534   0.173  0.7407  1.3988 -0.2192
  301TIP3    H2  868   1.199   1.684   0.185 -1.5113  1.2198 -0.8827
  302TIP3   OH2  869   3.827   4.526   4.899 -0.4326  0.1392 -0.2329
  302TIP3    H1  870   3.911   4.483   4.879  0.1064  0.6225  0.9098
  302TIP3    H2  871   3.804   4.494   4.986 -0.4604  1.4961  0.2742
  303TIP3   OH2  872   4.906   1.100   4.306 -0.0160  0.1242 -0.0303
  303TIP3    H1  873   4.998   1.126   4.299 -0.0800  0.5058  0.4705
  303TIP3    H2  874   4.897   1.066   4.394 -0.6466  1.3331  0.4024
  304TIP3   OH2  875   0.937   4.022   4.657 -0.7250 -0.2375 -0.5943
  304TIP3    H1  876   0.902   3.934   4.645 -1.2803  0.1158 -1.7072
  304TIP3    H2  877   0.884   4.077   4.600  0.1594  0.6903 -0.5551
  305TIP3   OH2  878   2.418   3.513   1.604 -0.4109  0.2610 -0.2272
  305TIP3    H1  879   2.504   3.472   1.614  0.3109  1.0459 -2.5778
  305TIP3    H2  880   2.409   3.570   1.680  1.5696  0.8463 -0.3834
  306TIP3   OH2  881   3.439   4.326   0.216 -0.1809  0.2496  0.2414
  306TIP3    H1  882   3.443   4.289   0.304  0.2670  1.4170  0.7234
  306TIP3    H2  883   3.450   4.420   0.228  1.6065  0.2780 -1.1951
  307TIP3   OH2  884   6.191   4.783   4.041 -0.2480  0.7492 -0.0994
  307TIP3    H1  885   6.276   4.822   4.061 -0.2457  0.5116  0.3817
  307TIP3    H2  886   6.131   4.858   4.039  0.0227  0.9511 -0.7477
  308TIP3   OH2  887   6.321   0.123   4.199 -0.5101 -0.0286  0.1005
  308TIP3    H1  888   6.280   0.114   4.112  0.7981 -0.5208 -0.4852
  308TIP3    H2  889   6.287   0.048   4.248 -1.5844  0.4811  0.1716
  309TIP3   OH2  890   3.951   6.286   0.146  0.1657  0.0858  0.1687
  309TIP3    H1  891   3.973   6.325   0.061  0.8263  0.1366  0.3546
  309TIP3    H2  892   4.016   6.217   0.158  0.3425  0.3521  0.8222
  310TIP3   OH2  893   3.490   3.163   1.728  0.1362 -0.0422  0.2287
  310TIP3    H1  894   3.478   3.120   1.643 -1.8806  1.6769 -0.4534
  310TIP3    H2  895   3.406   3.152   1.773  0.5068  0.7897  1.1574
  311TIP3   OH2  896   7.029   1.617   0.672 -0.5857  0.5042  0.2801
  311TIP3    H1  897   7.013   1.701   0.629 -2.1764 -0.8421 -1.9441
  311TIP3    H2  898   7.123   1.603   0.664 -0.0553  2.6086  1.8728
  312TIP3   OH2  899   4.244   6.665   4.178  0.3787 -0.2097  0.4351
  312TIP3    H1  900   4.225   6.735   4.240 -1.1467 -0.0006 -0.2224
  312TIP3    H2  901   4.171   6.667   4.116  0.7317 -1.8452 -0.0886
  313TIP3   OH2  902   5.608   6.015   1.441  0.3855  0.0842  0.5391
  313TIP3    H1  903   5.690   6.045   1.402 -0.4614  2.6132  0.5199
  313TIP3    H2  904   5.614   6.042   1.533 -0.5038  0.5226  0.4800
  314TIP3   OH2  905   1.594   4.610   0.778 -0.2120  0.6726  0.1392
  314TIP3    H1  906   1.533   4.591   0.707  0.3548  1.9527 -0.7423
  314TIP3    H2  907   1.655   4.536   0.777  0.3765  1.1326 -1.4060
  315TIP3   OH2  908   3.787   4.217   4.479 -0.7395  0.1470  0.1113
  315TIP3    H1  909   3.870   4.236   4.434 -0.3892 -0.2579  0.5776
  315TIP3    H2  910   3.754   4.138   4.437 -0.5870 -0.0342  0.3332
  316TIP3   OH2  911   0.632   2.352   4.902  0.5639 -0.5555  0.0383
  316TIP3    H1  912   0.574   2.392   4.836  2.2081  2.1252  0.0326
  316TIP3    H2  913   0.619   2.405   4.980  1.2671 -1.4155  0.7575
  317TIP3   OH2  914   3.083   2.062   5.442 -0.3368  0.2945  0.2437
  317TIP3    H1  915   3.057   2.025   5.526 -0.6613 -0.1566 -0.0500
  317TIP3    H2  916   3.177   2.046   5.437 -0.1842  0.9540  0.8251
  318TIP3   OH2  917   0.888   4.297   0.278  0.5951  0.6384 -0.3430
  318TIP3    H1  918   0.900   4.268   0.369  1.9881  0.4473 -0.5665
  318TIP3    H2  919   0.940   4.235   0.226 -0.1694  0.7563 -1.2750
  319TIP3   OH2  920   2.280   5.528   3.197 -0.0624  0.0053 -0.0572
  319TIP3    H1  921   2.199   5.559   3.157 -0.0020  0.7288  0.3593
  319TIP3    H2  922   2.295   5.442   3.158 -0.5450  0.2537 -0.8124
  320TIP3   OH2  923   6.377   2.507   1.631  0.2715 -0.0493  0.0032
  320TIP3    H1  924   6.366   2.504   1.536  2.4980 -1.1957 -0.2762
  320TIP3    H2  925   6.386   2.600   1.651 -0.3284  0.2123 -0.8733
  321TIP3   OH2  926   5.960   1.384   2.257  0.3803  0.3207  0.3520
  321TIP3    H1  927   6.046   1.397   2.218  0.2134  0.7264  0.1260
  321TIP3    H2  928   5.898   1.414   2.191  0.0975  0.9291  0.8886
  322TIP3   OH2  929   6.499   3.343   1.768 -0.5890  0.4092 -0.9461
  322TIP3    H1  930   6.491   3.416   1.706  1.5023 -0.7625 -2.6800
  322TIP3    H2  931   6.435   3.364   1.837 -1.8960  2.5405 -2.6826
  323TIP3   OH2  932   1.106   2.940   5.101  0.0360  0.1553 -0.0651
  323TIP3    H1  933   1.118   2.848   5.123  0.0667 -0.0536 -0.9463
  323TIP3    H2  934   1.021   2.963   5.138 -0.7283 -0.6778 -1.2624
  324TIP3   OH2  935   7.038   0.693   1.329 -0.2225 -0.1760  0.0240
  324TIP3    H1  936   6.958   0.719   1.282 -0.6128 -0.8261  0.3240
  324TIP3    H2  937   7.009   0.626   1.391  0.8861 -1.8925 -1.2334
  325TIP3   OH2  938   3.030   2.698   2.459  0.6405 -0.0633  0.2092
  325TIP3    H1  939   3.121   2.726   2.462  0.2587  1.2898 -0.3168
  325TIP3    H2  940   2.979   2.776   2.479 -0.4180 -0.8329  0.6761
  326TIP3   OH2  941   5.058   2.931   4.356  0.3896  0.0961  0.1813
  326TIP3    H1  942   5.051   2.979   4.438 -0.3073  0.4722 -0.0872
  326TIP3    H2  943   5.142   2.959   4.319  0.0073  1.1110  0.0441
  327TIP3   OH2  944   3.511   6.665   0.066 -0.1935 -0.1235 -0.1944
  327TIP3    H1  945   3.516   6.752   0.028 -0.4915 -0.7018 -1.6250
  327TIP3    H2  946   3.599   6.630   0.058 -0.2575 -0.2479 -0.3620
  328TIP3   OH2  947   6.916   0.947   0.367 -0.5318 -0.0937  0.1166
  328TIP3    H1  948   6.901   1.039   0.391  1.0521  0.6168 -1.3624
  328TIP3    H2  949   6.996   0.923   0.414  0.0429 -0.1352 -0.8660
  329TIP3   OH2  950   5.009   0.076   1.163  0.2645 -0.1946  0.0533
  329TIP3    H1  951   5.084   0.071   1.104 -1.1291  0.5553 -1.8826
  329TIP3    H2  952   5.042   0.044   1.247  2.7598  0.2531 -0.6903
  330TIP3   OH2  953   1.053   1.076   3.985  0.4521 -0.3553 -0.0582
  330TIP3    H1  954   0.985   1.058   4.049  0.1011  1.4153  0.1238
  330TIP3    H2  955   1.040   1.168   3.961  1.9876 -0.3329 -0.9641
  331TIP3   OH2  956   0.602   2.884   0.030  0.6204  0.2851  0.0124
  331TIP3    H1  957   0.669   2.945   0.061 -0.4158  0.9233  1.0972
  331TIP3    H2  958   0.583   2.829   0.106 -0.7082  0.7043  0.0185
  332TIP3   OH2  959   2.229   1.336   5.131  0.3352 -0.2269 -0.0775
  332TIP3    H1  960   2.311   1.332   5.082 -0.3333  1.3161 -1.4468
  332TIP3    H2  961   2.211   1.430   5.138 -1.4454 -0.5454 -0.0466
  333TIP3   OH2  962   2.201   0.960   0.402 -0.6315 -0.6128 -0.0036
  333TIP3    H1  963   2.279   0.915   0.434 -0.4889 -1.1838 -1.1121
  333TIP3    H2  964   2.130   0.899   0.420 -0.9108  0.0329  1.2893
  334TIP3   OH2  965   3.081   6.050   2.803  0.4421 -0.2669 -0.1020
  334TIP3    H1  966   3.100   6.136   2.842  1.0767 -0.8185  0.8614
  334TIP3    H2  967   3.056   6.069   2.713 -1.1689  1.0905  0.5643
  335TIP3   OH2  968   4.111   2.000   0.116  0.2599 -0.2396 -0.8972
  335TIP3    H1  969   4.183   2.044   0.070  1.4574 -1.3848 -0.1938
  335TIP3    H2  970   4.142   1.991   0.206 -1.4167  0.5991 -0.1996
  336TIP3   OH2  971   1.460   2.343   5.721 -0.5454 -0.2046 -0.3228
  336TIP3    H1  972   1.451   2.310   5.810 -1.0086 -0.5109 -0.4775
  336TIP3    H2  973   1.553   2.363   5.711 -0.2440 -1.4829 -0.2263
  337TIP3   OH2  974   0.905   3.203   1.421 -0.1485  0.2084  0.1235
  337TIP3    H1  975   0.907   3.259   1.343 -1.1686  2.2840  1.4936
  337TIP3    H2  976   0.939   3.259   1.491  0.7191 -1.5989  1.2067
  338TIP3   OH2  977   2.953   2.152   3.410 -0.2716 -0.2822  0.3001
  338TIP3    H1  978   2.924   2.068   3.375  0.2642 -0.4229  0.1786
  338TIP3    H2  979   3.042   2.135   3.441  0.2370  0.4961 -0.6849
  339TIP3   OH2  980   2.767   2.063   3.589 -0.1935 -0.1471  0.4007
  339TIP3    H1  981   2.772   1.970   3.571  0.0811  0.1162 -0.9491
  339TIP3    H2  982   2.819   2.105   3.520 -1.0160  1.0623  0.4785
  340TIP3   OH2  983   3.132   5.704   5.877  0.2803 -0.5269  0.1919
  340TIP3    H1  984   3.088   5.619   5.869  0.4927 -0.5412 -0.9993
  340TIP3    H2  985   3.196   5.704   5.807  1.1190  0.1411  0.9387
  341TIP3   OH2  986   5.563   2.008   4.465  0.2297 -0.1905 -0.3684
  341TIP3    H1  987   5.619   2.072   4.509  0.2432 -0.0511 -0.5846
  341TIP3    H2  988   5.475   2.029   4.497  0.5463 -2.0727  2.0146
  342TIP3   OH2  989   4.124   0.423   4.656  0.2710 -0.6655 -0.2145
  342TIP3    H1  990   4.214   0.415   4.625  0.2377  0.9299 -0.8111
  342TIP3    H2  991   4.086   0.493   4.603 -1.0866 -0.7773  0.5567
  343TIP3   OH2  992   4.001   3.640   4.364 -0.3425  0.1885  0.4774
  343TIP3    H1  993   4.053   3.621   4.442  0.3287 -0.3130 -0.0753
  343TIP3    H2  994   3.964   3.726   4.380 -0.4706 -0.0384  1.4837
  344TIP3   OH2  995   4.417   2.174   4.517 -0.0788 -0.7536  0.3593
  344TIP3    H1  996   4.501   2.168   4.472 -0.2374 -1.4559  0.1445
  344TIP3    H2  997   4.405   2.268   4.532 -0.0967 -0.4737 -1.2126
  345TIP3   OH2  998   1.673   2.455   0.340  0.5677  0.6034 -0.1894
  345TIP3    H1  999   1.747   2.509   0.313 -1.8775  2.9993 -2.8815
  345TIP3    H2 1000   1.617   2.514   0.390 -0.1540 -0.7613  0.6678
  346TIP3   OH2 1001   3.328   4.018   1.856 -0.6304  0.5681  0.1691
  346TIP3    H1 1002   3.329   3.957   1.929 -2.3610 -0.0076 -0.2588
  346TIP3    H2 1003   3.239   4.014   1.821  0.7632 -1.5049 -3.8960
  347TIP3   OH2 1004   1.352   2.398   5.383 -0.6465  0.0715  0.2789
  347TIP3    H1 1005   1.359   2.493   5.380  1.5358 -0.0685 -0.8562
  347TIP3    H2 1006   1.441   2.366   5.369 -1.4685 -2.1495 -0.4300
  348TIP3   OH2 1007   3.711   4.216   5.056  0.3168  0.0709  0.5686
  348TIP3    H1 1008   3.624   4.208   5.095 -0.4240  1.1664 -0.7634
  348TIP3    H2 1009   3.743   4.301   5.086 -0.3936  1.0747 -1.3382
  349TIP3   OH2 1010   0.344   1.871   2.751  0.1243  0.3655  0.0772
  349TIP3    H1 1011   0.425   1.848   2.706 -0.2677  2.2175 -1.7544
  349TIP3    H2 1012   0.367   1.874   2.844  1.3272 -2.1770 -0.0672
  350TIP3   OH2 1013   5.325   5.975   1.420  0.2736 -0.0321 -0.7443
  350TIP3    H1 1014   5.401   6.018   1.459  0.5254 -0.8761 -0.2763
  350TIP3    H2 1015   5.289   5.921   1.490 -1.6178  1.4024 -0.5284
  351TIP3   OH2 1016   7.175   3.188   4.999 -0.5011 -0.1024  0.1660
  351TIP3    H1 1017   7.228   3.124   5.047 -0.4391 -0.0121  0.2177
  351TIP3    H2 1018   7.195   3.170   4.907  0.4982  0.6748  0.2076
  352TIP3   OH2 1019   3.567   6.004   2.387  0.7177 -0.1824 -0.0929
  352TIP3    H1 1020   3.490   6.028   2.438  1.0950  1.5866 -0.3093
  352TIP3    H2 1021   3.532   5.951   2.315  0.0068 -1.4047  1.1059
  353TIP3   OH2 1022   5.229   3.011   4.778 -0.5231 -0.2258  0.4412
  353TIP3    H1 1023   5.245   2.924   4.742  0.8926 -1.0618  2.8710
  353TIP3    H2 1024   5.139   3.031   4.754 -0.6568 -2.0671 -0.7519
  354TIP3   OH2 1025   5.365   3.521   5.066  0.0004 -0.2371 -0.1505
  354TIP3    H1 1026   5.340   3.609   5.091  0.1572 -0.0194 -0.7334
  354TIP3    H2 1027   5.284   3.470   5.073  0.0832 -0.2396  0.9689
  355TIP3   OH2 1028   1.830   4.077   5.691 -0.2622  0.8103 -0.6178
  355TIP3    H1 1029   1.736   4.092   5.707 -0.3353 -0.7248  0.6014
  355TIP3    H2 1030   1.872   4.096   5.774  0.1981 -0.7751 -0.4520
  356TIP3   OH2 1031   0.249   5.826   5.372 -0.2575 -0.2936 -0.2007
  356TIP3    H1 1032   0.184   5.789   5.311  0.2460 -0.7262 -0.4936
  356TIP3    H2 1033   0.222   5.917   5.384  0.5739  0.3154 -2.4250
  357TIP3   OH2 1034   2.334   3.785   4.379 -0.2183 -0.2794  0.6496
  357TIP3    H1 1035   2.305   3.800   4.289 -0.3511  0.8673  0.8743
  357TIP3    H2 1036   2.329   3.871   4.420 -0.1082 -0.7887  1.7417
  358TIP3   OH2 1037   4.295   0.714   3.063  0.2653  0.1093 -0.2620
  358TIP3    H1 1038   4.326   0.743   2.977 -0.8525  1.9432 -0.1080
  358TIP3    H2 1039   4.360   0.748   3.125 -0.3488  1.2333 -0.1965
  359TIP3   OH2 1040   6.089   2.097   0.856  0.0335 -0.9126 -0.1324
  359TIP3    H1 1041   6.062   2.141   0.775  0.1463 -0.7590 -0.0860
  359TIP3    H2 1042   6.163   2.042   0.830  1.6306  0.9377  0.3261
  360TIP3   OH2 1043   4.760   5.661   0.704 -0.0253  0.2147 -0.5150
  360TIP3    H1 1044   4.700   5.604   0.656 -1.3660  1.4670 -0.3894
  360TIP3    H2 1045   4.779   5.612   0.784  0.5430 -0.9625 -1.3451
  361TIP3   OH2 1046   0.490   4.489   3.410  0.3382  0.3901 -0.6817
  361TIP3    H1 1047   0.401   4.461   3.391  0.7973 -1.3965 -0.4206
  361TIP3    H2 1048   0.493   4.496   3.506  1.1712 -2.4582 -0.3830
  362TIP3   OH2 1049   4.221   2.475   0.907  0.3405  0.1370  0.2057
  362TIP3    H1 1050   4.270   2.461   0.826 -0.6560 -0.8348 -0.2617
  362TIP3    H2 1051   4.159   2.544   0.886  1.3480  1.2381  0.7421
  363TIP3   OH2 1052   0.702   3.309   0.287  0.0200 -0.2305 -0.0948
  363TIP3    H1 1053   0.719   3.296   0.194 -0.6374 -0.3705 -0.2027
  363TIP3    H2 1054   0.620   3.360   0.289  0.4235  0.4204  0.3918
  364TIP3   OH2 1055   4.320   6.203   4.032 -0.6861 -0.4838 -0.4879
  364TIP3    H1 1056   4.351   6.287   3.998  0.4616 -1.1199 -1.0624
  364TIP3    H2 1057   4.229   6.219   4.055 -0.1660  1.2583  0.5656
  365TIP3   OH2 1058   4.308   1.403   3.206 -0.2781 -0.4595  0.6623
  365TIP3    H1 1059   4.266   1.486   3.183  0.1369 -0.2365  0.7104
  365TIP3    H2 1060   4.238   1.338   3.198 -0.0135 -0.5316 -1.9572
  366TIP3   OH2 1061   2.043   6.346   0.278  0.3932  0.2614 -0.0577
  366TIP3    H1 1062   1.957   6.343   0.235 -0.1788  1.0328  1.0002
  366TIP3    H2 1063   2.032   6.406   0.351  2.3639  1.8843 -0.9958
  367TIP3   OH2 1064   3.014   0.973   2.962  0.1691  0.2526 -0.7867
  367TIP3    H1 1065   3.096   0.978   2.914  1.3318  1.0154  1.1535
  367TIP3    H2 1066   2.991   1.064   2.980 -1.9079  0.1424 -2.4934
  368TIP3   OH2 1067   4.118   6.596   5.763 -0.7262  0.4348  0.0880
  368TIP3    H1 1068   4.048   6.661   5.758 -0.8086  0.2540 -1.2377
  368TIP3    H2 1069   4.103   6.538   5.689  0.6571  0.2126 -0.0382
  369TIP3   OH2 1070   3.646   6.193   0.984 -0.2659 -0.2565 -0.0135
  369TIP3    H1 1071   3.642   6.237   1.069  1.2328  2.0732 -1.0325
  369TIP3    H2 1072   3.587   6.244   0.928 -0.3019 -1.0096 -0.6833
  370TIP3   OH2 1073   0.806   4.781   3.899 -0.4201  0.2038  0.3597
  370TIP3    H1 1074   0.861   4.726   3.955  0.3715  0.1897 -0.4228
  370TIP3    H2 1075   0.717   4.749   3.916 -0.1945  0.1136  1.5025
  371TIP3   OH2 1076   6.632   2.715   1.724 -0.6104  0.1740  0.0533
  371TIP3    H1 1077   6.609   2.739   1.635 -0.4938 -1.9152 -0.5905
  371TIP3    H2 1078   6.721   2.681   1.718 -0.9390 -0.8673  0.7714
  372TIP3   OH2 1079   4.627   2.370   3.592 -0.4789  0.2049 -0.0494
  372TIP3    H1 1080   4.576   2.382   3.512 -2.0633  1.5747  1.0947
  372TIP3    H2 1081   4.564   2.336   3.656  0.6016 -0.2862  0.7922
  373TIP3   OH2 1082   6.138   0.641   2.903 -0.8642  0.4239  0.3472
  373TIP3    H1 1083   6.173   0.563   2.859 -0.0621  0.5484  0.7507
  373TIP3    H2 1084   6.094   0.607   2.981  2.3787  0.5497  2.4000
  374TIP3   OH2 1085   3.996   1.121   4.054  0.5000 -0.6618 -0.0257
  374TIP3    H1 1086   3.985   1.207   4.014  2.1585 -0.0356  0.7719
  374TIP3    H2 1087   3.910   1.080   4.046 -0.2692  0.9676 -0.6329
  375TIP3   OH2 1088   5.526   4.912   5.685  0.0404 -0.4452  0.3277
  375TIP3    H1 1089   5.483   4.961   5.756 -0.7084 -1.4282  0.5645
  375TIP3    H2 1090   5.527   4.974   5.612  2.6586  1.3533  1.7139
  376TIP3   OH2 1091   4.586   2.326   1.874 -0.7345 -0.2055 -0.1148
  376TIP3    H1 1092   4.559   2.353   1.786  0.9237  0.6941 -0.4047
  376TIP3    H2 1093   4.664   2.380   1.891 -0.8019 -0.6611  1.7441
  377TIP3   OH2 1094   2.882   3.772   3.980 -0.1773  0.0506 -0.1211
  377TIP3    H1 1095   2.940   3.696   3.992 -1.8417 -2.3196 -4.5088
  377TIP3    H2 1096   2.931   3.830   3.922  0.0944  1.1709  1.1860
  378TIP3   OH2 1097   5.937   5.193   2.374 -0.2312  0.0110  0.2702
  378TIP3    H1 1098   5.901   5.269   2.420  0.1604  0.0253  0.5567
  378TIP3    H2 1099   5.937   5.218   2.282 -0.2867  0.2801  0.3430
  379TIP3   OH2 1100   0.121   3.607   4.638  0.1588 -0.2868 -0.3604
  379TIP3    H1 1101   0.184   3.647   4.580  0.4013 -1.2362 -0.7654
  379TIP3    H2 1102   0.036   3.628   4.600  0.2442  0.4960 -0.1327
  380TIP3   OH2 1103   6.658   4.197   3.234  0.1209  0.1562  0.4534
  380TIP3    H1 1104   6.663   4.184   3.329 -1.8890  0.3157  0.6360
  380TIP3    H2 1105   6.574   4.241   3.221 -0.0289 -0.6206 -1.4772
  381TIP3   OH2 1106   0.703   3.336   0.839  0.8500 -0.0029 -0.1336
  381TIP3    H1 1107   0.701   3.241   0.826  1.4881  0.0560 -0.6934
  381TIP3    H2 1108   0.754   3.369   0.766  0.8414  0.7556  0.1967
  382TIP3   OH2 1109   0.762   0.216   3.927 -0.1855 -0.4516 -0.3820
  382TIP3    H1 1110   0.767   0.270   4.006  0.3278  0.1855 -0.8460
  382TIP3    H2 1111   0.775   0.277   3.855  1.7631 -1.3588 -0.8712
  383TIP3   OH2 1112   4.096   2.250   1.828  0.0383  0.0637 -0.5880
  383TIP3    H1 1113   4.108   2.194   1.905 -3.7148 -1.4096 -0.8924
  383TIP3    H2 1114   4.122   2.196   1.754 -0.4712 -0.0795 -0.6609
  384TIP3   OH2 1115   0.319   4.652   1.715 -0.2343 -0.1144  0.0927
  384TIP3    H1 1116   0.398   4.600   1.707  0.3623  0.6520  0.7576
  384TIP3    H2 1117   0.351   4.742   1.730 -1.2222  0.3241 -0.3327
  385TIP3   OH2 1118   0.697   6.713   5.640 -0.2975 -0.7154 -0.0318
  385TIP3    H1 1119   0.778   6.662   5.631 -1.1561 -2.1028 -0.1194
  385TIP3    H2 1120   0.720   6.801   5.608  1.0102 -1.2494 -0.6097
  386TIP3   OH2 1121   4.843   3.580   2.593 -0.6287  0.2431  0.4706
  386TIP3    H1 1122   4.812   3.650   2.650 -2.1862  0.0365 -0.0695
  386TIP3    H2 1123   4.765   3.549   2.548  0.2774 -0.7966 -0.4669
  387TIP3   OH2 1124   0.292   3.223   4.712  0.0529 -0.5686  0.3782
  387TIP3    H1 1125   0.306   3.155   4.647  1.9923 -0.4907  0.6500
  387TIP3    H2 1126   0.202   3.211   4.741 -0.6767 -0.9425 -1.9007
  388TIP3   OH2 1127   7.129   1.921   3.861  0.2884  0.1102 -0.3653
  388TIP3    H1 1128   7.034   1.922   3.854  0.3391  1.3000 -1.3250
  388TIP3    H2 1129   7.159   1.874   3.783  0.4944  0.2614 -0.3788
  389TIP3   OH2 1130   3.622   0.312   5.707 -0.4428 -0.1898  0.3057
  389TIP3    H1 1131   3.591   0.361   5.783  0.2603 -0.6001  0.8588
  389TIP3    H2 1132   3.648   0.379   5.644  1.2662  0.1716  1.3653
  390TIP3   OH2 1133   2.118   1.922   4.983  0.5282  0.3481 -0.3646
  390TIP3    H1 1134   2.191   1.864   4.960  0.3077 -0.6191  1.2485
  390TIP3    H2 1135   2.154   2.010   4.974  1.1042 -0.0330 -2.1028
  391TIP3   OH2 1136   2.827   0.594   3.189 -0.6398  0.3250  0.1823
  391TIP3    H1 1137   2.802   0.641   3.110  2.4987  1.7008 -0.1458
  391TIP3    H2 1138   2.885   0.524   3.157 -1.9134 -1.1999  1.0565
  392TIP3   OH2 1139   2.254   2.138   1.113 -0.2147  0.3581  0.8075
  392TIP3    H1 1140   2.229   2.048   1.132  0.8655  0.0971  1.0653
  392TIP3    H2 1141   2.293   2.134   1.026 -1.3544  0.8246  0.2503
  393TIP3   OH2 1142   2.061   3.067   3.361  1.0505  0.7500  0.1070
  393TIP3    H1 1143   2.120   3.100   3.293  0.1737  2.4966  0.1325
  393TIP3    H2 1144   2.053   3.140   3.422  1.2103 -0.5187  1.6992
  394TIP3   OH2 1145   1.213   4.707   3.070  0.4879 -0.6400 -0.3928
  394TIP3    H1 1146   1.235   4.614   3.059  2.3482 -0.0685 -1.9241
  394TIP3    H2 1147   1.257   4.751   2.998  1.7007  1.7647  1.6655
  395TIP3   OH2 1148   6.608   5.958   1.165 -0.6058  0.0854 -0.1450
  395TIP3    H1 1149   6.597   5.873   1.124  0.5433 -1.0022  1.6755
  395TIP3    H2 1150   6.529   5.970   1.217 -0.0404 -0.7018  0.9407
  396TIP3   OH2 1151   5.521   0.054   0.605  0.1423 -0.5097  0.2723
  396TIP3    H1 1152   5.512  -0.023   0.550 -0.6734  0.3746 -0.8862
  396TIP3    H2 1153   5.437   0.101   0.595  1.3731  1.6273 -0.8359
  397TIP3   OH2 1154   2.268   2.153   5.021  0.1007 -0.3274 -0.2551
  397TIP3    H1 1155   2.295   2.126   5.109  0.9401  0.4371 -0.2543
  397TIP3    H2 1156   2.224   2.237   5.034  2.2430  0.9698 -0.7292
  398TIP3   OH2 1157   2.478   0.865   4.979  0.1247 -0.2220 -0.0263
  398TIP3    H1 1158   2.386   0.856   4.952  0.1235 -1.5037  0.3380
  398TIP3    H2 1159   2.475   0.859   5.074  0.5423  0.2486  0.0156
  399TIP3   OH2 1160   6.317   5.594   4.357 -0.2926 -0.5156 -0.2906
  399TIP3    H1 1161   6.242   5.637   4.399 -0.1812 -0.4883 -0.1197
  399TIP3    H2 1162   6.392   5.649   4.379 -0.0001 -1.2555  0.6760
  400TIP3   OH2 1163   3.459   1.311   4.863 -0.7336 -0.2080  0.0547
  400TIP3    H1 1164   3.482   1.218   4.858 -1.7614 -0.4132 -1.6499
  400TIP3    H2 1165   3.503   1.342   4.942  0.1352 -1.9955  0.3328
  401TIP3   OH2 1166   5.446   1.126   2.526 -0.0593 -0.1592  0.0662
  401TIP3    H1 1167   5.503   1.076   2.585 -0.6627 -0.9408 -0.0080
  401TIP3    H2 1168   5.409   1.195   2.582  1.0758  0.4742  0.0778
  402TIP3   OH2 1169   4.254   3.146   0.603 -0.4753  0.1867  0.1647
  402TIP3    H1 1170   4.311   3.074   0.631  0.8374  0.5959 -1.3001
  402TIP3    H2 1171   4.170   3.105   0.585 -0.1035 -0.7734  0.5498
  403TIP3   OH2 1172   1.448   3.793   2.968 -0.1636  0.1342  0.3363
  403TIP3    H1 1173   1.449   3.867   3.028  1.6447 -0.3579  0.9924
  403TIP3    H2 1174   1.529   3.802   2.918 -0.5287 -0.7294 -0.4409
  404TIP3   OH2 1175   1.750   6.529   0.293  0.5858  0.5724  0.0053
  404TIP3    H1 1176   1.705   6.598   0.244 -1.9266 -1.0137 -0.1449
  404TIP3    H2 1177   1.778   6.467   0.225 -0.1894 -0.1375  0.3009
  405TIP3   OH2 1178   0.659   3.567   1.747  0.3408  0.2330  0.2304
  405TIP3    H1 1179   0.731   3.504   1.753 -0.5449 -0.9633 -1.1013
  405TIP3    H2 1180   0.582   3.513   1.728 -0.9495  1.4618  1.6991
  406TIP3   OH2 1181   6.648   3.561   3.837  0.7083  0.1724 -0.0503
  406TIP3    H1 1182   6.556   3.539   3.825  0.6682 -0.6530  1.5779
  406TIP3    H2 1183   6.695   3.496   3.786  0.4416 -0.7684  0.8784
  407TIP3   OH2 1184   6.918   5.077   0.674  0.0074 -0.1371 -0.1130
  407TIP3    H1 1185   6.840   5.076   0.619 -0.8055  0.7570  0.9775
  407TIP3    H2 1186   6.964   5.157   0.648  0.0511 -0.1455 -0.0602
  408TIP3   OH2 1187   4.632   6.289   0.912 -0.4665 -0.8321 -0.2809
  408TIP3    H1 1188   4.551   6.239   0.916  0.0679 -1.6281  1.3303
  408TIP3    H2 1189   4.680   6.264   0.991  0.9773  0.2619 -0.7651
  409TIP3   OH2 1190   2.523   1.644   1.462 -0.0661 -0.1022  0.1071
  409TIP3    H1 1191   2.446   1.640   1.518  0.4907  0.3257  0.9299
  409TIP3    H2 1192   2.529   1.736   1.436  0.3076 -0.0787  0.2609
  410TIP3   OH2 1193   4.874   4.135   3.139  0.4448 -0.0613  0.3571
  410TIP3    H1 1194   4.927   4.097   3.209  1.8428  1.7277  0.3393
  410TIP3    H2 1195   4.903   4.089   3.060 -0.0431 -1.0095  0.7079
  411TIP3   OH2 1196   1.375   1.032   3.247  0.3652 -0.0383 -0.2563
  411TIP3    H1 1197   1.470   1.045   3.243  0.5458 -1.4793 -2.0005
  411TIP3    H2 1198   1.341   1.078   3.171  0.0101 -1.7395 -1.1812
  412TIP3   OH2 1199   1.347   6.101   5.698 -0.0419 -0.0620  0.4829
  412TIP3    H1 1200   1.433   6.072   5.666 -0.3495 -0.8235  0.3235
  412TIP3    H2 1201   1.309   6.024   5.739 -1.3848 -0.2419 -1.0129
  413TIP3   OH2 1202   5.012   3.473   3.673 -0.2741  0.1297  0.6176
  413TIP3    H1 1203   4.958   3.497   3.749  0.4551  0.9509  0.9009
  413TIP3    H2 1204   5.041   3.557   3.638 -0.6532 -0.2405 -0.6286
  414TIP3   OH2 1205   1.830   6.002   5.249  0.4244 -0.4783  0.2407
  414TIP3    H1 1206   1.837   5.907   5.242  0.4759 -0.4274 -0.4521
  414TIP3    H2 1207   1.920   6.033   5.252  0.4459 -0.3692 -0.8836
  415TIP3   OH2 1208   2.420   2.211   0.271  0.4736  0.0134  0.2434
  415TIP3    H1 1209   2.390   2.232   0.359  0.9970  0.9447  0.2218
  415TIP3    H2 1210   2.472   2.131   0.281 -0.3754 -0.5095  0.5841
  416TIP3   OH2 1211   6.049   6.711   1.814  0.1837 -0.7697  0.1927
  416TIP3    H1 1212   6.112   6.740   1.880 -1.2873  1.8793  0.5401
  416TIP3    H2 1213   5.991   6.652   1.861 -0.0980  0.1113  0.9718
  417TIP3   OH2 1214   1.886   5.725   5.305  0.0482 -0.9794 -0.2070
  417TIP3    H1 1215   1.877   5.679   5.388  0.7750 -0.5078  0.1391
  417TIP3    H2 1216   1.972   5.699   5.271  0.3444 -0.1248 -0.1479
  418TIP3   OH2 1217   4.973   3.932   3.329 -0.5922 -0.0397  0.3150
  418TIP3    H1 1218   4.981   3.837   3.318 -0.1164  0.1714 -1.4554
  418TIP3    H2 1219   4.883   3.945   3.360 -1.0761 -0.9903 -0.6345
  419TIP3   OH2 1220   0.511   1.543   4.284 -0.1974 -0.0727  0.3822
  419TIP3    H1 1221   0.545   1.619   4.330 -0.9674  0.4280  0.1467
  419TIP3    H2 1222   0.529   1.560   4.191 -1.7357  0.5779  0.1694
  420TIP3   OH2 1223   2.031   3.546   0.806 -0.6492 -0.0662  0.1478
  420TIP3    H1 1224   1.963   3.484   0.832 -0.7826 -0.7699 -1.6827
  420TIP3    H2 1225   2.084   3.559   0.884 -2.2363 -0.3654  1.3080
  421TIP3   OH2 1226   7.199   5.175   4.548  0.1091  0.0574  0.1662
  421TIP3    H1 1227   7.235   5.263   4.537  0.3070  0.1477  1.3971
  421TIP3    H2 1228   7.166   5.152   4.461  2.4908  0.2582 -0.8751
  422TIP3   OH2 1229   4.735   5.791   3.742 -0.4511  0.2386 -0.4727
  422TIP3    H1 1230   4.717   5.699   3.718  0.7564 -0.3299  0.6768
  422TIP3    H2 1231   4.665   5.814   3.802  0.0670 -0.4574  0.4302
  423TIP3   OH2 1232   0.906   3.804   5.394 -0.1067  0.4708  0.0468
  423TIP3    H1 1233   0.972   3.735   5.382 -1.2165 -0.6943  0.4471
  423TIP3    H2 1234   0.889   3.837   5.306 -0.0706 -0.2602 -0.2395
  424TIP3   OH2 1235   1.508   5.906   5.010 -0.1489 -0.3741 -0.0592
  424TIP3    H1 1236   1.568   5.871   4.944  0.3691 -2.0365  1.2207
  424TIP3    H2 1237   1.427   5.855   4.998 -0.3187 -0.1379  0.0823
  425TIP3   OH2 1238   0.508   3.638   4.006  0.1330 -0.4821 -0.0900
  425TIP3    H1 1239   0.478   3.638   4.097 -0.8988 -1.3731 -0.4098
  425TIP3    H2 1240   0.467   3.715   3.967 -0.9740 -1.1558 -0.2761
  426TIP3   OH2 1241   3.801   4.963   0.232 -0.2626  0.2565  0.1851
  426TIP3    H1 1242   3.797   5.058   0.226 -1.6321  0.3293  1.5724
  426TIP3    H2 1243   3.792   4.933   0.142  0.6387  1.4229 -0.3234
  427TIP3   OH2 1244   5.439   4.919   2.045 -0.0963  0.0976  0.3209
  427TIP3    H1 1245   5.343   4.925   2.046 -0.2240 -0.4560 -1.8833
  427TIP3    H2 1246   5.469   5.010   2.053 -0.9372  0.5740 -1.3378
  428TIP3   OH2 1247   2.756   6.420   3.521 -0.4208 -0.1006  0.1645
  428TIP3    H1 1248   2.671   6.375   3.518  0.2918 -1.5239  0.7738
  428TIP3    H2 1249   2.818   6.358   3.483  0.5636  0.4427  0.8408
  429TIP3   OH2 1250   6.421   3.021   0.839  0.6629  0.1306 -0.1036
  429TIP3    H1 1251   6.422   3.081   0.914  0.4696  1.6724 -1.2828
  429TIP3    H2 1252   6.514   3.002   0.823  0.7084 -0.1971  0.4867
  430TIP3   OH2 1253   4.664   6.321   3.510 -0.6511 -0.0758 -0.1004
  430TIP3    H1 1254   4.706   6.405   3.494 -1.0009 -0.1578 -1.6315
  430TIP3    H2 1255   4.576   6.343   3.539 -0.8598  0.0854 -0.8560
  431TIP3   OH2 1256   1.607   0.858   2.351  0.0189  0.3624  0.3177
  431TIP3    H1 1257   1.513   0.858   2.338 -0.1087 -1.6184  0.9310
  431TIP3    H2 1258   1.641   0.800   2.283  0.5375 -0.7526  1.4939
  432TIP3   OH2 1259   3.393   4.786   0.822  0.4393  0.1854  0.7853
  432TIP3    H1 1260   3.388   4.707   0.767 -1.7588 -1.3602  2.9858
  432TIP3    H2 1261   3.366   4.857   0.763  1.9366 -0.7002 -1.1063
  433TIP3   OH2 1262   1.604   3.878   1.889 -0.0394  0.3011 -0.4358
  433TIP3    H1 1263   1.698   3.882   1.907  0.0671 -2.6369  0.2068
  433TIP3    H2 1264   1.564   3.857   1.973 -0.8559 -1.7151 -1.2444
  434TIP3   OH2 1265   1.229   6.354   5.263 -0.1051  0.2019 -0.4454
  434TIP3    H1 1266   1.142   6.380   5.235 -0.0068 -0.5997 -1.5890
  434TIP3    H2 1267   1.215   6.296   5.338 -0.6706 -1.0234 -1.4590
  435TIP3   OH2 1268   2.777   0.512   1.142 -0.0163  1.2141  0.1278
  435TIP3    H1 1269   2.699   0.514   1.087 -0.5557  2.6833  0.9023
  435TIP3    H2 1270   2.810   0.602   1.142  1.7018  0.6290 -0.1829
  436TIP3   OH2 1271   2.344   3.388   4.238  0.1483  0.0928  0.0565
  436TIP3    H1 1272   2.407   3.456   4.261 -1.8079  1.9051  0.3475
  436TIP3    H2 1273   2.354   3.377   4.143 -0.9538  2.4188 -0.3927
  437TIP3   OH2 1274   3.592   1.907   1.331 -0.8861  0.2286  0.2479
  437TIP3    H1 1275   3.653   1.962   1.380 -1.3901  0.1824  0.9443
  437TIP3    H2 1276   3.512   1.959   1.325 -0.3278  0.9522 -2.0276
  438TIP3   OH2 1277   6.911   6.282   0.395 -0.5471 -0.2694 -0.3150
  438TIP3    H1 1278   7.003   6.257   0.388 -0.7310 -1.2072  0.3735
  438TIP3    H2 1279   6.912   6.377   0.400  0.6077 -0.3467  2.4890
  439TIP3   OH2 1280   5.931   6.471   4.163 -0.1994 -0.1385 -0.3119
  439TIP3    H1 1281   5.840   6.460   4.190 -0.2868 -0.4060 -0.6954
  439TIP3    H2 1282   5.937   6.562   4.136  0.9217  1.4446  4.3572
  440TIP3   OH2 1283   4.623   3.595   1.702 -0.4033 -0.1961 -0.4409
  440TIP3    H1 1284   4.645   3.660   1.636  0.5873  0.6201  0.6470
  440TIP3    H2 1285   4.600   3.647   1.780  1.6035 -1.1088  0.8346
  441TIP3   OH2 1286   0.062   1.980   0.430  0.4362 -0.2746 -0.1719
  441TIP3    H1 1287  -0.023   1.974   0.387  0.6149  0.7166 -0.6844
  441TIP3    H2 1288   0.058   2.062   0.479  1.0434 -0.3030 -0.0658
  442TIP3   OH2 1289   6.368   1.731   4.838 -0.3278  0.4793  0.5169
  442TIP3    H1 1290   6.297   1.712   4.900 -1.1336 -0.5760 -0.6720
  442TIP3    H2 1291   6.327   1.782   4.769 -0.0766 -0.5932 -0.4559
  443TIP3   OH2 1292   3.847   6.210   4.491  0.0338  0.0217 -0.3643
  443TIP3    H1 1293   3.868   6.159   4.412  2.0084  0.5175 -0.2224
  443TIP3    H2 1294   3.800   6.286   4.458 -0.7747 -0.6751 -0.8508
  444TIP3   OH2 1295   1.721   4.480   1.591 -0.3429 -0.4859  0.3514
  444TIP3    H1 1296   1.809   4.460   1.622 -0.2993 -4.3872 -1.7379
  444TIP3    H2 1297   1.664   4.418   1.637 -1.8181  0.8596  0.4502
  445TIP3   OH2 1298   7.015   4.036   2.947  0.5190  0.6623 -0.0116
  445TIP3    H1 1299   6.922   4.046   2.965  0.6001  0.7755  0.3635
  445TIP3    H2 1300   7.057   4.045   3.033  0.6605 -2.2007  0.2910
  446TIP3   OH2 1301   5.781   2.193   2.530  0.1368 -0.0885  0.2635
  446TIP3    H1 1302   5.751   2.111   2.490 -0.6662 -0.0516  0.7633
  446TIP3    H2 1303   5.775   2.177   2.624 -0.4583  0.6827  0.3683
  447TIP3   OH2 1304   5.494   2.767   2.660  0.0429  0.2624  0.0019
  447TIP3    H1 1305   5.572   2.746   2.609 -0.9783 -0.1353 -1.4797
  447TIP3    H2 1306   5.490   2.700   2.728  0.8370  0.1213 -0.0896
  448TIP3   OH2 1307   2.744   1.857   0.556 -0.4255 -0.1316 -0.1341
  448TIP3    H1 1308   2.759   1.823   0.644 -2.5417  0.3709  0.4731
  448TIP3    H2 1309   2.744   1.780   0.499 -0.0220 -0.5629  0.4416
  449TIP3   OH2 1310   1.136   4.178   4.080  0.3342 -0.0360  0.2766
  449TIP3    H1 1311   1.213   4.122   4.067 -0.8016 -1.8849  1.2039
  449TIP3    H2 1312   1.062   4.123   4.055 -0.7760  1.3856  0.3452
  450TIP3   OH2 1313   3.237   0.323   2.659  0.5361 -0.0518 -0.2031
  450TIP3    H1 1314   3.160   0.280   2.623  0.9651 -2.0824  1.1211
  450TIP3    H2 1315   3.310   0.264   2.638  1.2233  0.2092  1.2792
  451TIP3   OH2 1316   0.494   0.667   0.443 -0.2366 -0.2163  0.1822
  451TIP3    H1 1317   0.439   0.705   0.512  0.5395  1.9822 -0.3622
  451TIP3    H2 1318   0.454   0.696   0.361  1.0218  0.4173 -0.2315
  452TIP3   OH2 1319   1.715   1.336   5.682 -0.3063 -0.0513 -0.8077
  452TIP3    H1 1320   1.758   1.286   5.752 -0.4126 -1.9976 -2.0413
  452TIP3    H2 1321   1.741   1.426   5.697  1.2816 -0.6902  0.5801
  453TIP3   OH2 1322   0.943   2.006   4.880 -0.1377  0.2866 -0.7663
  453TIP3    H1 1323   0.888   1.997   4.958 -0.2913 -1.0317 -1.0020
  453TIP3    H2 1324   0.916   2.090   4.842 -1.0834  0.2626 -0.1882
  454TIP3   OH2 1325   6.696   2.658   3.854  0.0203  0.8162  0.3238
  454TIP3    H1 1326   6.745   2.633   3.932  0.4068 -1.1062 -0.4609
  454TIP3    H2 1327   6.749   2.625   3.781 -1.5975  0.1600 -0.6121
  455TIP3   OH2 1328   7.025   4.736   0.128 -0.4680 -0.1746 -0.6137
  455TIP3    H1 1329   7.024   4.677   0.203 -0.4400  0.4812 -0.0887
  455TIP3    H2 1330   6.994   4.683   0.055  1.4373 -1.4360 -0.5940
  456TIP3   OH2 1331   5.772   1.028   3.213 -0.6095  0.3854 -0.5138
  456TIP3    H1 1332   5.716   1.021   3.136 -1.2161  3.2746 -0.4457
  456TIP3    H2 1333   5.834   1.097   3.191  1.4945 -1.1214  0.3192
  457TIP3   OH2 1334   3.849   2.587   1.146 -0.0984  0.5898 -0.5374
  457TIP3    H1 1335   3.865   2.499   1.180 -0.1140 -0.0442 -2.0745
  457TIP3    H2 1336   3.863   2.645   1.221  3.2929 -0.3925 -0.2314
  458TIP3   OH2 1337   3.948   3.485   2.684  0.1280  0.1920  0.3260
  458TIP3    H1 1338   3.941   3.431   2.763 -0.7822 -0.8338 -0.4245
  458TIP3    H2 1339   3.879   3.550   2.693 -0.6218 -0.5339 -0.0618
  459TIP3   OH2 1340   5.106   0.641   0.969 -0.1854  0.5613  0.3051
  459TIP3    H1 1341   5.104   0.724   0.920 -2.9662  0.0021 -0.7049
  459TIP3    H2 1342   5.069   0.662   1.054 -1.6566  0.2332 -0.2358
  460TIP3   OH2 1343   3.015   0.936   3.770 -0.8996 -0.7326  0.0281
  460TIP3    H1 1344   3.081   1.005   3.760 -1.9669  0.2775 -0.2058
  460TIP3    H2 1345   2.974   0.929   3.684  0.3253 -2.8839 -0.4544
  461TIP3   OH2 1346   6.402   2.131   0.506  0.1918 -0.1649  0.0182
  461TIP3    H1 1347   6.312   2.116   0.476  0.2416  0.6959 -0.6088
  461TIP3    H2 1348   6.412   2.074   0.582 -0.9120 -0.2100  0.1446
  462TIP3   OH2 1349   3.391   1.863   0.225 -0.4342 -0.2025  0.3745
  462TIP3    H1 1350   3.405   1.768   0.228 -1.5894 -0.3680  0.9079
  462TIP3    H2 1351   3.403   1.886   0.133  0.2421 -0.7958  0.3020
  463TIP3   OH2 1352   4.683   4.126   2.006 -0.1216  0.3056 -0.2306
  463TIP3    H1 1353   4.662   4.132   1.912 -2.2043 -1.4122  0.0509
  463TIP3    H2 1354   4.645   4.205   2.044  3.0869  2.4795 -1.0621
  464TIP3   OH2 1355   2.259   3.245   3.863  0.2848 -0.4637 -0.0491
  464TIP3    H1 1356   2.186   3.249   3.801  0.1817  0.1239  0.1079
  464TIP3    H2 1357   2.219   3.260   3.949  0.4610 -1.0473  0.1379
  465TIP3   OH2 1358   1.490   1.726   1.749 -0.1619  0.5640  0.2332
  465TIP3    H1 1359   1.548   1.651   1.764  1.3091  1.7283  0.6457
  465TIP3    H2 1360   1.450   1.708   1.664  1.1457 -0.0971 -0.2819
  466TIP3   OH2 1361   0.053   1.893   5.492 -0.2129  0.5509 -0.2123
  466TIP3    H1 1362   0.038   1.893   5.587 -2.7441  1.3501 -0.5278
  466TIP3    H2 1363  -0.034   1.910   5.455  0.6705 -0.0262 -2.6954
  467TIP3   OH2 1364   1.690   4.505   3.818  0.1777  0.5686  0.7897
  467TIP3    H1 1365   1.669   4.450   3.894 -1.3716 -2.2163 -1.4601
  467TIP3    H2 1366   1.611   4.558   3.805  0.9183  1.9849  1.7678
  468TIP3   OH2 1367   2.841   5.831   4.606 -0.5881  0.1491  0.0383
  468TIP3    H1 1368   2.892   5.828   4.526 -1.1948 -0.8062 -0.3284
  468TIP3    H2 1369   2.760   5.784   4.585  0.1593 -2.1281  1.8380
  469TIP3   OH2 1370   4.945   2.463   0.900  0.1526 -0.6059 -0.1619
  469TIP3    H1 1371   5.006   2.493   0.968 -0.0541 -0.8217  0.1269
  469TIP3    H2 1372   4.864   2.511   0.917 -0.2725 -1.4991  0.4842
  470TIP3   OH2 1373   5.071   3.502   4.069 -0.1322  0.1815  0.1238
  470TIP3    H1 1374   5.094   3.484   4.160  0.5253  0.8297  0.0966
  470TIP3    H2 1375   5.014   3.578   4.073 -0.1163  0.2000 -0.0049
  471TIP3   OH2 1376   1.415   2.000   1.959 -0.6019 -0.1396 -0.2009
  471TIP3    H1 1377   1.496   2.048   1.978 -0.3222 -1.0090  0.9685
  471TIP3    H2 1378   1.420   1.980   1.866 -0.1884  1.0862 -0.4661
  472TIP3   OH2 1379   2.039   2.685   0.045 -0.0289 -0.0822  0.0749
  472TIP3    H1 1380   1.989   2.699  -0.035 -2.0562  0.1637  1.2909
  472TIP3    H2 1381   2.116   2.740   0.036 -0.6843  0.6511 -1.3134
  473TIP3   OH2 1382   4.051   0.608   3.707  0.2588 -0.3185 -0.3925
  473TIP3    H1 1383   3.982   0.629   3.771 -1.1849 -1.8542 -1.3517
  473TIP3    H2 1384   4.045   0.678   3.642 -0.0061 -0.1188 -0.1580
  474TIP3   OH2 1385   0.616   5.145   2.000  0.0941  0.0010 -0.0217
  474TIP3    H1 1386   0.666   5.065   1.988 -1.7327 -1.1129 -0.6529
  474TIP3    H2 1387   0.582   5.139   2.090 -0.6034 -0.2916 -0.2967
  475TIP3   OH2 1388   1.855   0.614   1.687  0.3658  0.4498 -0.6664
  475TIP3    H1 1389   1.837   0.615   1.593 -0.1032  0.2679 -0.5854
  475TIP3    H2 1390   1.833   0.524   1.714  1.4551  0.2029 -0.5598
  476TIP3   OH2 1391   4.175   5.480   0.141  0.3233 -0.0130 -0.1280
  476TIP3    H1 1392   4.115   5.539   0.186 -0.0308  1.1369 -1.9743
  476TIP3    H2 1393   4.229   5.538   0.087  0.7763 -1.2900 -1.0942
  477TIP3   OH2 1394   3.253   2.075   3.170 -1.0519  0.3693  0.1193
  477TIP3    H1 1395   3.306   2.117   3.102  1.9057 -0.3240  1.8177
  477TIP3    H2 1396   3.277   1.983   3.165 -0.7927  0.2930  2.0527
  478TIP3   OH2 1397   6.960   6.451   1.664 -1.2377 -0.4622  0.4284
  478TIP3    H1 1398   6.947   6.545   1.674 -2.8062 -0.5174 -0.7490
  478TIP3    H2 1399   6.889   6.411   1.714 -0.1975 -1.0623  1.4692
  479TIP3   OH2 1400   6.512   6.336   5.715  0.0107  0.0986  0.0329
  479TIP3    H1 1401   6.484   6.258   5.667  0.7488  0.9355 -1.8367
  479TIP3    H2 1402   6.513   6.308   5.807  0.1760 -2.0598 -0.5671
  480TIP3   OH2 1403   1.765   0.034   3.658  0.7304  0.5347  0.1104
  480TIP3    H1 1404   1.784  -0.052   3.693  0.9472  0.7646  0.5651
  480TIP3    H2 1405   1.836   0.051   3.596  1.2462  0.7966  0.7558
  481TIP3   OH2 1406   5.826   5.288   3.189  0.6167 -0.6337  0.4641
  481TIP3    H1 1407   5.800   5.273   3.280  0.0345 -0.6034  0.3070
  481TIP3    H2 1408   5.777   5.223   3.139 -2.6289  2.1517 -0.3247
  482TIP3   OH2 1409   3.781   6.325   2.709 -0.5857  0.1777 -0.1126
  482TIP3    H1 1410   3.742   6.297   2.792 -0.7457 -2.2349 -0.9147
  482TIP3    H2 1411   3.730   6.401   2.682 -2.1435 -0.4955  0.8141
  483TIP3   OH2 1412   2.572   1.096   1.906 -0.0411 -0.1636 -0.1802
  483TIP3    H1 1413   2.497   1.155   1.911  0.8538  1.4717 -3.2728
  483TIP3    H2 1414   2.534   1.008   1.905 -1.7629  0.5459 -0.1080
  484TIP3   OH2 1415   3.339   6.011   1.836 -0.0073 -0.7961  0.2284
  484TIP3    H1 1416   3.313   6.084   1.779 -0.3983 -0.0593  1.3329
  484TIP3    H2 1417   3.275   5.943   1.817 -1.3304  0.1380  1.1532
  485TIP3   OH2 1418   2.759   1.900   2.191  0.3555  0.1700  0.5287
  485TIP3    H1 1419   2.689   1.895   2.126  0.3715  1.5978  0.3665
  485TIP3    H2 1420   2.839   1.878   2.142  0.3632  1.2006  0.0641
  486TIP3   OH2 1421   0.410   1.401   0.388  0.0084 -0.2296 -0.7338
  486TIP3    H1 1422   0.338   1.416   0.326  0.3643  0.6613 -0.9455
  486TIP3    H2 1423   0.371   1.350   0.459 -0.1451 -2.3407 -2.2278
  487TIP3   OH2 1424   6.796   3.624   4.689 -0.3224 -0.3645  0.4211
  487TIP3    H1 1425   6.801   3.559   4.619  0.7579  0.4188 -0.2662
  487TIP3    H2 1426   6.724   3.682   4.664 -0.7656 -0.8147  0.6283
  488TIP3   OH2 1427   6.986   6.017   1.749  0.4443  0.0406 -0.3481
  488TIP3    H1 1428   7.060   5.963   1.721  1.7299  2.8485 -2.8232
  488TIP3    H2 1429   6.930   6.023   1.671 -2.5376 -1.9083  1.4069
  489TIP3   OH2 1430   3.293   1.988   2.859  0.0887 -0.2312 -0.2303
  489TIP3    H1 1431   3.207   1.947   2.865 -0.5893  0.8844 -1.6979
  489TIP3    H2 1432   3.322   1.972   2.769  0.2133  1.6473 -0.5705
  490TIP3   OH2 1433   3.608   5.902   4.271  0.1782 -0.1862 -0.2451
  490TIP3    H1 1434   3.545   5.834   4.247 -1.2518  1.0223 -0.0431
  490TIP3    H2 1435   3.556   5.967   4.318  1.9568 -0.0716  1.7018
  491TIP3   OH2 1436   6.545   3.957   5.690 -0.0200  0.5602 -0.0555
  491TIP3    H1 1437   6.459   3.972   5.652  0.2340 -0.0530 -0.8923
  491TIP3    H2 1438   6.602   4.022   5.648  0.7643 -1.5857 -2.5737
  492TIP3   OH2 1439   1.305   4.030   2.822  0.2402 -0.6229  0.2556
  492TIP3    H1 1440   1.220   3.986   2.817 -0.2638  0.1480  1.7292
  492TIP3    H2 1441   1.326   4.033   2.915  1.3237  0.2580  0.0041
  493TIP3   OH2 1442   5.171   1.360   2.488  0.0468  0.2290  0.4466
  493TIP3    H1 1443   5.102   1.306   2.527  0.2582 -0.4387 -0.0899
  493TIP3    H2 1444   5.124   1.435   2.451 -0.3200  0.0991  0.6365
  494TIP3   OH2 1445   6.815   0.290   2.328 -0.1201 -0.0739  0.1487
  494TIP3    H1 1446   6.729   0.286   2.370  0.6095 -0.4787  1.6763
  494TIP3    H2 1447   6.800   0.260   2.239 -1.7204  0.7121  0.1267
  495TIP3   OH2 1448   0.307   6.621   2.544  0.1674  0.2661 -0.1217
  495TIP3    H1 1449   0.354   6.703   2.552 -0.9679  0.9719 -0.4118
  495TIP3    H2 1450   0.369   6.561   2.502  0.9364  1.0302 -0.0869
  496TIP3   OH2 1451   0.599   3.019   1.999 -0.4688 -0.5748 -0.2018
  496TIP3    H1 1452   0.564   2.982   1.918 -0.5186 -1.7115  0.3142
  496TIP3    H2 1453   0.691   2.994   1.999 -0.0014  1.0606 -0.8022
  497TIP3   OH2 1454   7.186   4.746   2.067 -0.6461  0.3189 -0.0008
  497TIP3    H1 1455   7.142   4.767   1.985  0.3736  0.9504 -0.4118
  497TIP3    H2 1456   7.146   4.664   2.096 -0.4383 -0.3544 -1.5545
  498TIP3   OH2 1457   3.534   0.884   3.159 -0.0424  0.4421 -0.0078
  498TIP3    H1 1458   3.442   0.875   3.136 -0.0209 -0.0100  0.0834
  498TIP3    H2 1459   3.559   0.970   3.123 -0.0732 -0.1266 -1.4379
  499TIP3   OH2 1460   2.388   4.867   1.532  0.5383  0.4623  0.3365
  499TIP3    H1 1461   2.304   4.822   1.529  1.1994 -0.8487  0.6802
  499TIP3    H2 1462   2.424   4.857   1.444  1.0447 -0.4260  0.6327
  500TIP3   OH2 1463   2.608   0.673   4.709  0.3567 -0.2723  0.4082
  500TIP3    H1 1464   2.669   0.600   4.694 -0.5070 -1.4902  2.3888
  500TIP3    H2 1465   2.577   0.660   4.798 -0.4519  2.1124  0.5366
  501TIP3   OH2 1466   6.011   5.680   3.699  0.5479  0.3344 -0.0490
  501TIP3    H1 1467   6.101   5.708   3.714  0.5040  0.0568  0.7383
  501TIP3    H2 1468   5.970   5.683   3.785  0.7931 -3.1061  0.3100
  502TIP3   OH2 1469   6.471   2.737   4.982 -0.3636 -0.0641  0.0129
  502TIP3    H1 1470   6.555   2.692   4.986  0.0476  0.7748  1.8220
  502TIP3    H2 1471   6.491   2.824   4.946 -0.2310  0.5359  1.4732
  503TIP3   OH2 1472   3.527   6.470   4.167  0.1240 -0.0874 -0.2062
  503TIP3    H1 1473   3.494   6.503   4.083 -1.0515 -2.0641 -0.5691
  503TIP3    H2 1474   3.461   6.498   4.231 -0.9316 -1.7110 -0.5308
  504TIP3   OH2 1475   6.255   1.266   5.559  0.6811  0.0189  0.2435
  504TIP3    H1 1476   6.232   1.358   5.544 -0.4455 -0.2696  0.1351
  504TIP3    H2 1477   6.304   1.267   5.642 -0.7220  0.5385  1.0978
  505TIP3   OH2 1478   1.559   3.482   4.006  0.4296 -0.0758  0.4155
  505TIP3    H1 1479   1.539   3.574   3.988  0.8523 -0.0718 -0.0698
  505TIP3    H2 1480   1.483   3.434   3.975  0.7559  0.0116 -0.5483
  506TIP3   OH2 1481   0.309   1.151   0.529  0.1065  0.2054  0.0652
  506TIP3    H1 1482   0.220   1.165   0.562 -0.2436 -2.4351  0.4656
  506TIP3    H2 1483   0.366   1.181   0.600 -0.5434 -0.6755  0.9893
  507TIP3   OH2 1484   0.517   0.080   3.674  1.2223  0.0332 -0.9476
  507TIP3    H1 1485   0.522   0.160   3.621  1.4143  1.5015  1.1465
  507TIP3    H2 1486   0.486   0.110   3.759 -0.3096 -2.4228 -0.5484
  508TIP3   OH2 1487   3.269   4.633   1.772  0.4310  0.0504  0.3924
  508TIP3    H1 1488   3.183   4.593   1.759  0.2542  0.4492  0.3122
  508TIP3    H2 1489   3.331   4.571   1.733  0.1494 -0.0824  0.1523
  509TIP3   OH2 1490   1.612  -0.005   1.590 -0.3561 -0.1755  0.0819
  509TIP3    H1 1491   1.604   0.040   1.506  0.9430  0.8163  0.4606
  509TIP3    H2 1492   1.522  -0.012   1.622 -0.9825 -1.3668 -1.7572
  510TIP3   OH2 1493   1.906   5.772   1.306  0.2867 -0.0417  0.0695
  510TIP3    H1 1494   1.890   5.680   1.326 -1.3925 -0.3304 -2.1070
  510TIP3    H2 1495   1.844   5.820   1.362  1.2920 -0.1797  1.3382
  511TIP3   OH2 1496   0.171   2.899   3.285 -0.2013  0.1766 -0.0722
  511TIP3    H1 1497   0.106   2.969   3.275 -0.5859  0.0374  1.2833
  511TIP3    H2 1498   0.252   2.944   3.308  0.2287  0.3485 -1.7394
  512TIP3   OH2 1499   2.281   5.188   0.741  0.0206 -0.6231  0.2494
  512TIP3    H1 1500   2.251   5.271   0.703  2.3559 -0.0417 -0.4890
  512TIP3    H2 1501   2.290   5.205   0.834  2.2354  0.6026 -0.1289
  513TIP3   OH2 1502   0.255   4.449   2.415  0.0391  0.3724  0.4187
  513TIP3    H1 1503   0.303   4.480   2.338  3.7643  1.2843  2.8871
  513TIP3    H2 1504   0.230   4.528   2.462 -1.3962 -0.2030  0.6833
  514TIP3   OH2 1505   3.040   1.877   5.222  0.4454  0.0456 -0.5123
  514TIP3    H1 1506   3.030   1.954   5.278  1.1663  0.3681 -0.8305
  514TIP3    H2 1507   3.126   1.886   5.182 -0.6847  0.6826 -2.9930
  515TIP3   OH2 1508   5.544   1.738   0.210  0.1686 -0.3111  0.3606
  515TIP3    H1 1509   5.500   1.800   0.152  1.1753  0.4500  0.3925
  515TIP3    H2 1510   5.522   1.766   0.298  0.5604 -0.0473  0.3743
  516TIP3   OH2 1511   5.987   5.976   0.526 -0.0283 -0.4266  0.2334
  516TIP3    H1 1512   5.929   5.938   0.460 -1.6277  1.1895  0.6209
  516TIP3    H2 1513   5.983   6.070   0.510  1.5791 -0.1760  1.0538
  517TIP3   OH2 1514   5.299   3.438   0.201 -0.1592 -0.1476  0.9177
  517TIP3    H1 1515   5.215   3.444   0.155 -0.2133 -1.7030  0.7493
  517TIP3    H2 1516   5.349   3.374   0.150 -0.1507 -1.8031  2.8797
  518TIP3   OH2 1517   5.901   0.747   1.004 -0.3029 -0.6897  0.2720
  518TIP3    H1 1518   5.931   0.762   0.915 -1.9697  0.5584 -0.1397
  518TIP3    H2 1519   5.838   0.818   1.020 -1.1910 -1.7731  1.8802
  519TIP3   OH2 1520   6.849   5.615   2.639  0.6410  0.0047 -0.0666
  519TIP3    H1 1521   6.817   5.526   2.652 -0.6658  0.5487  0.6401
  519TIP3    H2 1522   6.940   5.604   2.611  0.1559 -1.5812 -1.1516
  520TIP3   OH2 1523   1.499   5.455   3.662  0.0154  0.4261 -0.1322
  520TIP3    H1 1524   1.517   5.368   3.699  0.2247  0.2359 -0.6605
  520TIP3    H2 1525   1.558   5.461   3.586 -0.5058  0.7386 -0.5227
  521TIP3   OH2 1526   2.415   2.120   0.852  0.1182  0.3491 -0.1850
  521TIP3    H1 1527   2.327   2.158   0.841 -1.0632 -2.5133 -1.5717
  521TIP3    H2 1528   2.468   2.165   0.787 -1.0563  0.1615 -1.3224
  522TIP3   OH2 1529   6.487   2.967   5.245 -0.2731  0.7830 -0.1524
  522TIP3    H1 1530   6.408   3.009   5.280  0.2308  2.7068 -1.2281
  522TIP3    H2 1531   6.486   2.880   5.285 -0.5448  2.2634  3.4810
  523TIP3   OH2 1532   6.008   2.560   2.029  0.1316 -0.2220 -0.1495
  523TIP3    H1 1533   5.985   2.633   2.087 -1.4455 -1.2589  0.5913
  523TIP3    H2 1534   6.057   2.601   1.957 -0.9119  1.6012  0.1265
  524TIP3   OH2 1535   4.726   4.687   5.072  1.3627 -0.2435  0.2017
  524TIP3    H1 1536   4.698   4.757   5.014  2.4425 -1.3040 -1.7003
  524TIP3    H2 1537   4.805   4.720   5.114  1.7683 -0.2410 -0.5507
  525TIP3   OH2 1538   1.259   5.050   1.951  0.0197 -0.0002 -0.1793
  525TIP3    H1 1539   1.259   5.069   1.857  0.7695 -0.1502 -0.2200
  525TIP3    H2 1540   1.186   5.100   1.986 -1.9019 -1.9150 -1.2253
  526TIP3   OH2 1541   0.565   4.474   5.649  0.4820 -0.4218  0.0835
  526TIP3    H1 1542   0.614   4.552   5.622  0.3838 -0.8502 -1.4167
  526TIP3    H2 1543   0.631   4.417   5.688  1.0094 -0.5610 -0.9705
  527TIP3   OH2 1544   0.046   1.290   4.332 -0.2686 -0.4539 -0.9030
  527TIP3    H1 1545   0.002   1.216   4.374 -0.2492  0.0171 -0.0267
  527TIP3    H2 1546  -0.013   1.316   4.261 -1.5291  0.2714  0.3547
  528TIP3   OH2 1547   0.600   5.213   2.866  0.0733  0.5368 -0.3228
  528TIP3    H1 1548   0.607   5.202   2.772 -0.7661  1.0699 -0.4572
  528TIP3    H2 1549   0.636   5.300   2.883 -1.2225  1.1018 -0.3659
  529TIP3   OH2 1550   4.847   4.615   4.705 -0.0529  0.2316  0.0208
  529TIP3    H1 1551   4.752   4.630   4.707  0.0246  0.8532 -0.6197
  529TIP3    H2 1552   4.884   4.701   4.685  0.5867 -0.2067 -0.7113
  530TIP3   OH2 1553   4.221   3.195   0.916  0.0915 -0.3323 -0.2515
  530TIP3    H1 1554   4.129   3.221   0.920  0.3589  0.8650 -1.5194
  530TIP3    H2 1555   4.266   3.271   0.881  1.2639 -1.6466 -1.7002
  531TIP3   OH2 1556   5.510   6.275   3.590 -0.2545 -0.0770 -0.3698
  531TIP3    H1 1557   5.464   6.234   3.517  0.8247  0.0650 -1.1463
  531TIP3    H2 1558   5.574   6.210   3.619 -0.3985  0.0215  0.1998
  532TIP3   OH2 1559   2.062   6.596   2.761 -0.4997  0.2842  0.2127
  532TIP3    H1 1560   2.140   6.646   2.786  1.3201 -1.9562 -0.6731
  532TIP3    H2 1561   2.066   6.592   2.666 -0.7235 -1.3142  0.2543
  533TIP3   OH2 1562   1.650   5.060   1.025  0.1901 -0.2369  0.1773
  533TIP3    H1 1563   1.564   5.021   1.046  0.4069 -0.6533  0.3053
  533TIP3    H2 1564   1.712   4.989   1.042  0.3057 -0.9831 -2.9040
  534TIP3   OH2 1565   6.388   3.423   5.437  0.2980  0.1415 -0.1600
  534TIP3    H1 1566   6.445   3.362   5.391  2.0157  2.0937 -0.7816
  534TIP3    H2 1567   6.432   3.508   5.430 -0.3827  0.9530  3.3473
  535TIP3   OH2 1568   6.876   2.882   4.434 -0.2428  0.0435  0.0183
  535TIP3    H1 1569   6.840   2.828   4.364 -0.3858 -0.4823  0.4953
  535TIP3    H2 1570   6.953   2.835   4.465 -0.5878 -0.0804  0.6926
  536TIP3   OH2 1571   3.548   1.851   5.042  0.1365 -0.1744 -0.4567
  536TIP3    H1 1572   3.566   1.945   5.030  1.0953 -0.3936 -0.8164
  536TIP3    H2 1573   3.606   1.807   4.979  0.7677 -1.0751  0.7130
  537TIP3   OH2 1574   2.045   1.602   0.932 -0.1751  0.1156  0.0873
  537TIP3    H1 1575   2.117   1.597   0.995  0.7355  3.0842 -0.5361
  537TIP3    H2 1576   1.967   1.612   0.986  0.3513  0.6208  0.7802
  538TIP3   OH2 1577   1.566   1.051   0.091  0.0001  0.0580 -0.3749
  538TIP3    H1 1578   1.623   1.106   0.037 -1.0804  2.2352  0.5728
  538TIP3    H2 1579   1.606   1.052   0.177 -0.2291 -0.3603 -0.2615
  539TIP3   OH2 1580   5.759   3.404   4.058  0.9549  0.0201  0.3535
  539TIP3    H1 1581   5.808   3.456   4.122  0.4502 -0.6582  1.3130
  539TIP3    H2 1582   5.722   3.332   4.109  1.9174 -1.4957 -1.0087
  540TIP3   OH2 1583   5.731   0.637   2.927 -0.5882 -0.1863 -0.2800
  540TIP3    H1 1584   5.764   0.692   2.998 -1.0000  0.1083 -0.3113
  540TIP3    H2 1585   5.797   0.644   2.858 -0.3922 -0.1361 -0.0855
  541TIP3   OH2 1586   5.142   3.082   1.367 -0.0119 -0.3131 -0.1602
  541TIP3    H1 1587   5.130   3.128   1.450  0.6005  1.8080 -1.1910
  541TIP3    H2 1588   5.224   3.117   1.332 -0.5572 -0.7333 -1.9362
  542TIP3   OH2 1589   5.321   3.297   2.698  0.1660 -0.0623  0.1445
  542TIP3    H1 1590   5.242   3.246   2.712  0.5240 -1.2222 -1.7306
  542TIP3    H2 1591   5.292   3.388   2.702 -1.2178 -0.4690 -0.2322
  543TIP3   OH2 1592   2.801   3.372   3.430  0.3454  0.0920 -0.0552
  543TIP3    H1 1593   2.852   3.412   3.500  0.1745  0.8972 -0.3805
  543TIP3    H2 1594   2.760   3.445   3.385 -0.5603 -0.4985 -0.2238
  544TIP3   OH2 1595   5.849   4.976   4.420  0.5349 -0.0837 -0.7233
  544TIP3    H1 1596   5.849   4.894   4.371  0.0684  0.0360 -0.9286
  544TIP3    H2 1597   5.767   4.975   4.469 -0.6008  1.2731 -2.4547
  545TIP3   OH2 1598   3.442   6.325   3.567 -0.6045  0.0038 -0.2151
  545TIP3    H1 1599   3.435   6.317   3.471  0.1653  0.8750 -0.3573
  545TIP3    H2 1600   3.514   6.268   3.590  0.2262  0.9644 -0.3605
  546TIP3   OH2 1601   2.251   1.410   4.514 -0.8003 -0.5730 -0.0802
  546TIP3    H1 1602   2.222   1.370   4.433 -0.3852  0.3558 -0.7049
  546TIP3    H2 1603   2.290   1.338   4.564 -0.0659 -0.9613 -1.1770
  547TIP3   OH2 1604   6.917   2.905   0.032 -0.2679  0.0066 -0.4020
  547TIP3    H1 1605   7.009   2.886   0.047 -0.2061  1.0115  0.6599
  547TIP3    H2 1606   6.918   2.987  -0.017 -0.5922  0.3706  0.1852
  548TIP3   OH2 1607   3.639   0.681   5.590  0.1547 -0.1490  0.4267
  548TIP3    H1 1608   3.591   0.695   5.508  1.9711 -1.5989 -0.9683
  548TIP3    H2 1609   3.589   0.613   5.635  0.3329 -0.9254 -0.5223
  549TIP3   OH2 1610   4.704   0.039   0.568  0.2148  0.3036  0.1807
  549TIP3    H1 1611   4.784   0.062   0.520  0.7092 -2.7500 -0.7160
  549TIP3    H2 1612   4.634   0.081   0.519  0.9324 -0.6802 -1.8166
  550TIP3   OH2 1613   5.078   0.625   3.709 -0.1780  0.2708 -0.2748
  550TIP3    H1 1614   5.121   0.709   3.695  0.2924 -0.0745 -0.9631
  550TIP3    H2 1615   5.106   0.599   3.797  3.0841 -1.0679 -1.5400
  551TIP3   OH2 1616   2.193   6.337   0.604  0.5362  0.6733  0.6693
  551TIP3    H1 1617   2.184   6.427   0.571  1.0602  0.9466  1.2675
  551TIP3    H2 1618   2.107   6.317   0.640  0.8615  1.5290  1.9851
  552TIP3   OH2 1619   6.210   1.484   4.016  0.2505 -0.1781 -0.0524
  552TIP3    H1 1620   6.154   1.560   4.026  0.6616  0.1199  0.0057
  552TIP3    H2 1621   6.199   1.435   4.097 -2.0397 -1.5785 -1.0850
  553TIP3   OH2 1622   1.705   4.145   4.521  0.2928 -0.1024  0.4487
  553TIP3    H1 1623   1.680   4.215   4.461 -0.3300  0.1391  0.9869
  553TIP3    H2 1624   1.747   4.190   4.594  1.3290 -0.4199  0.0718
  554TIP3   OH2 1625   0.648   5.368   1.482 -0.2970  0.0318  0.0875
  554TIP3    H1 1626   0.628   5.319   1.562  0.5973 -0.2999  0.1270
  554TIP3    H2 1627   0.744   5.366   1.477 -0.3320  0.2975 -0.8367
  555TIP3   OH2 1628   5.945   3.016   2.333 -0.1188 -0.2059 -0.0274
  555TIP3    H1 1629   6.017   3.025   2.395 -0.1604 -1.1816  0.1840
  555TIP3    H2 1630   5.873   3.066   2.373  0.3241  0.4839 -0.0740
  556TIP3   OH2 1631   4.305   5.462   3.376  0.0616  0.4736 -0.1820
  556TIP3    H1 1632   4.217   5.465   3.412  0.2263 -1.2489  0.4579
  556TIP3    H2 1633   4.321   5.369   3.359  1.7339  0.7592 -0.3489
  557TIP3   OH2 1634   4.911   6.705   5.576  0.2475  0.1408  0.3710
  557TIP3    H1 1635   4.960   6.754   5.641 -1.2435  1.8770  0.2634
  557TIP3    H2 1636   4.968   6.702   5.499  0.1526  2.3012  0.1654
  558TIP3   OH2 1637   6.733   6.031   2.632  0.4598 -0.2323 -0.4099
  558TIP3    H1 1638   6.814   6.025   2.581  1.3468 -0.7757  0.9803
  558TIP3    H2 1639   6.707   6.123   2.625  1.9753  0.2829  0.1822
  559TIP3   OH2 1640   2.458   3.021   0.663  0.8632  0.0801 -0.6620
  559TIP3    H1 1641   2.380   2.978   0.696  0.8263 -0.3500 -1.2960
  559TIP3    H2 1642   2.425   3.085   0.599  0.9792  0.4039 -0.3983
  560TIP3   OH2 1643   6.893   2.961   3.862 -0.3983  0.6871 -0.0053
  560TIP3    H1 1644   6.982   2.996   3.858 -0.6084  1.1687 -0.6941
  560TIP3    H2 1645   6.884   2.929   3.952 -0.0457  2.0315  0.5460
  561TIP3   OH2 1646   3.002   6.385   5.282 -0.2548  0.6379  0.0366
  561TIP3    H1 1647   2.964   6.334   5.354  0.5413  0.7269  0.5341
  561TIP3    H2 1648   3.061   6.446   5.326  0.9098  0.1042 -0.7570
  562TIP3   OH2 1649   7.114   4.524   4.578  0.3319 -0.0816 -0.0784
  562TIP3    H1 1650   7.089   4.571   4.657  2.7120  0.5759  0.3603
  562TIP3    H2 1651   7.122   4.592   4.511 -0.6235 -0.5022 -0.6499
  563TIP3   OH2 1652   3.150   4.553   4.108 -0.0347  0.6366  0.3470
  563TIP3    H1 1653   3.187   4.641   4.118 -0.0546  0.8260 -1.0657
  563TIP3    H2 1654   3.132   4.525   4.198 -1.3736  2.6399  0.7751
  564TIP3   OH2 1655   0.331   4.277   3.779  0.2522 -0.2192 -0.0211
  564TIP3    H1 1656   0.343   4.347   3.714 -0.5952 -0.6134 -0.6223
  564TIP3    H2 1657   0.373   4.201   3.739 -1.8466 -0.9371 -0.9657
  565TIP3   OH2 1658   2.856   1.395   2.058  0.3360  0.1863  0.2832
  565TIP3    H1 1659   2.951   1.392   2.071  0.1805  0.4055  1.6393
  565TIP3    H2 1660   2.843   1.465   1.994  1.1162 -0.2735 -0.4026
  566TIP3   OH2 1661   6.663   3.969   5.324 -0.3167  0.3208 -0.0254
  566TIP3    H1 1662   6.584   3.930   5.362 -0.8962  0.9512 -0.5374
  566TIP3    H2 1663   6.698   4.026   5.393 -1.0902  1.0916 -0.2505
  567TIP3   OH2 1664   2.276   2.741   0.824  0.0103  0.1972  0.9146
  567TIP3    H1 1665   2.247   2.827   0.857 -0.6252  0.2371  0.2840
  567TIP3    H2 1666   2.283   2.687   0.903  0.1580  0.7502  1.2940
  568TIP3   OH2 1667   3.300   1.343   1.282  0.3110 -0.4390 -0.2943
  568TIP3    H1 1668   3.209   1.370   1.296  0.3341  0.0003 -0.9184
  568TIP3    H2 1669   3.297   1.248   1.280  0.2585 -0.5384  2.1646
  569TIP3   OH2 1670   1.794   4.658   5.595  0.2926 -0.2061 -0.6273
  569TIP3    H1 1671   1.816   4.570   5.565 -1.4301 -0.7009 -0.5345
  569TIP3    H2 1672   1.768   4.705   5.516  2.2559  0.6134 -0.8554
  570TIP3   OH2 1673   3.203   2.378   3.800  0.5731  0.3509  0.3404
  570TIP3    H1 1674   3.197   2.305   3.739 -2.1093  1.4356 -0.8758
  570TIP3    H2 1675   3.119   2.378   3.846  1.1913  1.6479  1.5458
  571TIP3   OH2 1676   1.539   4.692   0.403  0.0227 -0.4839  0.1376
  571TIP3    H1 1677   1.620   4.733   0.433  0.4447 -1.4719  0.3850
  571TIP3    H2 1678   1.495   4.760   0.351  1.4442 -0.2250 -0.7762
  572TIP3   OH2 1679   5.484   3.172   3.738 -0.0788  0.0902 -0.6320
  572TIP3    H1 1680   5.420   3.233   3.703 -0.6268 -0.3748 -0.4520
  572TIP3    H2 1681   5.569   3.210   3.715 -0.3761  1.5313  0.4695
  573TIP3   OH2 1682   1.534   1.678   1.043  0.3752  0.6276  0.1425
  573TIP3    H1 1683   1.527   1.773   1.039 -2.4268  0.4711 -0.9708
  573TIP3    H2 1684   1.504   1.648   0.957  1.5518 -1.2769  0.3362
  574TIP3   OH2 1685   1.273   3.092   0.096 -0.2862  0.2716  0.0074
  574TIP3    H1 1686   1.209   3.142   0.147 -1.2458 -2.2099  1.4395
  574TIP3    H2 1687   1.274   3.135   0.011 -2.2834  1.6741  0.6004
  575TIP3   OH2 1688   7.048   4.939   4.916  0.4881 -0.0852  0.0655
  575TIP3    H1 1689   7.026   5.021   4.873  0.4273 -0.7172 -1.1529
  575TIP3    H2 1690   7.143   4.934   4.912  0.4333 -0.6583 -1.0400
  576TIP3   OH2 1691   0.868   3.788   3.735  0.1133  0.8162  0.6021
  576TIP3    H1 1692   0.928   3.838   3.680 -1.0194  0.6695 -0.8246
  576TIP3    H2 1693   0.797   3.762   3.676 -0.1254 -1.1161  1.6665
  577TIP3   OH2 1694   1.723   3.999   3.588 -0.1501  0.2139  0.1675
  577TIP3    H1 1695   1.706   3.979   3.496 -1.1272 -1.6136  0.7088
  577TIP3    H2 1696   1.639   3.984   3.632 -0.3453  3.2052  1.0941
  578TIP3   OH2 1697   0.393   4.117   0.735  0.2803 -0.1367 -0.4952
  578TIP3    H1 1698   0.410   4.066   0.814 -2.6267 -1.5469 -0.6328
  578TIP3    H2 1699   0.332   4.185   0.764  0.0650  0.0168 -1.2941
  579TIP3   OH2 1700   0.862   4.378   5.088  0.1353 -0.0770 -0.1227
  579TIP3    H1 1701   0.914   4.317   5.140  0.9860 -1.3717 -2.3366
  579TIP3    H2 1702   0.926   4.437   5.048 -0.6251  1.9802  1.4867
  580TIP3   OH2 1703   3.264   6.582   0.758 -0.7303 -0.3869 -0.0909
  580TIP3    H1 1704   3.268   6.629   0.675  0.7732  0.2164  0.3003
  580TIP3    H2 1705   3.180   6.609   0.796 -0.1277  1.6664 -0.0861
  581TIP3   OH2 1706   0.246   1.016   3.498  0.5152 -0.9658  0.2772
  581TIP3    H1 1707   0.281   0.986   3.582 -0.8002 -0.0785  1.2012
  581TIP3    H2 1708   0.197   1.096   3.520 -0.4056 -1.0685 -1.2299
  582TIP3   OH2 1709   4.207   0.744   1.538  0.2471 -0.0510  0.1576
  582TIP3    H1 1710   4.159   0.824   1.515  0.4559  0.2166  0.6355
  582TIP3    H2 1711   4.221   0.751   1.632 -0.6467 -1.1609  0.3798
  583TIP3   OH2 1712   4.413   0.423   4.574  0.1400 -0.4291  0.1248
  583TIP3    H1 1713   4.494   0.474   4.573 -1.3692  2.1658 -0.9934
  583TIP3    H2 1714   4.438   0.338   4.610  2.8553  1.0751  2.1441
  584TIP3   OH2 1715   1.311   4.413   2.442  0.3117  0.3199 -0.1131
  584TIP3    H1 1716   1.375   4.398   2.372 -0.1131 -0.2622 -0.3872
  584TIP3    H2 1717   1.245   4.470   2.402  0.4063  0.5219  0.0178
  585TIP3   OH2 1718   5.251   5.480   2.927  0.1532  0.1213  0.1808
  585TIP3    H1 1719   5.188   5.423   2.883 -0.3130  0.3254  0.5715
  585TIP3    H2 1720   5.316   5.502   2.860  0.8256 -1.5503  0.2274
  586TIP3   OH2 1721   4.908   1.530   4.207 -0.1818 -0.2224  1.0282
  586TIP3    H1 1722   4.845   1.599   4.188 -0.4555 -0.2703  1.7136
  586TIP3    H2 1723   4.864   1.476   4.273 -0.3939 -1.6515 -0.2247
  587TIP3   OH2 1724   2.927   3.905   5.427 -0.0127 -0.4932 -0.1089
  587TIP3    H1 1725   2.844   3.952   5.428 -0.1673 -0.7615 -0.2152
  587TIP3    H2 1726   2.943   3.887   5.335 -0.2207 -1.1085 -0.0352
  588TIP3   OH2 1727   3.599   3.481   3.621 -0.2714  0.4450 -0.0008
  588TIP3    H1 1728   3.620   3.554   3.562  0.3510 -0.4594 -0.9330
  588TIP3    H2 1729   3.583   3.407   3.562 -1.6825  0.0029  0.8892
  589TIP3   OH2 1730   5.182   0.334   3.552  0.5444 -0.0159  0.4067
  589TIP3    H1 1731   5.161   0.416   3.507  0.0349 -0.1950  0.3126
  589TIP3    H2 1732   5.242   0.360   3.622  1.1372  0.3050 -0.2008
  590TIP3   OH2 1733   5.943   5.193   4.737  0.1911 -0.4468  0.0346
  590TIP3    H1 1734   5.880   5.129   4.770 -2.4876  0.7106 -2.3966
  590TIP3    H2 1735   5.970   5.242   4.815 -0.1405 -2.4152  1.4650
  591TIP3   OH2 1736   5.301   4.872   4.851  0.6819  0.3432 -0.3356
  591TIP3    H1 1737   5.292   4.843   4.942  0.2835 -0.8737 -0.7562
  591TIP3    H2 1738   5.212   4.872   4.817  0.9374 -0.1045 -1.0054
  592TIP3   OH2 1739   0.371   3.840   0.614 -0.0333 -0.1009  0.3103
  592TIP3    H1 1740   0.302   3.898   0.581 -0.6128 -0.5999  0.6229
  592TIP3    H2 1741   0.414   3.891   0.683  0.1613  0.3541 -0.1368
  593TIP3   OH2 1742   7.083   6.772   3.876 -0.4720 -0.1915  0.3881
  593TIP3    H1 1743   7.123   6.690   3.905  1.5304 -0.4460 -2.5968
  593TIP3    H2 1744   7.050   6.752   3.788  0.1736  2.1761 -0.4847
  594TIP3   OH2 1745   5.392   3.254   4.398  0.7660 -0.9709  0.3687
  594TIP3    H1 1746   5.384   3.251   4.493  0.8118  0.2751  0.4234
  594TIP3    H2 1747   5.475   3.212   4.379  1.2879 -0.2276  0.9754
  595TIP3   OH2 1748   0.076   2.032   4.624 -0.3974  0.4679  0.6140
  595TIP3    H1 1749   0.079   1.937   4.636  0.5917  0.3528 -0.4147
  595TIP3    H2 1750   0.160   2.063   4.657  0.0220  0.7681 -0.6824
  596TIP3   OH2 1751   1.695   1.822   3.801  0.3169  0.3638  0.2396
  596TIP3    H1 1752   1.605   1.788   3.797  0.3547  0.3483 -1.0756
  596TIP3    H2 1753   1.714   1.829   3.894 -1.5680  1.7234  0.5839
  597TIP3   OH2 1754   5.095   4.431   2.425 -0.6359  0.1964  0.5356
  597TIP3    H1 1755   5.122   4.472   2.508  2.7137 -2.2700  0.8583
  597TIP3    H2 1756   5.125   4.340   2.432 -2.3582 -0.7453 -2.5002
  598TIP3   OH2 1757   0.297   6.663   0.072  0.3627 -0.8554  0.0637
  598TIP3    H1 1758   0.234   6.670   0.000 -0.3423 -1.3397  0.6184
  598TIP3    H2 1759   0.361   6.598   0.042 -0.7669 -2.1917  0.4603
  599TIP3   OH2 1760   4.006   5.135   4.291 -0.0782  0.4393  0.2674
  599TIP3    H1 1761   4.057   5.055   4.278 -1.6988 -0.7257  0.7949
  599TIP3    H2 1762   4.025   5.161   4.381  0.3669  0.6124  0.1297
  600TIP3   OH2 1763   1.032   4.240   2.190 -0.1089 -0.0568 -0.2274
  600TIP3    H1 1764   1.041   4.166   2.249  0.8557  1.7582  2.0394
  600TIP3    H2 1765   0.941   4.236   2.161 -0.4037 -1.4354  0.7757
  601TIP3   OH2 1766   3.288   2.740   2.519 -0.2745  0.3090  0.2396
  601TIP3    H1 1767   3.347   2.665   2.521 -1.1535 -0.3882  0.2838
  601TIP3    H2 1768   3.333   2.805   2.465 -0.9432 -1.4580 -2.6431
  602TIP3   OH2 1769   6.630   3.883   4.710 -0.7459  0.5761  0.1648
  602TIP3    H1 1770   6.543   3.903   4.745  0.0374  2.9151  0.9611
  602TIP3    H2 1771   6.635   3.932   4.628 -0.1992  0.4239  0.1016
  603TIP3   OH2 1772   2.899   6.581   3.238 -0.3356 -0.0685  0.2071
  603TIP3    H1 1773   2.875   6.509   3.296 -0.1780 -0.7347 -0.5347
  603TIP3    H2 1774   2.953   6.639   3.292 -1.0952 -0.1081  1.0244
  604TIP3   OH2 1775   0.257   1.879   4.268 -0.3223  0.0883 -0.1249
  604TIP3    H1 1776   0.219   1.861   4.182 -1.5144  0.5298  0.2834
  604TIP3    H2 1777   0.201   1.832   4.330 -0.3196  0.9022  0.5147
  605TIP3   OH2 1778   2.359   0.816   1.656  0.0417  0.0852 -0.1492
  605TIP3    H1 1779   2.291   0.754   1.683  1.9078 -1.8481  0.3794
  605TIP3    H2 1780   2.438   0.786   1.701  1.6769  1.1188 -2.1670
  606TIP3   OH2 1781   6.421   4.368   2.726  0.2147 -0.0045 -0.0464
  606TIP3    H1 1782   6.514   4.353   2.746  0.3800  1.5928  0.5029
  606TIP3    H2 1783   6.382   4.394   2.809 -0.3603  0.9709 -0.6011
  607TIP3   OH2 1784   1.481   3.514   3.064 -0.0415 -0.2019  0.3947
  607TIP3    H1 1785   1.455   3.607   3.063 -0.0255 -0.1855 -1.3947
  607TIP3    H2 1786   1.574   3.515   3.042 -0.0175 -0.6430  0.4777
  608TIP3   OH2 1787   0.863   3.400   3.226  0.0987  0.1730 -0.2427
  608TIP3    H1 1788   0.927   3.329   3.230 -0.8482 -0.6622  1.2222
  608TIP3    H2 1789   0.910   3.472   3.185  0.8217 -1.5555 -2.6964
  609TIP3   OH2 1790   0.285   2.151   4.037  0.0956 -0.4190 -0.2047
  609TIP3    H1 1791   0.269   2.243   4.015 -1.3198 -0.5377  0.2262
  609TIP3    H2 1792   0.311   2.152   4.129  1.1644 -0.3666 -0.4942
  610TIP3   OH2 1793   1.300   2.992   5.320  0.0000 -0.2176 -0.3690
  610TIP3    H1 1794   1.301   3.087   5.314  0.8997 -0.3002 -1.9474
  610TIP3    H2 1795   1.223   2.965   5.269  0.3132 -0.3768 -0.7608
  611TIP3   OH2 1796   0.044   2.139   1.451  0.0593 -0.5684 -0.2508
  611TIP3    H1 1797   0.068   2.117   1.541 -1.8318 -0.6452  0.2739
  611TIP3    H2 1798  -0.042   2.180   1.458  0.9420  1.7802 -1.7905
  612TIP3   OH2 1799   0.913   1.650   0.039  0.2813 -0.2090 -0.1268
  612TIP3    H1 1800   0.999   1.636   0.078  0.9656 -0.0899 -1.5185
  612TIP3    H2 1801   0.930   1.655  -0.055 -0.5810  4.0381 -0.2857
  613TIP3   OH2 1802   3.575   1.995   3.667 -0.3190 -0.1095  0.3515
  613TIP3    H1 1803   3.540   1.966   3.583  1.8732 -2.3156  0.0812
  613TIP3    H2 1804   3.632   2.068   3.645 -0.6655  0.0899  0.1017
  614TIP3   OH2 1805   1.243   3.706   1.816 -0.0733  0.1619 -0.4836
  614TIP3    H1 1806   1.253   3.801   1.819 -1.9859  0.3908  0.3119
  614TIP3    H2 1807   1.300   3.678   1.745  0.6882  1.8717 -0.6043
  615TIP3   OH2 1808   2.958   3.996   3.266 -0.2319 -0.5255 -0.4350
  615TIP3    H1 1809   2.965   3.932   3.337  2.1341  1.0691  0.9145
  615TIP3    H2 1810   3.020   3.966   3.200  1.8764  0.9098  0.7706
  616TIP3   OH2 1811   5.189   4.807   2.546 -0.1098  0.0067 -0.5094
  616TIP3    H1 1812   5.188   4.816   2.641  1.4528  0.3120 -0.4926
  616TIP3    H2 1813   5.275   4.839   2.520 -0.5215 -0.0520 -2.0353
  617TIP3   OH2 1814   1.651   6.159   1.824 -0.4333  0.1220  0.2154
  617TIP3    H1 1815   1.711   6.088   1.800  0.7818  0.4561  2.0742
  617TIP3    H2 1816   1.603   6.178   1.743 -0.0924 -2.1216 -0.5729
  618TIP3   OH2 1817   6.117   0.534   5.526  0.2945  0.4303  0.3070
  618TIP3    H1 1818   6.125   0.524   5.432 -0.3131  2.3200  0.0253
  618TIP3    H2 1819   6.184   0.598   5.550 -0.0209  0.4991  1.0502
  619TIP3   OH2 1820   1.188   4.193   2.552 -0.3945  0.5496  0.3071
  619TIP3    H1 1821   1.249   4.135   2.597 -1.4793 -0.7043  0.2152
  619TIP3    H2 1822   1.242   4.268   2.525  0.7980  0.1362  1.4291
  620TIP3   OH2 1823   6.780   3.928   3.199 -0.3335 -0.6038 -0.4885
  620TIP3    H1 1824   6.872   3.946   3.180 -0.3640 -0.8533 -0.8760
  620TIP3    H2 1825   6.757   3.992   3.266  0.4744 -1.3439  0.5435
  621TIP3   OH2 1826   2.974   2.157   4.040 -0.4183  0.6960 -0.1262
  621TIP3    H1 1827   3.031   2.229   4.068  1.6605 -0.6247 -0.7144
  621TIP3    H2 1828   2.988   2.151   3.945  1.3022 -1.8705  0.1864
  622TIP3   OH2 1829   5.317   3.869   1.661  0.4755  0.1379 -0.3130
  622TIP3    H1 1830   5.277   3.812   1.595  0.3944  0.3996 -0.4964
  622TIP3    H2 1831   5.263   3.948   1.659  1.3960  0.7856 -1.0678
  623TIP3   OH2 1832   1.637   2.056   3.381  0.1695  0.6408  0.2487
  623TIP3    H1 1833   1.671   2.007   3.457  0.7334  0.2230 -0.2660
  623TIP3    H2 1834   1.555   2.011   3.359 -1.0225  1.9400  1.7839
  624TIP3   OH2 1835   3.911   0.747   3.483 -0.0505  0.3068  0.5533
  624TIP3    H1 1836   3.880   0.837   3.492  2.5330  1.2321  1.1004
  624TIP3    H2 1837   3.835   0.694   3.508 -1.4652  2.3240  0.8609
  625TIP3   OH2 1838   3.833   2.431   4.314  0.3640 -0.0250  0.2182
  625TIP3    H1 1839   3.873   2.449   4.399 -0.8052 -0.9046  0.9782
  625TIP3    H2 1840   3.902   2.388   4.264  0.9211  0.0884  0.8716
  626TIP3   OH2 1841   2.879   2.770   4.972  0.1749 -0.3557 -0.0166
  626TIP3    H1 1842   2.797   2.815   4.952  1.2864  2.4488  1.1769
  626TIP3    H2 1843   2.904   2.727   4.891 -2.6501 -1.6775 -0.2852
  627TIP3   OH2 1844   1.674   1.597   5.519 -0.5175  0.0463  0.0740
  627TIP3    H1 1845   1.686   1.641   5.603 -0.9594 -0.3271  0.3406
  627TIP3    H2 1846   1.760   1.564   5.496 -0.5125 -0.3648  0.6744
  628TIP3   OH2 1847   6.499   5.254   4.265 -0.0111  0.0357  0.1114
  628TIP3    H1 1848   6.556   5.331   4.274  2.8962 -1.8374 -0.7224
  628TIP3    H2 1849   6.470   5.234   4.354 -2.2785  2.9535  0.1869
  629TIP3   OH2 1850   4.714   5.607   2.328  0.2403 -0.2065  0.2402
  629TIP3    H1 1851   4.760   5.524   2.313  1.0753  0.4010 -0.6492
  629TIP3    H2 1852   4.744   5.636   2.414  1.1916 -0.0517 -0.1307
  630TIP3   OH2 1853   1.625   6.349   5.839 -0.1751  0.4511  0.1181
  630TIP3    H1 1854   1.630   6.258   5.871  1.6196  0.2353 -0.6512
  630TIP3    H2 1855   1.532   6.363   5.823 -0.6930 -0.7039  1.7727
  631TIP3   OH2 1856   4.764   1.597   5.710 -0.4276 -0.2856  0.1164
  631TIP3    H1 1857   4.763   1.633   5.621 -0.8956  0.0331  0.2454
  631TIP3    H2 1858   4.754   1.673   5.767  0.7960 -0.3895  0.4871
  632TIP3   OH2 1859   4.596   2.796   5.039 -0.1239 -0.3003 -0.2966
  632TIP3    H1 1860   4.649   2.782   4.961  1.0312  0.5288  0.3051
  632TIP3    H2 1861   4.574   2.708   5.070  0.0069 -0.6393 -1.1469
  633TIP3   OH2 1862   1.837   2.596   5.156 -0.0018  0.5434  0.6278
  633TIP3    H1 1863   1.894   2.554   5.092 -0.3812  0.0163  0.6277
  633TIP3    H2 1864   1.816   2.681   5.116 -0.7106 -0.0124 -0.2387
  634TIP3   OH2 1865   2.799   3.775   1.202 -0.1653 -0.3835  0.5500
  634TIP3    H1 1866   2.792   3.723   1.282 -1.4178 -0.0657  0.6615
  634TIP3    H2 1867   2.800   3.710   1.131 -2.3580 -0.5925  0.6508
  635TIP3   OH2 1868   3.645   6.341   4.852 -0.7836  0.4885 -0.1852
  635TIP3    H1 1869   3.714   6.406   4.841  0.1340 -0.2158  1.1003
  635TIP3    H2 1870   3.588   6.378   4.920  1.0069 -0.9514  2.2574
  636TIP3   OH2 1871   3.328   4.547   4.489 -0.0622  0.2722  0.1410
  636TIP3    H1 1872   3.398   4.611   4.472 -0.8224  0.2684 -4.0884
  636TIP3    H2 1873   3.374   4.464   4.502  0.7713  0.8561  1.1267
  637TIP3   OH2 1874   5.297   6.305   2.648  0.7862  0.3769 -0.3686
  637TIP3    H1 1875   5.226   6.333   2.589 -1.2694  0.6098  2.0387
  637TIP3    H2 1876   5.346   6.241   2.597 -1.3495 -0.0287 -2.0926
  638TIP3   OH2 1877   0.214   4.619   4.515 -0.1321  0.4507 -0.7459
  638TIP3    H1 1878   0.131   4.662   4.495 -0.5216 -0.3011 -0.8023
  638TIP3    H2 1879   0.279   4.689   4.514 -0.5629  0.8579 -2.0261
  639TIP3   OH2 1880   2.072   3.513   5.169  0.6554  0.1890 -0.3623
  639TIP3    H1 1881   1.987   3.500   5.127  0.4384 -0.7221  0.3369
  639TIP3    H2 1882   2.104   3.596   5.133  0.4332 -0.4925 -2.2599
  640TIP3   OH2 1883   5.758   0.476   4.632 -0.2103  0.1854 -0.1721
  640TIP3    H1 1884   5.695   0.543   4.661 -1.4187 -0.6882 -0.6737
  640TIP3    H2 1885   5.843   0.517   4.644 -0.8486  1.3034  0.8346
  641TIP3   OH2 1886   6.685   0.232   3.927  0.2397  0.2766 -0.5959
  641TIP3    H1 1887   6.768   0.278   3.942  1.1525 -0.6649 -2.4590
  641TIP3    H2 1888   6.698   0.146   3.967 -0.7766  0.9336  1.2386
  642TIP3   OH2 1889   5.809   2.355   4.479 -0.6570  0.1244 -0.2550
  642TIP3    H1 1890   5.739   2.371   4.543  0.7758 -1.3930  1.8261
  642TIP3    H2 1891   5.878   2.415   4.502 -1.0534  1.3861 -2.1061
  643TIP3   OH2 1892   0.382   0.605   4.668  0.0437 -0.4180  0.0054
  643TIP3    H1 1893   0.290   0.606   4.644 -0.1075  1.6904  0.4888
  643TIP3    H2 1894   0.385   0.648   4.754  1.5980  0.9195 -0.6666
  644TIP3   OH2 1895   5.083   3.105   1.632 -0.7742 -0.4339  0.2458
  644TIP3    H1 1896   4.993   3.073   1.632 -1.0228  0.2451  0.2787
  644TIP3    H2 1897   5.075   3.198   1.654 -0.1904 -0.0259 -1.1453
  645TIP3   OH2 1898   0.407   3.058   0.397  0.2355  0.2973 -0.3001
  645TIP3    H1 1899   0.361   3.012   0.468 -0.3360  1.2785 -0.0237
  645TIP3    H2 1900   0.490   3.084   0.436  0.2917  0.0585 -0.2585
  646TIP3   OH2 1901   0.584   4.000   0.332  0.0809 -0.2754  0.1628
  646TIP3    H1 1902   0.581   3.907   0.353 -2.2073 -0.2132  0.3338
  646TIP3    H2 1903   0.584   4.003   0.237 -0.7265 -0.4510  0.1538
  647TIP3   OH2 1904   6.372   2.281   5.138  0.1069  0.5232  0.3234
  647TIP3    H1 1905   6.290   2.324   5.111  1.2735  1.9358 -1.1696
  647TIP3    H2 1906   6.363   2.191   5.105 -0.3505  1.0193 -0.9981
  648TIP3   OH2 1907   0.263   3.414   3.338  0.3577  0.0398  0.4037
  648TIP3    H1 1908   0.292   3.346   3.277  0.6126  1.2673 -0.8951
  648TIP3    H2 1909   0.338   3.430   3.394  0.1916 -0.9614  0.9246
  649TIP3   OH2 1910   7.132   3.966   4.640  0.0433 -0.4138 -0.1534
  649TIP3    H1 1911   7.152   3.991   4.730 -0.4768 -0.4149 -0.0333
  649TIP3    H2 1912   7.179   4.029   4.586 -0.1526 -0.0245  0.1289
  650TIP3   OH2 1913   0.531   1.344   1.848 -0.0383  0.4598  0.0069
  650TIP3    H1 1914   0.446   1.384   1.868 -0.7790 -1.5708  1.2252
  650TIP3    H2 1915   0.532   1.337   1.753 -2.2122 -1.3490  0.0316
  651TIP3   OH2 1916   2.988   5.488   5.819  0.0308  0.8990 -0.3257
  651TIP3    H1 1917   2.895   5.488   5.796  0.2965  2.4315 -1.5751
  651TIP3    H2 1918   3.000   5.408   5.870 -2.2468  1.3405  1.0538
  652TIP3   OH2 1919   5.023   1.785   2.943 -0.6222 -0.5662  0.3349
  652TIP3    H1 1920   4.959   1.762   2.876 -1.4119 -0.7643  1.1371
  652TIP3    H2 1921   4.971   1.827   3.012  0.1157 -0.6941  0.9781
  653TIP3   OH2 1922   5.334   6.784   0.558  0.6539 -0.4360  0.1183
  653TIP3    H1 1923   5.424   6.756   0.578  0.6219 -1.3134 -0.9311
  653TIP3    H2 1924   5.308   6.833   0.636  2.7188  1.4989 -0.2859
  654TIP3   OH2 1925   4.537   4.325   0.206 -0.1135 -0.1760  0.0094
  654TIP3    H1 1926   4.598   4.392   0.176  2.3041 -1.6799  1.2589
  654TIP3    H2 1927   4.484   4.304   0.129 -1.2768  3.3565 -0.3196
  655TIP3   OH2 1928   3.961   3.789   3.359 -0.1008 -0.6537 -0.0845
  655TIP3    H1 1929   3.964   3.864   3.418  0.4998 -0.3460 -0.4906
  655TIP3    H2 1930   4.025   3.810   3.291 -1.8458 -0.2747 -1.7052
  656TIP3   OH2 1931   1.904   2.120   3.218  0.1935  0.8151  0.1100
  656TIP3    H1 1932   1.894   2.154   3.129  2.8869 -1.0491 -1.0109
  656TIP3    H2 1933   1.818   2.132   3.257 -1.6079  0.1939 -3.2782
  657TIP3   OH2 1934   4.722   1.292   2.460 -0.2587 -0.0165  0.3234
  657TIP3    H1 1935   4.774   1.349   2.403 -0.3112 -0.2709  0.0154
  657TIP3    H2 1936   4.646   1.345   2.484 -0.6888 -0.2078 -0.5750
  658TIP3   OH2 1937   0.830   1.746   5.350  0.1111 -0.1474  0.0189
  658TIP3    H1 1938   0.795   1.777   5.434  1.2034  0.7977  0.1573
  658TIP3    H2 1939   0.912   1.794   5.340  2.3992 -3.6293  0.6145
  659TIP3   OH2 1940   2.009   0.794   5.320  0.2256 -1.1126 -0.1122
  659TIP3    H1 1941   2.092   0.750   5.338  0.2797 -1.5256 -1.3264
  659TIP3    H2 1942   1.980   0.825   5.406  2.7376  1.0381  0.1201
  660TIP3   OH2 1943   1.688   0.595   5.605 -0.5009 -0.7345  0.0214
  660TIP3    H1 1944   1.630   0.595   5.529  0.7048 -1.1926 -0.9195
  660TIP3    H2 1945   1.706   0.502   5.621  0.4810 -0.5691 -0.0966
  661TIP3   OH2 1946   6.591   5.805   5.744  0.3464  0.2428 -0.0804
  661TIP3    H1 1947   6.510   5.849   5.720 -0.2266 -1.1694 -0.8449
  661TIP3    H2 1948   6.654   5.830   5.676  0.2578  0.5027 -0.0677
  662TIP3   OH2 1949   7.125   0.418   2.099  0.3092 -0.6522  0.5723
  662TIP3    H1 1950   7.077   0.464   2.167 -0.3670  0.5264 -0.6584
  662TIP3    H2 1951   7.189   0.364   2.147  2.4157  2.8734  2.1073
  663TIP3   OH2 1952   2.619   6.189   3.769  0.1052 -0.2047  0.0383
  663TIP3    H1 1953   2.549   6.150   3.820 -1.4813  1.6987 -0.5588
  663TIP3    H2 1954   2.664   6.247   3.831 -1.2010  1.3489 -0.3908
  664TIP3   OH2 1955   0.319   6.661   5.464  0.2219  0.1798  0.3418
  664TIP3    H1 1956   0.228   6.664   5.433  0.0428 -0.4542  0.7863
  664TIP3    H2 1957   0.339   6.568   5.468  0.9029  0.3206  0.2359
  665TIP3   OH2 1958   2.111   6.064   4.422  0.7323  0.1812 -0.0021
  665TIP3    H1 1959   2.191   6.097   4.463  0.6573 -0.5151  0.7475
  665TIP3    H2 1960   2.124   5.969   4.419 -0.3344 -0.0078  0.7575
  666TIP3   OH2 1961   1.056   5.950   1.262  0.3192  0.9364  0.3995
  666TIP3    H1 1962   0.992   6.012   1.226  0.0972  1.8711  2.2532
  666TIP3    H2 1963   1.006   5.870   1.276 -0.1048  1.2148  0.5139
  667TIP3   OH2 1964   6.140   1.527   5.559 -0.2315 -0.1984  0.4459
  667TIP3    H1 1965   6.052   1.550   5.530 -0.1636  0.9303  1.0879
  667TIP3    H2 1966   6.139   1.540   5.654  1.2054  1.9717  0.2322
  668TIP3   OH2 1967   0.871   3.425   4.005  0.2554  0.3302  0.3083
  668TIP3    H1 1968   0.794   3.455   4.054 -0.6853  1.7426 -1.9191
  668TIP3    H2 1969   0.864   3.329   4.007 -1.9770  0.4188 -0.3966
  669TIP3   OH2 1970   3.112   3.503   2.145 -0.3351  0.3538  0.4268
  669TIP3    H1 1971   3.187   3.517   2.087  0.0233 -2.2741  0.1652
  669TIP3    H2 1972   3.036   3.532   2.094  0.0922 -0.8213 -0.9253
  670TIP3   OH2 1973   6.071   4.221   1.361 -0.1685 -0.6742 -0.6096
  670TIP3    H1 1974   5.987   4.179   1.377 -0.3104 -1.1414 -2.3910
  670TIP3    H2 1975   6.067   4.250   1.270  1.4485 -0.3465 -0.6158
  671TIP3   OH2 1976   0.685   6.566   2.905 -0.3577 -0.1405  0.0254
  671TIP3    H1 1977   0.591   6.546   2.902 -0.4902  0.5238 -1.1216
  671TIP3    H2 1978   0.704   6.600   2.818  1.2091 -1.3280 -0.1341
  672TIP3   OH2 1979   4.668   3.164   0.440 -0.3108  0.0019  0.2030
  672TIP3    H1 1980   4.595   3.102   0.440 -0.5834  0.3153  0.4003
  672TIP3    H2 1981   4.671   3.197   0.350 -0.8615  0.4980  0.3577
  673TIP3   OH2 1982   2.476   2.767   0.184  0.1702 -0.2000 -0.4844
  673TIP3    H1 1983   2.528   2.842   0.155 -0.1939  0.7446  1.1747
  673TIP3    H2 1984   2.534   2.718   0.242 -0.1911 -0.1357 -0.0581
  674TIP3   OH2 1985   2.724   1.061   3.324  0.1498  0.4202 -0.7384
  674TIP3    H1 1986   2.676   1.072   3.242  1.1028  1.3595 -1.2047
  674TIP3    H2 1987   2.812   1.034   3.297  0.5217  0.8951 -0.0440
  675TIP3   OH2 1988   5.977   0.590   4.731  0.1411 -0.3189  0.4428
  675TIP3    H1 1989   5.941   0.617   4.815 -1.0028 -0.7260  0.1019
  675TIP3    H2 1990   6.042   0.656   4.710 -0.6631  0.6466  0.9275
  676TIP3   OH2 1991   6.707   2.667   1.260 -0.0930  0.1109  0.3486
  676TIP3    H1 1992   6.698   2.727   1.185  2.4197 -1.8328 -1.6696
  676TIP3    H2 1993   6.623   2.622   1.263 -1.1405  1.9369  0.3583
  677TIP3   OH2 1994   3.198   4.063   0.259  0.5669 -0.3421 -0.2331
  677TIP3    H1 1995   3.266   4.054   0.325  0.2692  0.0667  0.1297
  677TIP3    H2 1996   3.153   4.144   0.281  0.1720 -0.4378 -0.6670
  678TIP3   OH2 1997   3.262   0.651   3.951 -0.2411 -0.2928 -0.0518
  678TIP3    H1 1998   3.275   0.559   3.932  2.4258 -0.0261  0.0584
  678TIP3    H2 1999   3.243   0.691   3.866  0.1450 -0.7368 -0.3518
  679TIP3   OH2 2000   0.162   5.668   0.066 -0.0937  0.6589  0.2933
  679TIP3    H1 2001   0.144   5.600   0.131 -0.1616  2.0489  1.7786
  679TIP3    H2 2002   0.257   5.677   0.066  0.4091 -2.3517 -3.0646
  680TIP3   OH2 2003   3.292   2.943   5.783  0.4040  0.3323 -0.2255
  680TIP3    H1 2004   3.238   2.908   5.712 -2.0170  2.3230  0.4822
  680TIP3    H2 2005   3.234   2.942   5.859  2.2286  0.3088  1.2251
  681TIP3   OH2 2006   3.910   4.124   1.647  0.2575 -0.0934  0.7696
  681TIP3    H1 2007   3.871   4.046   1.606 -0.8437 -0.2652  2.0551
  681TIP3    H2 2008   3.893   4.194   1.585 -2.3760 -0.1283  1.3274
  682TIP3   OH2 2009   2.809   3.748   2.874  0.3426  0.2025  0.0521
  682TIP3    H1 2010   2.825   3.800   2.795 -0.1624  2.0027  1.0706
  682TIP3    H2 2011   2.713   3.742   2.879  0.3242  1.1638  1.1526
  683TIP3   OH2 2012   7.142   4.053   3.807 -0.0013  0.1934 -0.7090
  683TIP3    H1 2013   7.121   4.145   3.792  1.4382  0.7097  0.2395
  683TIP3    H2 2014   7.144   4.044   3.902 -0.4680 -0.9228 -0.7852
  684TIP3   OH2 2015   4.618   3.086   2.382 -0.0038  0.7199 -0.8015
  684TIP3    H1 2016   4.546   3.120   2.328 -0.5964  0.1347 -0.4068
  684TIP3    H2 2017   4.600   2.992   2.389 -0.7172  0.9588  1.5155
  685TIP3   OH2 2018   6.516   5.223   4.000 -0.8381  0.3682  0.4577
  685TIP3    H1 2019   6.464   5.297   3.968 -0.2359  0.2007 -0.9542
  685TIP3    H2 2020   6.506   5.227   4.096 -1.5585  1.7132  0.3520
  686TIP3   OH2 2021   3.596   4.646   2.919 -0.2992 -0.0308  0.1200
  686TIP3    H1 2022   3.593   4.740   2.899  0.3289 -0.3922 -1.8677
  686TIP3    H2 2023   3.652   4.609   2.852  0.9776 -1.6140  1.9533
  687TIP3   OH2 2024   0.247   2.540   2.268  0.1089  0.3682 -0.0196
  687TIP3    H1 2025   0.336   2.564   2.243  0.7146  1.0702  2.4995
  687TIP3    H2 2026   0.251   2.445   2.284  0.9295  0.6753  1.8189
  688TIP3   OH2 2027   0.234   5.795   2.023  0.2817  0.0587 -0.4952
  688TIP3    H1 2028   0.140   5.782   2.015  0.0373  0.7106  1.0800
  688TIP3    H2 2029   0.266   5.792   1.932 -1.1116 -1.0494 -0.9799
  689TIP3   OH2 2030   2.977   2.698   3.562 -0.1631  0.1620 -0.3177
  689TIP3    H1 2031   2.974   2.756   3.637  0.6675  0.5275 -0.5575
  689TIP3    H2 2032   2.896   2.716   3.514  0.0945  1.1480 -0.4034
  690TIP3   OH2 2033   2.211   1.068   5.299  0.2596 -0.2424  0.1048
  690TIP3    H1 2034   2.179   1.055   5.388  0.0955  0.9521  0.2463
  690TIP3    H2 2035   2.132   1.083   5.247  0.3782 -0.5674 -0.1718
  691TIP3   OH2 2036   1.349   2.543   2.655 -0.1220 -0.8512 -0.1595
  691TIP3    H1 2037   1.335   2.533   2.561 -0.6940  0.7631 -0.2741
  691TIP3    H2 2038   1.263   2.522   2.694 -0.1542 -0.5732 -0.0786
  692TIP3   OH2 2039   6.266   3.916   4.932 -0.1722  0.0284  0.5102
  692TIP3    H1 2040   6.296   3.951   4.848 -1.4615  2.3689  0.9425
  692TIP3    H2 2041   6.172   3.903   4.920 -0.0444 -1.5719  0.9967
  693TIP3   OH2 2042   0.695   1.977   2.777  0.5754 -0.4464 -0.2483
  693TIP3    H1 2043   0.660   2.065   2.761  0.0544 -0.3490  1.2062
  693TIP3    H2 2044   0.789   1.986   2.766  0.5719  0.4240  0.3267
  694TIP3   OH2 2045   6.250   0.643   5.254  0.0022 -0.5174 -0.0688
  694TIP3    H1 2046   6.254   0.714   5.317 -2.2245 -1.1493  0.8663
  694TIP3    H2 2047   6.240   0.687   5.169 -0.6617  0.3045  0.4189
  695TIP3   OH2 2048   2.219   5.996   0.810 -0.0306  0.1777 -0.3342
  695TIP3    H1 2049   2.176   6.079   0.830 -0.7032 -0.6123  1.7650
  695TIP3    H2 2050   2.312   6.016   0.809 -0.2502  1.4015 -2.3439
  696TIP3   OH2 2051   2.510   2.069   1.513 -0.5327  0.4743 -0.4639
  696TIP3    H1 2052   2.427   2.101   1.547 -1.3543 -1.4418 -0.5492
  696TIP3    H2 2053   2.501   2.074   1.417 -0.4175  0.5908 -0.4688
  697TIP3   OH2 2054   6.163   5.414   2.956 -0.1408 -0.2363  0.0352
  697TIP3    H1 2055   6.190   5.361   2.882 -0.6728 -1.4960  0.7166
  697TIP3    H2 2056   6.166   5.504   2.923 -2.1637 -0.8559 -2.0991
  698TIP3   OH2 2057   7.149   1.549   5.842 -0.5795  0.2402  0.2745
  698TIP3    H1 2058   7.114   1.489   5.776  3.4701 -0.3374 -1.6092
  698TIP3    H2 2059   7.198   1.614   5.792  1.7219  0.4433  2.6001
  699TIP3   OH2 2060   4.216   3.621   4.183  0.5326  0.2475  0.3895
  699TIP3    H1 2061   4.218   3.712   4.153 -0.4576  0.2989  0.4302
  699TIP3    H2 2062   4.142   3.618   4.244 -1.5370 -1.2610 -1.9589
  700TIP3   OH2 2063   2.981   0.127   4.197 -0.1872 -0.2496  0.0531
  700TIP3    H1 2064   3.033   0.190   4.147  0.8085  1.0918  2.5553
  700TIP3    H2 2065   3.013   0.042   4.169  1.5190  0.4907 -0.3914
  701TIP3   OH2 2066   6.600   6.597   4.662 -0.3894  0.0471  0.0769
  701TIP3    H1 2067   6.517   6.591   4.615  0.7459 -0.7563 -1.9692
  701TIP3    H2 2068   6.593   6.534   4.733 -1.6551  0.2823  0.1742
  702TIP3   OH2 2069   4.880   2.344   3.317  0.0456  0.1686  0.7625
  702TIP3    H1 2070   4.915   2.273   3.263 -0.6665  1.4191 -1.5119
  702TIP3    H2 2071   4.787   2.348   3.294 -0.1792  1.0407  1.7534
  703TIP3   OH2 2072   1.214   1.303   5.471 -0.1749 -0.3124  0.3443
  703TIP3    H1 2073   1.307   1.312   5.491  0.4423 -0.3569 -2.1482
  703TIP3    H2 2074   1.190   1.387   5.433 -0.8246 -0.7368 -0.1988
  704TIP3   OH2 2075   3.963   3.032   5.643 -0.4231  0.2544  0.1139
  704TIP3    H1 2076   3.927   3.102   5.588  0.4501  0.4927 -0.1713
  704TIP3    H2 2077   4.056   3.053   5.649 -0.5237  0.3159  1.8127
  705TIP3   OH2 2078   5.711   4.364   2.092  0.0227  0.7351  0.0229
  705TIP3    H1 2079   5.767   4.297   2.053 -0.3639 -0.2530  1.0965
  705TIP3    H2 2080   5.769   4.415   2.147  0.1526  0.7030 -0.0845
  706TIP3   OH2 2081   4.174   2.067   4.407  0.4021  1.0874 -0.0436
  706TIP3    H1 2082   4.104   2.056   4.471  0.9709 -1.6718  0.2423
  706TIP3    H2 2083   4.245   2.109   4.456  0.1443  0.8039  0.5824
  707TIP3   OH2 2084   4.411   1.045   1.690 -0.0184  0.0570  0.3030
  707TIP3    H1 2085   4.349   1.063   1.761 -1.8858  1.4098 -1.5909
  707TIP3    H2 2086   4.433   1.131   1.655  1.1852 -0.5730 -0.5583
  708TIP3   OH2 2087   0.891   3.610   4.980  0.7046  0.2441 -0.4884
  708TIP3    H1 2088   0.920   3.701   4.975  0.0632  0.4156 -1.2585
  708TIP3    H2 2089   0.972   3.559   4.987  1.0396  0.9130  0.8810
  709TIP3   OH2 2090   6.100   3.484   3.791  0.2294 -0.0726 -0.2297
  709TIP3    H1 2091   6.026   3.532   3.826  0.0878 -0.5188  0.1000
  709TIP3    H2 2092   6.069   3.449   3.707  0.5373  0.9161 -0.7638
  710TIP3   OH2 2093   5.510   5.927   4.286  0.2401  0.6527  0.8941
  710TIP3    H1 2094   5.511   5.982   4.208  2.3118  0.9882  1.0888
  710TIP3    H2 2095   5.477   5.984   4.355  1.0009  1.2212  0.7997
  711TIP3   OH2 2096   3.154   1.968   1.036  0.7960 -0.0076 -0.3511
  711TIP3    H1 2097   3.122   1.902   1.097 -0.9134  1.9050  0.9790
  711TIP3    H2 2098   3.174   1.920   0.956  0.7279 -2.2559  0.9118
  712TIP3   OH2 2099   0.587   3.665   3.268 -0.2011  0.0295 -0.0127
  712TIP3    H1 2100   0.499   3.655   3.232 -0.3636  0.4874  0.2502
  712TIP3    H2 2101   0.606   3.580   3.309 -0.5998 -0.0028  0.1050
  713TIP3   OH2 2102   5.961   1.420   1.744 -0.0112 -0.6125 -0.2214
  713TIP3    H1 2103   5.903   1.483   1.786  0.7620  0.4916 -0.7478
  713TIP3    H2 2104   5.904   1.350   1.714 -1.0336  0.3398 -0.5330
  714TIP3   OH2 2105   2.455   1.838   0.888 -0.5753 -1.1469 -0.1502
  714TIP3    H1 2106   2.378   1.789   0.858 -0.6416 -0.9939 -0.2311
  714TIP3    H2 2107   2.440   1.927   0.857 -0.4189 -1.0919 -0.0673
  715TIP3   OH2 2108   3.123   0.713   1.328 -0.1063 -0.2152  0.1627
  715TIP3    H1 2109   3.156   0.687   1.242 -0.3408 -0.4309  0.1350
  715TIP3    H2 2110   3.042   0.663   1.338  0.3327 -0.8027  0.8493
  716TIP3   OH2 2111   5.502   2.842   4.210 -0.4005  0.2549  0.2142
  716TIP3    H1 2112   5.565   2.770   4.211 -1.2745 -0.5475 -0.2553
  716TIP3    H2 2113   5.457   2.833   4.126  0.9706  2.7284 -0.8790
  717TIP3   OH2 2114   4.410   1.463   4.839  0.4712  0.5562 -0.0845
  717TIP3    H1 2115   4.391   1.440   4.930 -1.3433  0.5031 -0.4534
  717TIP3    H2 2116   4.402   1.558   4.836  0.0614  0.5178 -0.2822
  718TIP3   OH2 2117   6.313   2.660   2.378 -0.2972 -0.4868 -0.3313
  718TIP3    H1 2118   6.375   2.642   2.449 -0.9804 -1.8603 -0.0525
  718TIP3    H2 2119   6.240   2.601   2.394 -1.5064  0.7956 -0.9047
  719TIP3   OH2 2120   0.463   5.750   3.485 -0.2547  0.0027  0.0134
  719TIP3    H1 2121   0.432   5.837   3.459  0.0684  1.2308  3.2443
  719TIP3    H2 2122   0.422   5.734   3.570  0.1628 -2.8060 -0.2128
  720TIP3   OH2 2123   1.975   4.449   0.465  0.3123 -0.4531 -0.2643
  720TIP3    H1 2124   2.009   4.389   0.532 -0.2553  1.3312  1.6961
  720TIP3    H2 2125   2.048   4.509   0.448  0.1090 -0.2789 -0.5190
  721TIP3   OH2 2126   6.580   4.373   5.468  0.7222 -0.3042 -0.4565
  721TIP3    H1 2127   6.641   4.299   5.462  0.3132 -0.5383 -2.3378
  721TIP3    H2 2128   6.629   4.448   5.434  0.0479 -0.4567 -1.8129
  722TIP3   OH2 2129   1.051   0.253   4.012 -0.4006 -0.5023  0.5554
  722TIP3    H1 2130   1.056   0.293   4.099  0.1237  1.7310 -0.4143
  722TIP3    H2 2131   1.026   0.325   3.955  3.0600 -0.8749 -1.7423
  723TIP3   OH2 2132   6.746   5.935   0.819 -0.6852  0.0752  0.3506
  723TIP3    H1 2133   6.662   5.958   0.778 -1.6824 -2.5984  0.6880
  723TIP3    H2 2134   6.736   5.961   0.910 -0.4542  1.2837  0.0548
  724TIP3   OH2 2135   4.481   5.091   1.974  0.5892  0.1908  0.1489
  724TIP3    H1 2136   4.546   5.157   1.951  0.6032  0.6003  1.3400
  724TIP3    H2 2137   4.439   5.070   1.890  1.3145  0.9047 -0.4189
  725TIP3   OH2 2138   3.017   0.715   4.604 -0.3723 -0.3393 -0.0467
  725TIP3    H1 2139   2.995   0.793   4.552  0.2115 -0.0228  0.1704
  725TIP3    H2 2140   3.048   0.652   4.539 -0.6727 -0.3307 -0.2030
  726TIP3   OH2 2141   4.882   5.935   5.022 -0.0690  0.2320 -0.6207
  726TIP3    H1 2142   4.907   5.919   4.931  1.7150  2.2592 -0.5581
  726TIP3    H2 2143   4.952   5.991   5.057  0.8228 -2.6266  2.8216
  727TIP3   OH2 2144   2.746   1.307   0.370 -0.0525  0.0381 -0.3680
  727TIP3    H1 2145   2.730   1.343   0.458 -1.4615 -1.0797 -0.1315
  727TIP3    H2 2146   2.683   1.352   0.314  0.4221  0.2949 -0.7000
  728TIP3   OH2 2147   5.712   6.284   4.707 -0.5051  0.1522 -0.4731
  728TIP3    H1 2148   5.709   6.220   4.636  0.2138  1.3446 -1.6242
  728TIP3    H2 2149   5.675   6.238   4.782  1.5717 -2.1789 -0.7753
  729TIP3   OH2 2150   0.387   5.999   4.877 -0.2068 -0.0711 -0.3255
  729TIP3    H1 2151   0.338   5.981   4.796 -1.1914 -1.4723  0.5297
  729TIP3    H2 2152   0.379   5.918   4.928  2.2959 -0.0319  0.2482
  730TIP3   OH2 2153   1.030   6.573   4.064  0.5654  0.3222  0.4303
  730TIP3    H1 2154   1.100   6.631   4.033  0.3456  0.6208  0.4930
  730TIP3    H2 2155   1.072   6.518   4.130  1.2118 -0.7575 -0.8256
  731TIP3   OH2 2156   0.922   4.276   1.507  0.0493 -0.2076  0.1175
  731TIP3    H1 2157   0.847   4.327   1.538 -0.5218 -1.5035  0.9812
  731TIP3    H2 2158   0.975   4.262   1.585 -0.1049 -1.3906  0.0308
  732TIP3   OH2 2159   2.783   4.662   1.718  0.2193 -0.0399  0.0012
  732TIP3    H1 2160   2.781   4.614   1.801  0.8591  0.6366  0.4186
  732TIP3    H2 2161   2.696   4.702   1.711 -0.1525 -0.8464 -0.1139
  733TIP3   OH2 2162   1.276   5.763   5.478  0.0027  0.1015 -0.1940
  733TIP3    H1 2163   1.264   5.713   5.559  0.6824  0.2077 -0.0227
  733TIP3    H2 2164   1.282   5.697   5.409 -0.3721  0.0023 -0.1323
  734TIP3   OH2 2165   2.391   5.137   1.610 -0.1715 -0.4583 -0.2366
  734TIP3    H1 2166   2.374   5.053   1.566 -1.3534  0.5022 -1.7451
  734TIP3    H2 2167   2.486   5.150   1.602 -0.3559 -0.1802 -2.9369
  735TIP3   OH2 2168   4.993   1.347   2.050 -0.2780 -0.3459  0.1470
  735TIP3    H1 2169   5.040   1.425   2.081  1.4874 -2.4532  3.4649
  735TIP3    H2 2170   4.904   1.378   2.033  0.3307  2.3969  1.3502
  736TIP3   OH2 2171   7.216   4.301   5.409 -0.0502  0.4447  0.0105
  736TIP3    H1 2172   7.144   4.364   5.417 -0.8454 -0.5148  0.6391
  736TIP3    H2 2173   7.209   4.247   5.488  0.1331 -0.9276 -0.8933
  737TIP3   OH2 2174   0.127   3.992   1.971  0.2475 -0.2166  0.1285
  737TIP3    H1 2175   0.141   4.011   2.063  0.7457 -0.5621  0.1281
  737TIP3    H2 2176   0.037   4.019   1.954  0.8380  1.9855  0.1664
  738TIP3   OH2 2177   0.983   3.646   1.917  0.1680 -0.1181 -0.2851
  738TIP3    H1 2178   0.994   3.551   1.923 -0.9699 -0.3726 -1.6465
  738TIP3    H2 2179   1.071   3.680   1.901  0.7139 -0.8384  0.9983
  739TIP3   OH2 2180   1.206   3.741   4.588  0.1156 -0.5885 -0.0499
  739TIP3    H1 2181   1.295   3.739   4.554  0.3949  3.5207 -0.1191
  739TIP3    H2 2182   1.218   3.747   4.683  0.1449  1.8391 -0.1389
  740TIP3   OH2 2183   5.498   5.349   4.392 -0.2212  0.0512  0.3486
  740TIP3    H1 2184   5.570   5.365   4.453  0.0931 -1.2893  0.3485
  740TIP3    H2 2185   5.504   5.256   4.371 -0.6808  0.3596 -1.2789
  741TIP3   OH2 2186   2.076   2.222   2.532  0.0101  0.6330 -0.3541
  741TIP3    H1 2187   2.010   2.285   2.505  0.3950  0.4543 -1.8176
  741TIP3    H2 2188   2.146   2.274   2.569 -0.2791  0.9430 -0.2388
  742TIP3   OH2 2189   3.219   2.598   4.245 -0.6383 -0.0513 -0.0732
  742TIP3    H1 2190   3.303   2.562   4.216  0.0597  1.2521  0.2309
  742TIP3    H2 2191   3.206   2.675   4.190 -1.0911  0.3776  0.6108
  743TIP3   OH2 2192   1.301   3.353   2.905  0.2825  0.0455  0.4094
  743TIP3    H1 2193   1.362   3.339   2.833 -1.4435  3.2373 -1.9121
  743TIP3    H2 2194   1.353   3.393   2.974  1.3358  0.1909 -0.4513
  744TIP3   OH2 2195   6.293   2.146   1.892  0.0974 -0.2244 -0.4569
  744TIP3    H1 2196   6.260   2.231   1.920  0.0820 -0.7158  1.1426
  744TIP3    H2 2197   6.226   2.113   1.833  0.3630  1.0819 -1.5287
  745TIP3   OH2 2198   4.833   5.330   5.080  0.4241  0.0977  0.2714
  745TIP3    H1 2199   4.827   5.419   5.116 -0.3074  0.4721 -0.7257
  745TIP3    H2 2200   4.746   5.314   5.043  1.0038 -0.4580 -0.8824
  746TIP3   OH2 2201   4.126   3.160   4.753 -0.4979  0.2352  0.1362
  746TIP3    H1 2202   4.063   3.185   4.685 -0.5887 -0.9913 -0.2598
  746TIP3    H2 2203   4.211   3.186   4.719 -0.3128 -2.0879 -1.3725
  747TIP3   OH2 2204   1.388   4.900   4.357  0.2311  0.4481  0.2067
  747TIP3    H1 2205   1.376   4.928   4.448  0.2512  0.6257  0.1552
  747TIP3    H2 2206   1.364   4.977   4.305  1.3119  0.7136  0.0913
  748TIP3   OH2 2207   4.478   5.490   4.820 -0.2843  0.4828 -0.1012
  748TIP3    H1 2208   4.388   5.463   4.842 -1.2557  1.8194 -2.1261
  748TIP3    H2 2209   4.503   5.433   4.747  0.3055  0.5059  0.0781
  749TIP3   OH2 2210   2.156   0.270   4.050  0.3830  0.3030  0.4313
  749TIP3    H1 2211   2.212   0.261   4.127  0.1044  0.4166  0.6467
  749TIP3    H2 2212   2.093   0.198   4.057  0.0999  0.5627  0.5230
  750TIP3   OH2 2213   5.458   0.974   0.355 -0.0398 -0.2293 -0.1869
  750TIP3    H1 2214   5.399   0.900   0.341 -1.4489  1.0301 -1.2077
  750TIP3    H2 2215   5.406   1.039   0.403  1.3313 -0.0638  1.1476
  751TIP3   OH2 2216   1.046   5.174   0.160  0.0279 -0.5058 -0.0918
  751TIP3    H1 2217   1.040   5.269   0.170 -2.1788 -0.4185 -1.5997
  751TIP3    H2 2218   0.979   5.140   0.219  1.8347 -1.3130  1.6306
  752TIP3   OH2 2219   0.753   4.981   1.662 -0.1381 -0.0478  0.2175
  752TIP3    H1 2220   0.668   5.011   1.631  0.7223  2.0521 -0.2705
  752TIP3    H2 2221   0.797   4.947   1.584 -0.5585 -1.2640  0.4951
  753TIP3   OH2 2222   3.843   4.931   0.534  0.3500  0.0481 -0.0894
  753TIP3    H1 2223   3.784   4.857   0.551  0.0040  0.1302 -0.8997
  753TIP3    H2 2224   3.851   4.933   0.439  1.6037  0.0931  0.0086
  754TIP3   OH2 2225   4.613   1.117   1.352 -0.1624 -0.5792  0.0539
  754TIP3    H1 2226   4.635   1.146   1.263 -2.4494  1.1141 -0.0607
  754TIP3    H2 2227   4.589   1.025   1.342  0.0403 -0.5337 -1.0083
  755TIP3   OH2 2228   4.606   2.499   2.781  0.1915  0.0912 -0.9079
  755TIP3    H1 2229   4.591   2.591   2.805  1.7194  0.6575 -1.9660
  755TIP3    H2 2230   4.589   2.495   2.687 -1.5756 -1.1355 -0.5721
  756TIP3   OH2 2231   4.615   5.288   0.848 -0.0814 -0.4089  0.1314
  756TIP3    H1 2232   4.694   5.274   0.901 -0.4329  1.7592  1.3394
  756TIP3    H2 2233   4.555   5.219   0.876  0.8558 -1.2368  0.1953
  757TIP3   OH2 2234   2.313   0.427   1.416 -0.0928 -0.0313 -0.3587
  757TIP3    H1 2235   2.387   0.484   1.397 -0.7459  0.5513 -1.2132
  757TIP3    H2 2236   2.317   0.414   1.511 -0.1085  1.6946 -0.0935
  758TIP3   OH2 2237   2.093   5.908   5.135  0.3201 -0.0224 -0.0547
  758TIP3    H1 2238   2.182   5.930   5.107  1.2688 -1.5909  1.4982
  758TIP3    H2 2239   2.047   5.888   5.053  2.6779 -3.4592 -0.8021
  759TIP3   OH2 2240   6.464   0.164   2.903  0.1079 -0.4537 -0.1369
  759TIP3    H1 2241   6.501   0.186   2.988 -0.4804  1.3134 -0.2860
  759TIP3    H2 2242   6.394   0.229   2.890  0.8930  0.0188 -2.4377
  760TIP3   OH2 2243   4.254   0.941   5.538 -0.2094 -0.4224  0.3223
  760TIP3    H1 2244   4.313   0.868   5.557  2.2757  1.6187  0.9919
  760TIP3    H2 2245   4.312   1.012   5.512 -2.5483  1.2911 -0.5378
  761TIP3   OH2 2246   4.909   3.272   0.356  0.5637 -0.0574  0.0331
  761TIP3    H1 2247   4.956   3.214   0.415  1.1018  2.0277  1.7851
  761TIP3    H2 2248   4.823   3.284   0.397 -0.2096 -0.9857 -1.2551
  762TIP3   OH2 2249   4.557   4.974   1.429 -0.1713 -0.1579 -0.5538
  762TIP3    H1 2250   4.622   4.921   1.476 -1.8514 -1.6955  0.1677
  762TIP3    H2 2251   4.599   4.996   1.346  0.4895 -3.1114 -1.1242
  763TIP3   OH2 2252   6.662   2.833   1.056  0.3020  0.0191  0.6863
  763TIP3    H1 2253   6.683   2.836   0.962 -1.3348 -0.0166  0.2925
  763TIP3    H2 2254   6.650   2.925   1.080  3.0866  0.2612  1.4863
  764TIP3   OH2 2255   5.567   3.176   4.200 -0.8988 -0.0218 -0.1572
  764TIP3    H1 2256   5.607   3.099   4.159 -2.1949 -0.2809 -1.0020
  764TIP3    H2 2257   5.509   3.211   4.133 -1.6815  0.6443  0.8434
  765TIP3   OH2 2258   0.386   0.470   1.203 -1.0164  0.1524 -0.1280
  765TIP3    H1 2259   0.382   0.400   1.269  2.0371 -0.5271 -0.5227
  765TIP3    H2 2260   0.339   0.434   1.128 -1.2897 -0.6067  0.3885
  766TIP3   OH2 2261   6.522   5.401   2.986 -0.6631  0.0682 -0.2992
  766TIP3    H1 2262   6.483   5.431   2.904 -0.7377 -1.3790 -0.8270
  766TIP3    H2 2263   6.584   5.469   3.010 -1.4433  1.0311 -0.9726
  767TIP3   OH2 2264   4.450   3.532   4.798  0.0614  0.3491 -0.1783
  767TIP3    H1 2265   4.398   3.453   4.816 -0.4715  0.7202 -0.0749
  767TIP3    H2 2266   4.395   3.604   4.829  0.9784  0.6949  0.7030
  768TIP3   OH2 2267   0.229   4.367   2.006  0.5866 -0.3673  0.2566
  768TIP3    H1 2268   0.299   4.315   1.966  1.0183  0.4862 -0.1273
  768TIP3    H2 2269   0.216   4.440   1.945 -0.1369 -0.1206  0.6936
  769TIP3   OH2 2270   5.024   0.440   1.246 -0.0932 -0.1574  0.5812
  769TIP3    H1 2271   5.111   0.407   1.267 -0.2500  0.1354  1.7606
  769TIP3    H2 2272   4.965   0.370   1.274 -0.2518 -0.3581 -0.2183
  770TIP3   OH2 2273   6.355   3.849   0.694  0.4803 -0.0871 -0.2589
  770TIP3    H1 2274   6.421   3.893   0.748  0.2349 -1.4009  1.1830
  770TIP3    H2 2275   6.401   3.774   0.657  0.8799  1.2246 -2.6614
  771TIP3   OH2 2276   5.149   5.884   1.901 -0.0039 -0.1293  0.1555
  771TIP3    H1 2277   5.177   5.972   1.926  1.9064 -0.5015 -0.5086
  771TIP3    H2 2278   5.195   5.826   1.963  1.3871 -0.8157 -1.4514
  772TIP3   OH2 2279   1.036   4.287   1.263  0.6209 -0.5339 -0.2907
  772TIP3    H1 2280   1.008   4.294   1.354  0.6652 -0.6840 -0.2660
  772TIP3    H2 2281   0.959   4.313   1.212  0.1400 -1.8467 -0.2491
  773TIP3   OH2 2282   1.349   6.074   2.143 -0.0234 -0.9829  0.1034
  773TIP3    H1 2283   1.320   6.039   2.059 -1.1922  1.9636 -0.8472
  773TIP3    H2 2284   1.444   6.080   2.135 -0.2583  1.9813 -2.3248
  774TIP3   OH2 2285   2.689   3.531   0.795  0.1468 -0.0194  0.5450
  774TIP3    H1 2286   2.635   3.453   0.801  2.5664 -1.7501  1.6016
  774TIP3    H2 2287   2.645   3.595   0.852 -0.9037 -1.2430  1.1555
  775TIP3   OH2 2288   4.139   5.072   0.272  0.2406 -0.1147 -0.4166
  775TIP3    H1 2289   4.221   5.104   0.234  0.8604 -0.2188  0.7936
  775TIP3    H2 2290   4.072   5.104   0.213  0.9370  2.3293  0.0126
  776TIP3   OH2 2291   4.300   4.190   2.887 -0.1100 -0.1588 -0.7150
  776TIP3    H1 2292   4.375   4.221   2.938 -0.8163  0.0001  0.2342
  776TIP3    H2 2293   4.339   4.157   2.806  1.0954 -0.9565  0.1554
  777TIP3   OH2 2294   3.198   5.319   3.031 -0.0353  0.2587  0.0999
  777TIP3    H1 2295   3.134   5.343   3.098 -1.8528 -0.0519 -1.4666
  777TIP3    H2 2296   3.173   5.231   3.003  0.4916  0.4993 -1.2145
  778TIP3   OH2 2297   4.375   6.723   5.193  0.3537  0.8313  0.3151
  778TIP3    H1 2298   4.455   6.670   5.193  1.0135  1.7824 -0.8005
  778TIP3    H2 2299   4.366   6.753   5.283  0.0892 -0.9446  0.9257
  779TIP3   OH2 2300   1.242   4.377   4.242 -0.2294 -0.4614  0.2193
  779TIP3    H1 2301   1.328   4.335   4.236  0.6798  1.4379 -2.1087
  779TIP3    H2 2302   1.182   4.314   4.204 -0.1869 -2.3432  3.0393
  780TIP3   OH2 2303   3.610   4.274   1.531 -0.1679 -0.2783 -0.0322
  780TIP3    H1 2304   3.621   4.194   1.583  0.1346 -0.1216  0.1494
  780TIP3    H2 2305   3.565   4.245   1.451 -2.8625 -0.1262  1.3393
  781TIP3   OH2 2306   0.832   6.488   0.425 -0.4158  0.6214 -0.2386
  781TIP3    H1 2307   0.754   6.540   0.443 -0.7528  0.1034 -0.1584
  781TIP3    H2 2308   0.848   6.499   0.332  0.3892  2.0408  0.0505
  782TIP3   OH2 2309   4.656   3.215   5.685  0.2793  0.0856 -0.3558
  782TIP3    H1 2310   4.595   3.252   5.749  0.4017  1.3912 -0.9660
  782TIP3    H2 2311   4.662   3.122   5.709 -1.4236  0.0641  0.1278
  783TIP3   OH2 2312   1.315   0.330   3.080  0.4410  0.4121 -0.2897
  783TIP3    H1 2313   1.399   0.298   3.110  0.4618 -0.8636 -1.5956
  783TIP3    H2 2314   1.252   0.300   3.146  0.6222 -1.3915 -0.8829
  784TIP3   OH2 2315   2.900   3.560   1.953 -0.4836  0.2332 -0.1923
  784TIP3    H1 2316   2.817   3.515   1.969  0.0790 -0.3211  1.4428
  784TIP3    H2 2317   2.887   3.648   1.987 -0.3747  0.0919  0.2336
  785TIP3   OH2 2318   0.780   1.700   4.508  1.0439  0.1013 -0.9053
  785TIP3    H1 2319   0.734   1.779   4.536 -0.1017 -0.3837 -1.3510
  785TIP3    H2 2320   0.820   1.666   4.588 -0.6536 -0.2882 -0.1905
  786TIP3   OH2 2321   0.306   1.836   0.016  0.2019 -0.3544 -0.1726
  786TIP3    H1 2322   0.243   1.797   0.077  1.6093 -1.6322  0.5405
  786TIP3    H2 2323   0.377   1.772   0.011  1.4360  1.0139 -0.9847
  787TIP3   OH2 2324   1.859   3.742   3.696 -0.2733 -0.5426 -0.2122
  787TIP3    H1 2325   1.827   3.737   3.606 -0.3867  0.4752 -0.2473
  787TIP3    H2 2326   1.923   3.814   3.694  0.7531 -1.4129  0.2249
  788TIP3   OH2 2327   2.748   3.474   4.094 -0.2723 -0.1960 -0.7155
  788TIP3    H1 2328   2.755   3.565   4.064  0.4892  0.0581  0.2024
  788TIP3    H2 2329   2.827   3.459   4.145 -1.0436 -0.9455  0.3029
  789TIP3   OH2 2330   0.203   1.522   4.260 -0.1604 -0.4903 -0.2653
  789TIP3    H1 2331   0.179   1.436   4.297 -0.3566 -0.1902  0.3243
  789TIP3    H2 2332   0.274   1.552   4.316  0.5300 -0.6655 -1.0320
  790TIP3   OH2 2333   0.855   2.505   3.185  0.4454 -0.6269  0.1545
  790TIP3    H1 2334   0.817   2.586   3.222  2.7475  0.5052  0.2116
  790TIP3    H2 2335   0.829   2.437   3.247  0.0136  0.3991  1.1516
  791TIP3   OH2 2336   3.213   5.610   2.083  0.1215 -0.2837 -0.4281
  791TIP3    H1 2337   3.231   5.635   2.173  0.1663 -1.0747 -0.2157
  791TIP3    H2 2338   3.241   5.519   2.076  0.5473 -0.0986 -1.3646
  792TIP3   OH2 2339   4.354   2.124   5.226 -0.1995  0.0270  0.3674
  792TIP3    H1 2340   4.346   2.032   5.200  2.1320  0.0676 -0.7641
  792TIP3    H2 2341   4.266   2.149   5.253 -1.8889 -1.4314 -3.0947
  793TIP3   OH2 2342   2.321   6.598   5.790 -0.6547 -0.0626 -0.4676
  793TIP3    H1 2343   2.351   6.515   5.825  2.3373  1.7201  1.6697
  793TIP3    H2 2344   2.336   6.591   5.695  0.5603 -1.5799 -0.2068
  794TIP3   OH2 2345   6.231   2.603   4.905 -0.0391 -0.1185 -0.2459
  794TIP3    H1 2346   6.292   2.628   4.975 -0.6319 -1.4237  0.7873
  794TIP3    H2 2347   6.266   2.645   4.827  2.1140 -0.6769  0.3325
  795TIP3   OH2 2348   2.576   3.062   5.484  0.0450 -0.3336  0.4063
  795TIP3    H1 2349   2.529   3.011   5.551 -1.3807  0.2320 -0.1125
  795TIP3    H2 2350   2.507   3.094   5.426  1.2206 -0.5534 -1.1797
  796TIP3   OH2 2351   4.691   0.717   4.978 -0.1431  0.2160  0.1419
  796TIP3    H1 2352   4.698   0.717   5.073 -0.1826  1.0537  0.1530
  796TIP3    H2 2353   4.669   0.807   4.955 -1.0124 -0.1624 -0.5970
  797TIP3   OH2 2354   5.292   2.598   5.822  0.3461 -0.1372 -0.5441
  797TIP3    H1 2355   5.223   2.542   5.785  0.2840 -0.9220  0.7006
  797TIP3    H2 2356   5.294   2.575   5.915  1.1041  1.1371 -0.2259
  798TIP3   OH2 2357   2.197   3.859   2.049 -0.7815 -0.3267  0.4822
  798TIP3    H1 2358   2.154   3.826   1.970 -1.8398  2.0958 -0.0461
  798TIP3    H2 2359   2.182   3.954   2.046  0.7093  0.0370  2.6813
  799TIP3   OH2 2360   5.036   2.101   3.245  0.0988  0.9983 -0.1549
  799TIP3    H1 2361   5.061   2.032   3.307 -0.9912  0.5639 -0.1734
  799TIP3    H2 2362   5.118   2.146   3.226  0.5008  1.0188  1.4454
  800TIP3   OH2 2363   0.770   2.643   0.822  0.2275  0.2510 -0.1761
  800TIP3    H1 2364   0.746   2.580   0.754 -0.7214  0.3694  0.0376
  800TIP3    H2 2365   0.857   2.615   0.851  0.6903  0.2561 -1.4949
  801TIP3   OH2 2366   5.769   2.071   5.410  0.1041  0.3085 -0.7485
  801TIP3    H1 2367   5.709   2.079   5.337 -0.3350  0.4321 -0.3795
  801TIP3    H2 2368   5.854   2.053   5.370 -0.5198 -1.9066 -1.2232
  802TIP3   OH2 2369   1.344   0.036   5.474  0.7532 -0.3680 -0.5238
  802TIP3    H1 2370   1.289   0.111   5.497 -1.4195 -1.4501 -1.8498
  802TIP3    H2 2371   1.404   0.027   5.548 -2.3028 -0.4142  2.1774
  803TIP3   OH2 2372   1.269   0.105   4.253 -0.1458 -0.1192 -0.4820
  803TIP3    H1 2373   1.333   0.035   4.266 -0.1591 -0.4473 -2.0153
  803TIP3    H2 2374   1.319   0.177   4.214 -0.4192  0.1693 -0.3019
  804TIP3   OH2 2375   3.363   3.006   0.598 -0.0268 -0.0860 -0.1520
  804TIP3    H1 2376   3.348   3.066   0.670  2.8486 -0.0849  0.5573
  804TIP3    H2 2377   3.429   2.945   0.630 -1.1003 -2.1951 -1.6775
  805TIP3   OH2 2378   4.559   6.632   1.635  0.3462  0.2469  0.1176
  805TIP3    H1 2379   4.545   6.540   1.656  2.6213 -0.1987 -0.0409
  805TIP3    H2 2380   4.602   6.631   1.549 -0.8171  1.5550 -0.5271
  806TIP3   OH2 2381   1.733   4.002   3.232  0.3999 -0.1603  0.1854
  806TIP3    H1 2382   1.824   3.987   3.205  0.3194  1.3221 -1.0925
  806TIP3    H2 2383   1.726   4.097   3.240 -1.0469 -0.2444  0.2506
  807TIP3   OH2 2384   3.333   6.115   3.760 -0.2890 -0.1221 -0.2292
  807TIP3    H1 2385   3.332   6.140   3.668 -1.5767  1.7432  0.2367
  807TIP3    H2 2386   3.386   6.183   3.803 -0.0557 -0.7293  0.4845
  808TIP3   OH2 2387   6.483   3.214   3.439  0.4925 -0.7882  0.8794
  808TIP3    H1 2388   6.538   3.249   3.369  0.6515 -0.5631  1.1148
  808TIP3    H2 2389   6.457   3.127   3.408  0.5741 -0.6978  0.5487
  809TIP3   OH2 2390   1.744   0.313   3.741  0.2072 -0.2841 -0.0280
  809TIP3    H1 2391   1.749   0.229   3.694  0.7246  0.0314 -0.5455
  809TIP3    H2 2392   1.753   0.289   3.833  1.1074 -0.7417 -0.2178
  810TIP3   OH2 2393   3.519   3.100   0.371  0.2615 -0.3244 -0.7247
  810TIP3    H1 2394   3.493   3.058   0.453  0.5851 -2.4708 -1.6512
  810TIP3    H2 2395   3.459   3.174   0.362 -1.4874 -1.5595  0.2053
  811TIP3   OH2 2396   5.712   4.999   4.099  0.1834  0.5969  0.0153
  811TIP3    H1 2397   5.676   5.051   4.027 -1.3117 -0.2774  0.0848
  811TIP3    H2 2398   5.762   4.930   4.057 -1.6535 -0.6186 -0.2995
  812TIP3   OH2 2399   6.654   3.684   0.292  0.1360 -0.1764 -0.1437
  812TIP3    H1 2400   6.703   3.606   0.265 -0.6137 -0.1279 -1.7753
  812TIP3    H2 2401   6.672   3.692   0.385 -0.0311 -2.5177  0.1676
  813TIP3   OH2 2402   6.008   2.443   3.362  0.0190  0.2244  0.3945
  813TIP3    H1 2403   6.060   2.374   3.323 -3.3678 -2.0478 -0.5771
  813TIP3    H2 2404   6.062   2.477   3.433  2.1868 -2.8701  0.4229
  814TIP3   OH2 2405   4.735   1.441   5.318  0.2291  0.5714 -0.1771
  814TIP3    H1 2406   4.813   1.493   5.339  0.1126  0.6951 -0.0515
  814TIP3    H2 2407   4.661   1.496   5.346  0.1448 -0.5383  1.9177
  815TIP3   OH2 2408   1.292   3.492   1.305  0.1365  0.2897 -0.1471
  815TIP3    H1 2409   1.210   3.541   1.307 -0.3201 -0.4375 -0.5556
  815TIP3    H2 2410   1.317   3.484   1.397 -0.1136  0.7461 -0.0393
  816TIP3   OH2 2411   5.160   2.526   4.889  0.1330  0.4716 -0.3161
  816TIP3    H1 2412   5.164   2.573   4.973 -0.6303 -0.3529  0.1968
  816TIP3    H2 2413   5.186   2.437   4.911  2.6165  0.8278 -1.4648
  817TIP3   OH2 2414   3.021   4.315   1.325  0.1697  0.5176  0.1530
  817TIP3    H1 2415   3.102   4.349   1.363  0.2365  0.1705  0.3297
  817TIP3    H2 2416   2.963   4.300   1.400 -0.6067  2.1484 -0.0875
  818TIP3   OH2 2417   7.097   4.171   5.641  0.0717  0.1641 -0.1708
  818TIP3    H1 2418   7.010   4.159   5.602  0.7418 -2.7123 -1.0179
  818TIP3    H2 2419   7.080   4.183   5.734 -1.2454 -1.5492 -0.1313
  819TIP3   OH2 2420   1.619   0.874   5.675 -0.0570  0.3794 -0.0729
  819TIP3    H1 2421   1.627   0.785   5.710  0.6531  0.1128 -0.8937
  819TIP3    H2 2422   1.606   0.862   5.581  1.1541  1.1584 -0.3622
  820TIP3   OH2 2423   0.621   5.490   3.808 -0.1391  0.0759 -0.1015
  820TIP3    H1 2424   0.717   5.495   3.809 -0.0660 -0.5068 -1.5576
  820TIP3    H2 2425   0.600   5.464   3.719 -1.6688  0.1973  0.2060
  821TIP3   OH2 2426   4.525   2.169   5.727  0.0022 -0.1439  0.0380
  821TIP3    H1 2427   4.521   2.245   5.785  1.8378  0.5287 -0.6225
  821TIP3    H2 2428   4.484   2.199   5.646 -1.4136 -0.6721  0.5248
  822TIP3   OH2 2429   5.181   4.136   2.185  0.3622  0.4273 -0.4700
  822TIP3    H1 2430   5.093   4.123   2.150  0.2002 -1.5611  0.4952
  822TIP3    H2 2431   5.233   4.164   2.110 -1.2233  2.4455 -0.8892
  823TIP3   OH2 2432   4.248   2.390   4.291 -0.1978  0.1903 -0.1662
  823TIP3    H1 2433   4.251   2.299   4.321  2.6746  0.5004  0.7462
  823TIP3    H2 2434   4.172   2.393   4.233 -1.4033 -2.3381  1.0926
  824TIP3   OH2 2435   2.778   2.003   3.868  0.4187  0.7453  0.4178
  824TIP3    H1 2436   2.733   2.047   3.796 -0.6745  0.3267  0.8289
  824TIP3    H2 2437   2.871   2.009   3.845  0.0860 -2.8588 -3.1647
  825TIP3   OH2 2438   4.092   0.540   5.207 -0.4140  0.4657 -0.1607
  825TIP3    H1 2439   4.015   0.593   5.227 -2.1837 -1.5559 -1.1782
  825TIP3    H2 2440   4.057   0.466   5.157  2.3440 -0.0710 -1.4518
  826TIP3   OH2 2441   2.160   3.001   0.849 -0.0164  0.4180 -0.0286
  826TIP3    H1 2442   2.216   3.039   0.917 -0.8762  0.9083  0.4291
  826TIP3    H2 2443   2.113   3.076   0.813  0.5393  0.1778 -1.2818
  827TIP3   OH2 2444   2.187   4.411   1.874 -0.2983  0.5812 -0.2622
  827TIP3    H1 2445   2.280   4.433   1.883  0.3317 -1.6664 -0.6219
  827TIP3    H2 2446   2.157   4.398   1.964  0.5265 -1.4628 -0.2344
  828TIP3   OH2 2447   0.873   1.591   3.037 -0.0784 -0.4343 -0.1608
  828TIP3    H1 2448   0.947   1.641   3.071 -0.3128  0.3879 -0.8154
  828TIP3    H2 2449   0.812   1.658   3.005 -1.2885 -1.0756  0.7392
  829TIP3   OH2 2450   4.733   5.320   1.247  0.0428  0.1911  0.1400
  829TIP3    H1 2451   4.781   5.359   1.320  0.2301  0.0046  0.1187
  829TIP3    H2 2452   4.782   5.346   1.169  0.1855 -0.1001  0.1275
  830TIP3   OH2 2453   4.919   4.704   2.844 -0.0620  0.2772  0.0750
  830TIP3    H1 2454   4.877   4.628   2.803  1.5110 -0.4286 -0.3245
  830TIP3    H2 2455   4.974   4.666   2.912 -2.0515  1.3815  2.4458
  831TIP3   OH2 2456   1.752   3.808   1.122 -0.2156 -0.7859  0.0049
  831TIP3    H1 2457   1.658   3.819   1.110 -0.3976 -0.1671  1.6846
  831TIP3    H2 2458   1.769   3.716   1.103 -0.7380 -0.4109 -2.5630
  832TIP3   OH2 2459   2.753   4.432   4.525  0.0638 -0.3733  0.4918
  832TIP3    H1 2460   2.795   4.358   4.482  0.6101 -0.6253  1.4256
  832TIP3    H2 2461   2.822   4.470   4.580 -0.7929 -0.5018  1.6954
  833TIP3   OH2 2462   2.252   0.159   0.541  0.3384 -0.0964 -0.3519
  833TIP3    H1 2463   2.315   0.173   0.611  0.5317  0.8695 -0.6950
  833TIP3    H2 2464   2.197   0.238   0.542 -1.6920 -1.4295  0.7406
  834TIP3   OH2 2465   6.803   4.354   2.250  0.0387 -0.0953  0.1658
  834TIP3    H1 2466   6.752   4.298   2.309  2.8813 -0.7649  2.2044
  834TIP3    H2 2467   6.781   4.443   2.278 -0.7617 -0.3377  0.3282
  835TIP3   OH2 2468   1.137   2.912   0.774 -0.3177 -0.2126 -0.1234
  835TIP3    H1 2469   1.041   2.910   0.774 -0.3532  0.7826  0.4154
  835TIP3    H2 2470   1.162   2.836   0.827 -0.7776 -0.9003 -0.8638
  836TIP3   OH2 2471   6.705   5.051   1.228 -0.0270 -0.1953 -0.0004
  836TIP3    H1 2472   6.790   5.035   1.187  0.0662  0.6703 -0.1707
  836TIP3    H2 2473   6.642   5.039   1.157  0.1912  2.0474 -0.6351
  837TIP3   OH2 2474   1.418   5.167   1.609 -0.2169  0.2627  0.1929
  837TIP3    H1 2475   1.498   5.120   1.587  0.4503  0.1018  2.6289
  837TIP3    H2 2476   1.351   5.099   1.617 -0.2834  0.2416 -0.5112
  838TIP3   OH2 2477   7.137   0.792   5.358  0.1611  0.1162 -0.0826
  838TIP3    H1 2478   7.171   0.734   5.425  0.4837  0.6627  0.2348
  838TIP3    H2 2479   7.203   0.790   5.288  1.9246  2.6688  1.3368
  839TIP3   OH2 2480   0.483   5.085   5.422 -0.0252 -0.1649 -0.0763
  839TIP3    H1 2481   0.469   5.094   5.517 -0.8524  1.0549 -0.2894
  839TIP3    H2 2482   0.568   5.043   5.415  0.4068  0.4254  1.2150
  840TIP3   OH2 2483   5.807   6.410   0.769  0.2910 -0.5277 -0.0788
  840TIP3    H1 2484   5.761   6.380   0.691  0.6934  0.4981 -0.7413
  840TIP3    H2 2485   5.738   6.441   0.827  0.0558 -0.2053 -0.5262
  841TIP3   OH2 2486   3.247   1.594   1.649  0.0294  0.1791  0.0040
  841TIP3    H1 2487   3.290   1.669   1.607 -0.1699  0.3266  0.0611
  841TIP3    H2 2488   3.316   1.528   1.658  0.0651  0.1289 -0.5965
  842TIP3   OH2 2489   2.991   5.032   3.149 -0.3447  0.0908  0.3214
  842TIP3    H1 2490   2.932   4.958   3.165 -0.8920 -0.0522 -1.9769
  842TIP3    H2 2491   2.946   5.108   3.185 -1.5059 -0.1726 -0.5303
  843TIP3   OH2 2492   5.682   6.563   5.275 -0.3279 -0.1677 -0.5706
  843TIP3    H1 2493   5.713   6.599   5.192 -0.4406  1.0509 -0.0993
  843TIP3    H2 2494   5.587   6.565   5.269 -0.4625  2.8618  0.7260
  844TIP3   OH2 2495   4.733   3.625   0.185  0.5584  0.2220  0.2701
  844TIP3    H1 2496   4.797   3.574   0.135  0.4039  0.0599  0.2393
  844TIP3    H2 2497   4.713   3.700   0.129  0.1964 -0.0885 -0.0213
  845TIP3   OH2 2498   5.952   5.496   3.111 -0.3633 -0.5158  0.0207
  845TIP3    H1 2499   6.022   5.465   3.053  0.2453 -0.8997  0.9157
  845TIP3    H2 2500   5.901   5.418   3.131 -0.8846 -0.2873 -0.4074
  846TIP3   OH2 2501   1.638   6.562   0.917  0.0044 -0.0662 -0.6372
  846TIP3    H1 2502   1.703   6.505   0.956 -0.4492 -1.3809 -1.7014
  846TIP3    H2 2503   1.683   6.646   0.904  1.4201 -0.8695 -1.1436
  847TIP3   OH2 2504   3.127   0.973   2.508 -0.2286 -0.3973 -0.0701
  847TIP3    H1 2505   3.036   1.001   2.520  0.2016  0.8582  0.5255
  847TIP3    H2 2506   3.139   0.902   2.571 -0.9785 -1.0395 -0.6360
  848TIP3   OH2 2507   1.152   5.254   2.507  0.0843 -0.1051  0.5958
  848TIP3    H1 2508   1.241   5.289   2.502 -0.1072  0.3183  0.0578
  848TIP3    H2 2509   1.125   5.245   2.416 -0.2974 -0.5669  0.7514
  849TIP3   OH2 2510   5.543   3.730   3.070  0.3333 -0.1672 -0.3192
  849TIP3    H1 2511   5.590   3.652   3.101 -1.6021 -1.4300 -0.3486
  849TIP3    H2 2512   5.566   3.736   2.977  1.0689 -0.2456 -0.1519
  850TIP3   OH2 2513   6.138   6.159   1.433  0.3536  0.5088  0.3419
  850TIP3    H1 2514   6.127   6.066   1.452  1.6502  0.6956  2.3518
  850TIP3    H2 2515   6.225   6.165   1.393  0.2291  0.8291  0.1182
  851TIP3   OH2 2516   2.077   4.867   0.402 -0.3219 -0.3540  0.2564
  851TIP3    H1 2517   2.073   4.962   0.388 -0.0160 -0.4095 -0.2522
  851TIP3    H2 2518   2.113   4.833   0.320 -2.4718 -1.1157 -0.4493
  852TIP3   OH2 2519   2.875   0.825   2.647  0.3553 -0.1711  0.1315
  852TIP3    H1 2520   2.858   0.908   2.602 -1.3228 -1.4193 -1.7106
  852TIP3    H2 2521   2.821   0.830   2.727  0.5566  0.6374  0.2262
  853TIP3   OH2 2522   3.790   3.400   4.938 -0.5684 -0.3043 -0.3228
  853TIP3    H1 2523   3.821   3.481   4.978  0.0463 -0.5503 -0.2888
  853TIP3    H2 2524   3.721   3.369   4.997  0.2182 -0.5806  0.4852
  854TIP3   OH2 2525   1.745   3.371   1.427 -0.2125 -0.2046  0.3705
  854TIP3    H1 2526   1.759   3.461   1.456  1.5342 -0.6958  1.1867
  854TIP3    H2 2527   1.819   3.323   1.463 -0.6656 -1.8182 -0.7629
  855TIP3   OH2 2528   2.767   0.228   1.187  0.0459 -0.0953  0.3039
  855TIP3    H1 2529   2.698   0.212   1.252 -1.7431 -1.4572 -1.8132
  855TIP3    H2 2530   2.767   0.323   1.176 -0.9131 -0.0050  0.9231
  856TIP3   OH2 2531   6.373   3.206   1.068 -0.0206 -0.1531  0.3065
  856TIP3    H1 2532   6.296   3.215   1.125  1.8602 -1.2127  3.2860
  856TIP3    H2 2533   6.424   3.285   1.084  0.8991 -0.8135  0.7895
  857TIP3   OH2 2534   1.703   5.903   1.460  0.8174  0.2902 -0.6981
  857TIP3    H1 2535   1.734   5.984   1.418 -1.7113  2.3060  1.0242
  857TIP3    H2 2536   1.710   5.920   1.554  1.8426 -2.2332 -0.2512
  858TIP3   OH2 2537   6.007   0.083   0.409  0.0248 -0.0508 -0.4027
  858TIP3    H1 2538   6.046   0.136   0.339  1.0340  0.3914  0.4634
  858TIP3    H2 2539   5.997   0.144   0.482  0.9637 -0.9825  0.5238
  859TIP3   OH2 2540   4.196   3.246   3.699 -0.4527 -0.3022  0.4334
  859TIP3    H1 2541   4.142   3.294   3.763 -1.9223 -0.3694 -0.6967
  859TIP3    H2 2542   4.141   3.241   3.621  0.7000 -1.5670 -0.3352
  860TIP3   OH2 2543   3.138   3.168   5.611  0.0917 -0.0564  0.2093
  860TIP3    H1 2544   3.189   3.155   5.692 -1.0612 -0.4128  0.9109
  860TIP3    H2 2545   3.051   3.191   5.642 -0.8504 -1.9456 -0.8824
  861TIP3   OH2 2546   0.981   5.118   2.005  0.0472 -0.1967 -0.2331
  861TIP3    H1 2547   0.907   5.073   2.046 -0.6460  0.9443 -0.1886
  861TIP3    H2 2548   0.945   5.157   1.926  0.8103 -0.3613 -0.6680
  862TIP3   OH2 2549   0.520   1.191   0.090 -0.5864 -0.2308  0.3521
  862TIP3    H1 2550   0.563   1.247   0.154 -0.7416 -0.1492  0.3865
  862TIP3    H2 2551   0.427   1.197   0.112 -0.6632 -0.0221 -0.0208
  863TIP3   OH2 2552   1.859   1.334   0.594  0.2715  0.1448  0.1920
  863TIP3    H1 2553   1.947   1.372   0.594  0.2599  0.1730 -0.0732
  863TIP3    H2 2554   1.873   1.242   0.570  0.4778 -0.4491  2.3443
  864TIP3   OH2 2555   1.555   6.161   0.158 -0.5999 -0.3887  0.0535
  864TIP3    H1 2556   1.463   6.187   0.150 -0.6247 -0.4849  0.0305
  864TIP3    H2 2557   1.552   6.067   0.173 -0.5548 -0.2525  1.0304
  865TIP3   OH2 2558   3.006   3.484   5.084  0.3791  0.4344 -0.2444
  865TIP3    H1 2559   3.038   3.408   5.134  0.2434 -0.8069 -1.9469
  865TIP3    H2 2560   3.057   3.482   5.003 -0.4303  1.5038 -0.8061
  866TIP3   OH2 2561   7.154   3.192   4.421  0.4585 -0.6282  0.1723
  866TIP3    H1 2562   7.217   3.244   4.472 -2.3339  1.3837  1.8442
  866TIP3    H2 2563   7.170   3.219   4.330  1.0086  0.9988  0.7184
  867TIP3   OH2 2564   5.795   6.542   4.610 -0.2202  0.3841  0.2390
  867TIP3    H1 2565   5.766   6.458   4.647  0.0120 -0.1519 -0.7476
  867TIP3    H2 2566   5.852   6.579   4.677 -0.0785 -0.3975  0.5681
  868TIP3   OH2 2567   6.315   2.409   4.548 -0.3479 -0.1593  0.1490
  868TIP3    H1 2568   6.329   2.347   4.620 -0.2699 -0.1791  0.1164
  868TIP3    H2 2569   6.402   2.445   4.530  0.1582 -2.1130 -1.7423
  869TIP3   OH2 2570   6.239   0.852   4.065 -0.0796  0.1133  0.4486
  869TIP3    H1 2571   6.189   0.797   4.003  1.3038 -2.1694  1.2331
  869TIP3    H2 2572   6.295   0.906   4.009 -0.7080 -0.0373 -0.3423
  870TIP3   OH2 2573   4.181   6.189   0.036  0.4636  0.0100 -0.7164
  870TIP3    H1 2574   4.177   6.093   0.038 -0.4514  0.0207  1.5426
  870TIP3    H2 2575   4.142   6.213  -0.047 -2.3159 -1.5398 -0.0054
  871TIP3   OH2 2576   5.370   5.647   0.913 -0.1052  0.7316  0.1776
  871TIP3    H1 2577   5.342   5.556   0.921  0.3841  0.6422  1.0326
  871TIP3    H2 2578   5.296   5.692   0.872 -0.7180  0.1235  0.5960
  872TIP3   OH2 2579   0.582   4.523   1.165 -0.5113 -0.1673 -0.4304
  872TIP3    H1 2580   0.641   4.578   1.216 -1.3941  0.1798  0.2530
  872TIP3    H2 2581   0.527   4.585   1.117 -1.7198 -0.3919  0.5814
  873TIP3   OH2 2582   5.881   4.469   0.644 -0.1474  0.1185  0.0936
  873TIP3    H1 2583   5.934   4.534   0.597 -2.2608  1.2019 -0.9503
  873TIP3    H2 2584   5.810   4.520   0.684 -1.0705 -1.3719  0.4343
  874TIP3   OH2 2585   1.021   1.554   2.307 -0.6370  0.2193 -0.1105
  874TIP3    H1 2586   0.959   1.508   2.364  0.5680 -2.1609 -0.6114
  874TIP3    H2 2587   1.098   1.568   2.362 -0.0585 -0.6708 -0.6761
  875TIP3   OH2 2588   0.453   1.566   2.121  0.5685 -0.0859  0.1103
  875TIP3    H1 2589   0.526   1.612   2.081  0.5632 -0.0681  0.1213
  875TIP3    H2 2590   0.491   1.519   2.195  0.8411 -1.2187 -0.7090
  876TIP3   OH2 2591   3.646   6.672   2.100  0.1284  0.5595  0.2066
  876TIP3    H1 2592   3.711   6.602   2.110  0.2409  0.7947  1.1912
  876TIP3    H2 2593   3.698   6.751   2.089  0.0096  0.4362 -1.5780
  877TIP3   OH2 2594   3.973   1.811   3.052 -0.2121  0.3452 -0.3412
  877TIP3    H1 2595   4.019   1.741   3.100 -0.7124  0.7515  0.7641
  877TIP3    H2 2596   3.887   1.774   3.033 -0.7413  0.8732  0.8793
  878TIP3   OH2 2597   2.672   1.749   5.229 -0.0666  0.1592 -0.2719
  878TIP3    H1 2598   2.728   1.799   5.169  0.7062 -1.4339 -0.9208
  878TIP3    H2 2599   2.701   1.659   5.220 -2.8805 -0.7919 -0.7487
  879TIP3   OH2 2600   1.279   2.831   3.154  0.5497  0.1315 -0.1819
  879TIP3    H1 2601   1.361   2.880   3.151  0.4649  0.2627 -0.3777
  879TIP3    H2 2602   1.306   2.740   3.170  0.7436  0.1493 -0.4003
  880TIP3   OH2 2603   1.501   6.471   4.831  0.2770  0.1423  0.3762
  880TIP3    H1 2604   1.520   6.453   4.923  0.5309  1.4332  0.6011
  880TIP3    H2 2605   1.566   6.537   4.806 -0.8548  1.0592 -0.2404
  881TIP3   OH2 2606   6.540   1.400   5.651 -0.3190 -0.1999 -0.7790
  881TIP3    H1 2607   6.548   1.476   5.593 -1.7254 -0.3095 -1.1475
  881TIP3    H2 2608   6.495   1.434   5.728 -0.1776 -0.4785 -0.5706
  882TIP3   OH2 2609   7.122   3.422   2.394 -0.4330  0.6117  0.3624
  882TIP3    H1 2610   7.178   3.353   2.429  1.5967  2.8267  1.7661
  882TIP3    H2 2611   7.070   3.451   2.469 -0.0174  1.7201  0.2408
  883TIP3   OH2 2612   3.389   3.337   4.485  0.3786 -0.0610  0.8103
  883TIP3    H1 2613   3.301   3.308   4.508 -0.3358  0.1772 -1.4047
  883TIP3    H2 2614   3.419   3.273   4.419  2.5641 -1.1064  2.6663
  884TIP3   OH2 2615   7.180   1.997   0.807  0.1359  0.0495  0.0781
  884TIP3    H1 2616   7.245   2.029   0.745  0.7215 -0.6400  0.3246
  884TIP3    H2 2617   7.096   2.015   0.764  0.4327  1.6756  0.1136
  885TIP3   OH2 2618   4.501   3.175   0.764  0.3613  0.4427 -0.5134
  885TIP3    H1 2619   4.552   3.249   0.733  0.0293 -0.5123 -3.6922
  885TIP3    H2 2620   4.415   3.187   0.724 -0.0386 -1.0849 -0.1844
  886TIP3   OH2 2621   1.631   1.842   4.679 -0.3488 -0.0833  0.2351
  886TIP3    H1 2622   1.543   1.827   4.643 -0.5343 -1.6328  1.2824
  886TIP3    H2 2623   1.680   1.763   4.657  0.6245  0.5273  0.1701
  887TIP3   OH2 2624   4.697   3.544   3.299  0.2474  0.9577  0.0602
  887TIP3    H1 2625   4.605   3.571   3.296  0.7741  2.8570 -1.1522
  887TIP3    H2 2626   4.722   3.553   3.391 -1.0544 -0.7482  0.6288
  888TIP3   OH2 2627   1.792   2.825   0.676 -0.6048  0.4163 -0.0663
  888TIP3    H1 2628   1.720   2.889   0.677  0.1328  1.2684  1.0448
  888TIP3    H2 2629   1.870   2.879   0.664 -0.1801 -0.5831 -2.4409
  889TIP3   OH2 2630  -0.019   1.580   3.129 -0.0572 -0.5099 -0.3236
  889TIP3    H1 2631   0.003   1.644   3.060  0.5627 -0.3363  0.0254
  889TIP3    H2 2632   0.065   1.560   3.170 -0.2422 -1.6185 -0.4791
  890TIP3   OH2 2633   0.783   0.773   0.440 -0.7127 -0.4603 -0.1101
  890TIP3    H1 2634   0.692   0.751   0.419 -0.3690 -0.5064 -1.7057
  890TIP3    H2 2635   0.784   0.869   0.445 -0.9420 -0.4827  0.4133
  891TIP3   OH2 2636   3.573   0.398   2.337  0.1856  0.1620 -0.0934
  891TIP3    H1 2637   3.491   0.427   2.377  0.1457  1.1723 -0.8585
  891TIP3    H2 2638   3.632   0.474   2.345  1.0571 -0.5439  0.4371
  892TIP3   OH2 2639   1.680   2.480   1.262 -0.1245  0.7726 -0.0763
  892TIP3    H1 2640   1.616   2.415   1.289 -0.9147  0.6387 -2.1304
  892TIP3    H2 2641   1.683   2.542   1.335 -1.1300 -0.2789  0.8875
  893TIP3   OH2 2642   0.300   0.249   1.368 -0.7230 -0.5009 -0.0669
  893TIP3    H1 2643   0.391   0.246   1.397 -0.9017  1.2734  0.7535
  893TIP3    H2 2644   0.270   0.158   1.376  0.9555 -1.1154 -0.3540
  894TIP3   OH2 2645   1.319   4.376   3.291 -0.1047 -0.0470 -0.4651
  894TIP3    H1 2646   1.230   4.341   3.302 -0.2749  0.5941  0.3309
  894TIP3    H2 2647   1.306   4.469   3.273  0.4124  0.4012  1.2446
  895TIP3   OH2 2648   5.473   0.612   5.541  0.6925  0.3995  0.0594
  895TIP3    H1 2649   5.563   0.636   5.519  0.6697  0.1560 -0.3137
  895TIP3    H2 2650   5.422   0.636   5.464  0.5384 -0.0391  0.0190
  896TIP3   OH2 2651   5.957   5.302   2.110 -0.5278  0.2188 -0.3909
  896TIP3    H1 2652   5.949   5.369   2.041  0.1177  0.3567 -0.3375
  896TIP3    H2 2653   6.043   5.318   2.149 -0.5089 -0.4336 -0.1539
  897TIP3   OH2 2654   3.398   1.780   1.498  0.0672  0.6310 -0.0894
  897TIP3    H1 2655   3.423   1.740   1.414  0.1620  1.6061 -0.5435
  897TIP3    H2 2656   3.479   1.788   1.547  0.0809  0.4520 -0.0847
  898TIP3   OH2 2657   7.166   2.558   4.677 -0.1811 -0.2473 -0.5192
  898TIP3    H1 2658   7.228   2.486   4.685 -0.6010 -0.5304  0.2791
  898TIP3    H2 2659   7.158   2.593   4.766  1.1625  1.7726 -1.1104
  899TIP3   OH2 2660   3.799   5.371   5.514  0.1687 -0.0456  0.4329
  899TIP3    H1 2661   3.881   5.400   5.474  0.3367  1.3044  1.6678
  899TIP3    H2 2662   3.810   5.277   5.527  0.5850 -0.3081 -1.4875
  900TIP3   OH2 2663   5.775   1.909   3.786  0.0796 -0.0288 -0.0632
  900TIP3    H1 2664   5.698   1.855   3.773  0.0093  0.1714 -0.4961
  900TIP3    H2 2665   5.741   1.992   3.818  0.1027  0.0972 -0.3603
  901TIP3   OH2 2666   5.474   3.869   5.803 -0.1273 -0.6481 -0.7196
  901TIP3    H1 2667   5.460   3.853   5.710 -1.0248 -2.1260 -0.3689
  901TIP3    H2 2668   5.463   3.783   5.844 -1.2873  0.2155  0.9101
  902TIP3   OH2 2669   1.296   0.800   1.151 -0.2999 -0.1902  0.2780
  902TIP3    H1 2670   1.203   0.776   1.153 -0.4896 -0.0815 -2.5211
  902TIP3    H2 2671   1.295   0.893   1.128  0.4647 -0.3582 -0.4843
  903TIP3   OH2 2672   1.885   2.290   5.858  0.2396 -0.2876  0.3707
  903TIP3    H1 2673   1.976   2.294   5.828 -0.0849 -3.6734 -1.4551
  903TIP3    H2 2674   1.838   2.245   5.789 -2.8501  1.0758  1.4104
  904TIP3   OH2 2675   2.761   5.535   4.337  0.4045  0.3147 -0.8320
  904TIP3    H1 2676   2.680   5.555   4.383  0.3739 -0.9072 -0.3129
  904TIP3    H2 2677   2.766   5.439   4.336  0.7431  0.2928 -2.7801
  905TIP3   OH2 2678   7.191   6.433   1.449 -0.2736  1.0683 -0.5484
  905TIP3    H1 2679   7.139   6.360   1.482  0.8144  0.6356  0.2652
  905TIP3    H2 2680   7.248   6.395   1.382 -1.3188  1.6328 -1.7942
  906TIP3   OH2 2681   3.135   5.597   2.595  0.1173  0.5029  0.1637
  906TIP3    H1 2682   3.066   5.531   2.589 -1.3837  2.0153  0.0448
  906TIP3    H2 2683   3.150   5.608   2.689 -1.2847  1.5964  0.2884
  907TIP3   OH2 2684   0.219   6.275   5.433 -0.7577 -0.3138 -0.0862
  907TIP3    H1 2685   0.188   6.321   5.355 -2.5860 -0.6635  0.3893
  907TIP3    H2 2686   0.270   6.340   5.481  0.2858 -0.0480 -1.4531
  908TIP3   OH2 2687   2.108   4.641   1.519 -0.3495 -0.1819 -0.4112
  908TIP3    H1 2688   2.041   4.678   1.463 -0.3716  0.6730  0.1698
  908TIP3    H2 2689   2.099   4.687   1.602  1.6511  0.7581 -0.6548
  909TIP3   OH2 2690   2.423   6.000   4.143  0.2256  0.4261 -0.1787
  909TIP3    H1 2691   2.509   6.043   4.146 -0.7701  2.7004 -1.3435
  909TIP3    H2 2692   2.382   6.034   4.064 -1.7364 -0.6528  0.3090
  910TIP3   OH2 2693   2.314   4.945   3.660 -0.3284 -0.6097  0.5049
  910TIP3    H1 2694   2.357   4.983   3.737  0.6438  1.0794 -0.8015
  910TIP3    H2 2695   2.368   4.870   3.636  0.5452  0.0796  0.2836
  911TIP3   OH2 2696   3.130   1.042   3.425 -0.4542  0.2203  0.2752
  911TIP3    H1 2697   3.053   1.094   3.451  1.1597  1.9158  1.9233
  911TIP3    H2 2698   3.096   0.953   3.416 -2.1818  0.4252  3.4226
  912TIP3   OH2 2699   2.888   6.129   4.148 -0.2795  0.0318  0.4148
  912TIP3    H1 2700   2.953   6.157   4.213 -0.6463  2.0678 -0.0400
  912TIP3    H2 2701   2.907   6.036   4.135  1.8155  0.2918  1.1300
  913TIP3   OH2 2702   2.246   3.365   5.326  0.3435  0.1058  0.4688
  913TIP3    H1 2703   2.243   3.407   5.239 -0.4762  0.1291  0.5052
  913TIP3    H2 2704   2.155   3.357   5.352  0.5803  0.0181  1.3012
  914TIP3   OH2 2705   4.984   6.734   3.581  0.1397 -0.1794 -0.8868
  914TIP3    H1 2706   5.053   6.761   3.642  0.5201 -0.4082 -1.2118
  914TIP3    H2 2707   4.927   6.810   3.573 -1.0690 -0.7480  1.3233
  915TIP3   OH2 2708   5.831   0.577   5.243 -0.2438 -0.2589 -0.3653
  915TIP3    H1 2709   5.767   0.524   5.195 -0.7789 -0.4125  0.4988
  915TIP3    H2 2710   5.888   0.613   5.175 -1.4648  0.1786 -1.1915
  916TIP3   OH2 2711   2.137   0.953   5.591  0.0495 -0.4566 -0.2940
  916TIP3    H1 2712   2.205   1.015   5.617 -0.8376  0.2869  0.3263
  916TIP3    H2 2713   2.157   0.873   5.639 -1.5016  0.8516  2.8289
  917TIP3   OH2 2714   3.297   6.193   4.685 -0.3944  0.1118 -0.2499
  917TIP3    H1 2715   3.294   6.142   4.766 -0.7993 -0.3179 -0.5280
  917TIP3    H2 2716   3.345   6.273   4.708 -2.2949  0.9735  0.9680
  918TIP3   OH2 2717   4.130   0.261   1.542 -0.0428  0.1808 -0.7653
  918TIP3    H1 2718   4.065   0.249   1.474  0.8995 -1.1110 -1.4878
  918TIP3    H2 2719   4.170   0.346   1.523 -0.2112  0.1095 -1.4498
  919TIP3   OH2 2720   1.136   2.733   5.475  0.2906  0.5267  0.2543
  919TIP3    H1 2721   1.218   2.698   5.510 -0.0290 -1.2163 -0.6542
  919TIP3    H2 2722   1.128   2.819   5.516  2.4290  0.6304  0.5795
  920TIP3   OH2 2723   2.616   6.200   2.541  0.1680  0.1704 -0.4780
  920TIP3    H1 2724   2.639   6.290   2.562  2.1328 -0.0433 -1.5069
  920TIP3    H2 2725   2.696   6.150   2.556 -0.9944 -1.5185  0.5008
  921TIP3   OH2 2726   1.415   4.075  -0.000 -0.4248 -0.1110  0.7437
  921TIP3    H1 2727   1.453   4.146  -0.052 -1.0805  0.5045  1.0813
  921TIP3    H2 2728   1.360   4.120   0.064  1.1581 -0.8005  2.6553
  922TIP3   OH2 2729   0.322   0.299   2.602  0.6696 -0.1144 -0.1491
  922TIP3    H1 2730   0.374   0.368   2.563 -1.7789  1.5031 -0.7834
  922TIP3    H2 2731   0.236   0.339   2.618 -0.0396 -2.2311  2.0255
  923TIP3   OH2 2732   5.186   6.552   5.169 -0.0848  0.2279 -0.7989
  923TIP3    H1 2733   5.265   6.498   5.157  1.4936  2.3855 -0.7585
  923TIP3    H2 2734   5.163   6.580   5.081 -0.3261  0.2312 -0.7332
  924TIP3   OH2 2735   5.503   3.127   5.830 -0.2287  0.3780  0.4711
  924TIP3    H1 2736   5.484   3.035   5.814 -2.3001  0.5248  1.7224
  924TIP3    H2 2737   5.526   3.131   5.922  0.9487  0.9860  0.1684
  925TIP3   OH2 2738   2.007   3.902   0.563  0.0634  0.0349 -0.3112
  925TIP3    H1 2739   1.919   3.864   0.570 -0.7691  1.7242 -0.9389
  925TIP3    H2 2740   2.028   3.895   0.469  0.8343 -0.8036 -0.0910
  926TIP3   OH2 2741   2.587   0.537   5.831  0.0572 -0.6323  0.1361
  926TIP3    H1 2742   2.671   0.497   5.853  1.2407  1.0207 -1.1219
  926TIP3    H2 2743   2.606   0.631   5.827 -2.1059 -0.1209  0.8356
  927TIP3   OH2 2744   5.731   3.475   0.151  0.0115 -0.4627  0.0259
  927TIP3    H1 2745   5.803   3.420   0.180  0.1883 -0.1727  0.1448
  927TIP3    H2 2746   5.766   3.564   0.155  0.0572 -0.4080 -1.0926
  928TIP3   OH2 2747   3.361   0.919   0.270  0.0112 -0.4173 -0.0948
  928TIP3    H1 2748   3.375   0.851   0.335  3.0184 -0.4031 -0.5813
  928TIP3    H2 2749   3.445   0.965   0.266 -1.4567  2.3975 -0.8443
  929TIP3   OH2 2750   4.160   3.038   4.396 -0.1607  0.6119 -0.1947
  929TIP3    H1 2751   4.133   2.958   4.351 -1.6087  0.1620  1.3465
  929TIP3    H2 2752   4.235   3.011   4.449  0.2948  0.6648 -0.7978
  930TIP3   OH2 2753   1.768   4.411   5.057  0.4368 -0.2202  0.5745
  930TIP3    H1 2754   1.851   4.427   5.011 -0.2795 -0.8742 -1.0342
  930TIP3    H2 2755   1.766   4.316   5.068 -1.2439 -0.5350 -1.7826
  931TIP3   OH2 2756   2.881   1.654   0.429 -0.3383  0.2365  0.3576
  931TIP3    H1 2757   2.963   1.686   0.467 -0.1762  0.3071 -0.0494
  931TIP3    H2 2758   2.879   1.561   0.450 -0.3044  0.2983  0.6356
  932TIP3   OH2 2759   4.577   4.375   2.120  0.1104  0.1277 -0.2718
  932TIP3    H1 2760   4.609   4.326   2.195 -1.2426 -0.4753 -0.0590
  932TIP3    H2 2761   4.585   4.467   2.145 -0.6735 -0.0726  0.7787
  933TIP3   OH2 2762   1.336   6.625   3.511  0.5598  0.8788  0.3419
  933TIP3    H1 2763   1.409   6.660   3.563 -1.3484  4.4245  0.9881
  933TIP3    H2 2764   1.279   6.701   3.497 -3.8866 -1.9245  1.3244
  934TIP3   OH2 2765   2.585   4.118   0.796 -0.2214  0.3374 -0.4937
  934TIP3    H1 2766   2.589   4.047   0.731 -0.2851  0.4868 -0.6633
  934TIP3    H2 2767   2.673   4.121   0.833 -0.4298 -0.3338  0.0612
  935TIP3   OH2 2768   4.075   6.532   1.910  0.5090  0.5325 -0.0916
  935TIP3    H1 2769   4.151   6.553   1.964  0.4447 -2.0244  1.1686
  935TIP3    H2 2770   4.101   6.452   1.863 -0.7896  0.6033 -0.9986
  936TIP3   OH2 2771   1.881   1.256   2.536  0.1083  0.1162 -0.5544
  936TIP3    H1 2772   1.955   1.245   2.596 -0.7460 -0.3242  0.4299
  936TIP3    H2 2773   1.880   1.175   2.485  0.2074  0.0601 -0.4687
  937TIP3   OH2 2774   0.864   5.294   5.545 -0.2102  0.2978  0.8169
  937TIP3    H1 2775   0.942   5.293   5.600  2.0038  0.6989 -2.0325
  937TIP3    H2 2776   0.886   5.237   5.471 -2.5683  0.5704 -0.1981
  938TIP3   OH2 2777   5.340   2.193   4.394  0.3014  0.0419  1.0477
  938TIP3    H1 2778   5.382   2.278   4.405 -0.4656  0.6646 -0.4600
  938TIP3    H2 2779   5.352   2.172   4.302 -1.1952 -0.5572  0.9567
  939TIP3   OH2 2780   6.961   2.632   0.889  0.0326  0.0334  0.5102
  939TIP3    H1 2781   7.046   2.590   0.875 -0.6679 -1.4544  0.4692
  939TIP3    H2 2782   6.982   2.722   0.914  1.6284 -0.4350  0.9786
  940TIP3   OH2 2783   3.480   5.677   0.029  0.4279  0.5135  0.8172
  940TIP3    H1 2784   3.403   5.659   0.083 -0.4856  0.2830 -0.5132
  940TIP3    H2 2785   3.452   5.746  -0.031  0.6225 -0.8671 -0.9318
  941TIP3   OH2 2786   3.554   1.926   2.276  0.3245  0.0566  0.0721
  941TIP3    H1 2787   3.589   1.844   2.241  2.4704  1.1026 -0.3523
  941TIP3    H2 2788   3.592   1.933   2.363  0.0476  0.5468  0.1551
  942TIP3   OH2 2789   5.166   4.826   4.224 -0.0242 -0.2486 -0.0203
  942TIP3    H1 2790   5.234   4.813   4.289  1.0732  1.7078 -0.6662
  942TIP3    H2 2791   5.204   4.795   4.142 -0.1544  0.1935 -0.2572
  943TIP3   OH2 2792   4.478   2.606   0.703 -0.4506  0.1782  0.9581
  943TIP3    H1 2793   4.571   2.592   0.723 -0.2182 -0.0479 -0.2392
  943TIP3    H2 2794   4.440   2.519   0.702 -0.2909  0.1158 -0.3537
  944TIP3   OH2 2795   1.127   4.411   2.911 -0.0653 -0.7568 -0.0343
  944TIP3    H1 2796   1.204   4.431   2.964  0.4299  0.6124 -1.1985
  944TIP3    H2 2797   1.054   4.410   2.973  0.4012  1.3664  0.6311
  945TIP3   OH2 2798   5.147   0.783   5.304  0.0900  0.0607 -0.1135
  945TIP3    H1 2799   5.211   0.719   5.335  1.3613  1.6606  0.7266
  945TIP3    H2 2800   5.195   0.834   5.238 -0.2000  1.4250  0.6874
  946TIP3   OH2 2801   6.746   2.315   4.349 -0.0343  0.0992 -0.0946
  946TIP3    H1 2802   6.679   2.280   4.290  0.4042 -0.5487 -0.2208
  946TIP3    H2 2803   6.825   2.265   4.328  0.4915  0.8388  0.0608
  947TIP3   OH2 2804   1.306   0.790   4.268  1.2157  0.2808  0.4595
  947TIP3    H1 2805   1.274   0.730   4.200 -0.2514 -0.4179  1.7309
  947TIP3    H2 2806   1.280   0.876   4.237  1.2008  0.0474 -0.2050
  948TIP3   OH2 2807   3.096   0.894   0.774  0.3771  0.4906 -0.3851
  948TIP3    H1 2808   3.002   0.894   0.789  0.2196  1.4629 -1.2446
  948TIP3    H2 2809   3.107   0.844   0.693  0.8809 -1.8453  1.0471
  949TIP3   OH2 2810   5.319   6.558   0.284 -0.0333  0.3703 -0.0465
  949TIP3    H1 2811   5.407   6.597   0.284  0.7381 -1.2692 -1.2620
  949TIP3    H2 2812   5.295   6.552   0.192 -0.7294 -0.7072  0.1822
  950TIP3   OH2 2813   5.277   1.720   3.566  0.5458  0.1113  0.3408
  950TIP3    H1 2814   5.280   1.784   3.637  0.6961 -0.9600  1.3308
  950TIP3    H2 2815   5.311   1.639   3.605 -0.3622 -0.7843 -0.6496
  951TIP3   OH2 2816   4.086   1.883   2.092 -0.0805 -0.0158 -0.3814
  951TIP3    H1 2817   4.085   1.857   2.000 -1.4390 -2.5761  0.2416
  951TIP3    H2 2818   4.146   1.821   2.134 -1.7538 -0.8946  0.8591
  952TIP3   OH2 2819   2.890   3.239   1.397 -0.2069 -0.2536 -0.5532
  952TIP3    H1 2820   2.865   3.167   1.456 -0.6129  1.4140  1.4001
  952TIP3    H2 2821   2.809   3.290   1.387  0.4123  0.7052 -0.7492
  953TIP3   OH2 2822   2.376   1.035   5.674 -0.0471 -0.0781  0.4939
  953TIP3    H1 2823   2.437   0.976   5.631  0.1295  0.4354  0.0343
  953TIP3    H2 2824   2.430   1.086   5.734 -0.2420 -0.5641  1.0936
  954TIP3   OH2 2825   5.746   1.863   0.915 -0.2209  0.1174  0.2934
  954TIP3    H1 2826   5.802   1.864   0.993  0.9853 -1.0920 -0.5119
  954TIP3    H2 2827   5.687   1.937   0.927  0.8259  0.7729  1.7016
  955TIP3   OH2 2828   3.505   1.951   0.995 -0.1329 -0.8813  0.0152
  955TIP3    H1 2829   3.443   1.910   0.936  1.7554 -0.9844 -2.0245
  955TIP3    H2 2830   3.454   2.018   1.041 -2.3554 -2.8201  0.5514
  956TIP3   OH2 2831   2.774   5.476   1.088  0.1195  0.2895  0.2367
  956TIP3    H1 2832   2.703   5.541   1.096 -0.7437 -0.7401  1.3401
  956TIP3    H2 2833   2.729   5.393   1.072  1.1540 -0.2103 -0.1347
  957TIP3   OH2 2834   4.614   2.351   5.094 -0.1547  0.9277  0.3166
  957TIP3    H1 2835   4.553   2.393   5.156 -0.9616  0.5792 -0.2258
  957TIP3    H2 2836   4.645   2.422   5.038 -0.6771  0.9811  0.0929
  958TIP3   OH2 2837   3.672   6.258   3.161 -0.1455 -0.0563 -0.1531
  958TIP3    H1 2838   3.697   6.278   3.071  0.5507  0.1615  0.0867
  958TIP3    H2 2839   3.706   6.170   3.176  1.2848  0.5774  0.4609
  959TIP3   OH2 2840   5.850   5.629   5.200  0.2582 -0.4037  0.6993
  959TIP3    H1 2841   5.765   5.670   5.186 -0.3767 -1.8956 -0.1184
  959TIP3    H2 2842   5.897   5.688   5.259 -0.6956  1.3005 -0.1781
  960TIP3   OH2 2843   1.769   0.737   2.166  0.0372  0.6446 -0.2328
  960TIP3    H1 2844   1.853   0.783   2.164  0.5864 -0.1019  2.2377
  960TIP3    H2 2845   1.791   0.647   2.191 -1.2946 -0.2514 -2.0556
  961TIP3   OH2 2846   4.967   2.955   5.685 -0.1622 -0.2090  0.4560
  961TIP3    H1 2847   4.976   2.862   5.707 -1.7102 -0.6139 -0.4748
  961TIP3    H2 2848   4.927   2.955   5.598  0.6794  1.3405  0.0427
  962TIP3   OH2 2849   5.390   3.182   1.330  0.2631 -0.2000 -0.0883
  962TIP3    H1 2850   5.468   3.235   1.319 -0.3987  1.0861  1.0642
  962TIP3    H2 2851   5.416   3.094   1.305  2.8742 -0.3984  2.7070
  963TIP3   OH2 2852   4.044   2.027   0.618  0.6865 -0.2809  0.2705
  963TIP3    H1 2853   4.115   2.030   0.683 -0.4152 -1.5899  1.6015
  963TIP3    H2 2854   3.974   1.980   0.662 -0.1982 -1.0163 -1.8218
  964TIP3   OH2 2855   3.028   0.653   0.626  0.3541  0.1819 -0.2346
  964TIP3    H1 2856   2.988   0.661   0.713  1.2588 -0.9771  0.2981
  964TIP3    H2 2857   3.084   0.576   0.632 -0.1209 -0.3465 -2.0731
  965TIP3   OH2 2858   1.698   5.626   5.106 -0.0155  0.3304  0.1149
  965TIP3    H1 2859   1.758   5.650   5.178  0.0800 -2.5317  1.0929
  965TIP3    H2 2860   1.754   5.624   5.029  0.1961  1.9324  0.1836
  966TIP3   OH2 2861   2.015   1.929   4.170  0.4708  0.5322  0.5185
  966TIP3    H1 2862   2.062   2.006   4.139  2.7480 -1.1359 -0.4248
  966TIP3    H2 2863   1.974   1.893   4.091  1.0076 -0.2423  0.5840
  967TIP3   OH2 2864   0.467   5.449   2.545  0.3410 -0.3426 -0.3927
  967TIP3    H1 2865   0.407   5.504   2.494 -0.4561 -0.9114 -0.0879
  967TIP3    H2 2866   0.429   5.361   2.540  0.0763 -0.3567  1.4448
  968TIP3   OH2 2867   6.327   5.663   4.053  0.4052  0.3632  1.0733
  968TIP3    H1 2868   6.415   5.681   4.020  0.5681 -1.5367  0.3861
  968TIP3    H2 2869   6.341   5.634   4.143  0.3415  1.3531  1.4148
  969TIP3   OH2 2870   2.005   4.199   0.609 -0.8654  0.2883 -0.1476
  969TIP3    H1 2871   2.031   4.109   0.592 -0.8578  0.6811 -2.4952
  969TIP3    H2 2872   1.940   4.193   0.679 -1.1087 -1.5549 -0.4968
  970TIP3   OH2 2873   6.109   1.026   3.229  0.6081 -0.4672 -0.7006
  970TIP3    H1 2874   6.107   1.084   3.153  1.3181 -0.0709 -0.4279
  970TIP3    H2 2875   6.200   1.029   3.258  0.4597 -1.0558 -0.1728
  971TIP3   OH2 2876   5.459   1.101   1.052  0.2326  0.1633 -0.4939
  971TIP3    H1 2877   5.432   1.098   0.960  1.2338  0.5682 -0.8209
  971TIP3    H2 2878   5.538   1.047   1.055  0.5794  0.6806 -0.0150
  972TIP3   OH2 2879   1.101   6.681   0.521 -0.1085 -0.1237  0.0233
  972TIP3    H1 2880   1.040   6.731   0.575 -0.5899 -1.0174  0.3445
  972TIP3    H2 2881   1.135   6.744   0.458 -0.5882  0.6264  0.4937
  973TIP3   OH2 2882   3.426   6.564   1.971 -0.2517  0.3351 -0.2519
  973TIP3    H1 2883   3.399   6.473   1.981 -0.2583  0.3395 -0.2299
  973TIP3    H2 2884   3.481   6.581   2.048  0.1510  0.2010 -0.5015
  974TIP3   OH2 2885   5.963   2.787   2.659  0.1508  0.1590 -0.3806
  974TIP3    H1 2886   5.962   2.882   2.673  0.6393  0.3157 -1.3696
  974TIP3    H2 2887   6.053   2.761   2.676  0.0525 -0.1117 -0.2642
  975TIP3   OH2 2888   2.321   4.542   0.300  0.1190 -0.1163  0.0038
  975TIP3    H1 2889   2.288   4.621   0.258 -0.4436  0.0509  0.7469
  975TIP3    H2 2890   2.416   4.548   0.289  0.1926  1.2732  1.0593
  976TIP3   OH2 2891   5.299   0.826   2.817 -0.1662  0.1919  0.1936
  976TIP3    H1 2892   5.239   0.753   2.808  0.6840 -0.7345  1.6146
  976TIP3    H2 2893   5.270   0.872   2.896  1.6193 -0.9826  1.6302
  977TIP3   OH2 2894   7.090   3.304   0.871 -0.2285  0.2800  0.3668
  977TIP3    H1 2895   7.057   3.394   0.873  1.6264  1.0178 -0.3273
  977TIP3    H2 2896   7.062   3.270   0.786 -1.5850 -0.1021  0.9345
  978TIP3   OH2 2897   0.420   2.960   5.645  0.4405  0.2945  0.2878
  978TIP3    H1 2898   0.447   3.051   5.655 -3.0206  1.4322  0.6786
  978TIP3    H2 2899   0.389   2.953   5.555 -1.2764  0.1570  0.8582
  979TIP3   OH2 2900   5.738   6.241   5.475 -0.1773  0.2481 -0.6229
  979TIP3    H1 2901   5.768   6.157   5.510  1.1940  0.8495 -0.2987
  979TIP3    H2 2902   5.668   6.268   5.534  0.5588  0.1534  0.3172
  980TIP3   OH2 2903   5.085   2.581   2.591  0.1533 -0.0414  0.3109
  980TIP3    H1 2904   5.078   2.670   2.556  0.2443  0.2271  0.9682
  980TIP3    H2 2905   5.135   2.590   2.672 -0.5720 -0.5720  0.8376
  981TIP3   OH2 2906   4.186   2.352   3.696  0.1926 -0.3396 -0.1331
  981TIP3    H1 2907   4.215   2.406   3.622 -0.0178  0.0846  0.0853
  981TIP3    H2 2908   4.265   2.335   3.746  0.1087  0.6672  0.3670
  982TIP3   OH2 2909   2.658   5.822   5.104  0.1182 -0.0809  0.3916
  982TIP3    H1 2910   2.674   5.916   5.105 -0.9474  0.1143 -0.1273
  982TIP3    H2 2911   2.737   5.784   5.144  1.7548  0.8441 -1.7803
  983TIP3   OH2 2912   2.019   4.962   3.753  0.0466 -0.2134 -0.0241
  983TIP3    H1 2913   2.042   4.951   3.845 -0.0207  0.0265  0.0221
  983TIP3    H2 2914   2.087   4.914   3.706 -0.0975 -0.6110  0.1590
  984TIP3   OH2 2915   1.332   1.512   5.857 -0.0138 -0.5084  0.5315
  984TIP3    H1 2916   1.335   1.561   5.775  1.3474 -0.5886  0.5154
  984TIP3    H2 2917   1.318   1.422   5.830 -0.9734 -0.3538  0.4774
  985TIP3   OH2 2918   1.387   0.809   3.013  0.0125  0.6894  0.1401
  985TIP3    H1 2919   1.444   0.756   3.069 -0.8808  0.4983  0.8955
  985TIP3    H2 2920   1.305   0.759   3.008 -0.4439  1.4388 -0.0925
  986TIP3   OH2 2921   4.153   4.833   0.469 -0.1442  0.5097 -0.2898
  986TIP3    H1 2922   4.088   4.874   0.526 -1.2389 -0.3102 -0.8932
  986TIP3    H2 2923   4.142   4.877   0.385 -0.0136  0.2907 -0.4229
  987TIP3   OH2 2924   6.343   3.643   5.743  0.2685  0.5225 -0.2397
  987TIP3    H1 2925   6.285   3.643   5.820  0.5243 -0.0511 -0.0460
  987TIP3    H2 2926   6.285   3.666   5.670 -0.2653 -0.3285 -0.0909
  988TIP3   OH2 2927   6.633   4.011   3.480 -0.2123 -0.0080  0.1746
  988TIP3    H1 2928   6.666   3.922   3.496  0.1660  0.2081  0.6147
  988TIP3    H2 2929   6.676   4.065   3.546  0.5646  0.7329 -0.9142
  989TIP3   OH2 2930   2.355   1.121   2.837 -0.1884  0.1362  0.0934
  989TIP3    H1 2931   2.300   1.129   2.915 -1.8711 -1.2145 -0.8767
  989TIP3    H2 2932   2.394   1.207   2.826 -2.0989  1.1588  0.8869
  990TIP3   OH2 2933   4.600   5.879   4.993  0.1386 -0.3249 -0.2697
  990TIP3    H1 2934   4.689   5.913   5.002 -0.2478  0.3286  1.8526
  990TIP3    H2 2935   4.560   5.895   5.079 -1.3579 -2.5698 -0.4579
  991TIP3   OH2 2936   4.840   2.554   1.528  0.0901 -0.3982  0.0893
  991TIP3    H1 2937   4.929   2.526   1.548 -0.2391 -0.3412  1.7133
  991TIP3    H2 2938   4.852   2.627   1.468  1.1153 -0.7003 -0.1076
  992TIP3   OH2 2939   0.234   0.709   2.351 -0.0088  0.1679  0.2102
  992TIP3    H1 2940   0.258   0.618   2.335  1.0134  0.5929 -0.7535
  992TIP3    H2 2941   0.139   0.710   2.341  0.1267 -0.4828 -1.4914
  993TIP3   OH2 2942   6.815   5.465   3.331 -0.1169  0.4846  0.3204
  993TIP3    H1 2943   6.720   5.458   3.328 -0.2521  2.1115 -0.4953
  993TIP3    H2 2944   6.833   5.507   3.415 -0.2649  1.6711 -0.2240
  994TIP3   OH2 2945   2.251   0.101   5.404  0.6963 -0.5616  0.2417
  994TIP3    H1 2946   2.182   0.062   5.457  1.0452 -1.8029 -0.1998
  994TIP3    H2 2947   2.256   0.047   5.325 -0.0851  1.4904 -1.2996
  995TIP3   OH2 2948   4.125   2.888   4.671 -0.2961 -0.1535 -0.0408
  995TIP3    H1 2949   4.049   2.841   4.705  0.7985 -1.1117  1.2351
  995TIP3    H2 2950   4.133   2.965   4.727 -0.1824 -0.1922 -0.0032
  996TIP3   OH2 2951   7.096   0.352   4.893 -0.0488 -0.7386  0.4697
  996TIP3    H1 2952   7.027   0.289   4.915 -0.6011 -0.3906 -0.2215
  996TIP3    H2 2953   7.098   0.352   4.797  0.8433 -0.6653  0.4855
  997TIP3   OH2 2954   4.295   3.709   4.928 -0.0102 -0.6308 -0.4229
  997TIP3    H1 2955   4.226   3.654   4.893  0.9344 -0.8096 -2.0816
  997TIP3    H2 2956   4.249   3.779   4.975 -1.2540 -1.6106 -0.1464
  998TIP3   OH2 2957   2.755   5.967   2.975 -0.4078  0.0607 -0.8747
  998TIP3    H1 2958   2.812   5.907   2.927 -1.7451 -1.0172 -1.1880
  998TIP3    H2 2959   2.702   6.010   2.907  0.7456  1.9040 -0.6885
  999TIP3   OH2 2960   5.477   2.442   1.235  0.1737  0.1366 -0.2549
  999TIP3    H1 2961   5.545   2.411   1.295 -1.6114 -1.7961  0.9208
  999TIP3    H2 2962   5.446   2.524   1.275  0.5629  0.0737  0.1969
 1000TIP3   OH2 2963   6.936   0.800   1.971 -0.3072 -0.3692  0.3793
 1000TIP3    H1 2964   6.952   0.873   1.911 -2.5757 -0.6697 -0.6936
 1000TIP3    H2 2965   7.007   0.738   1.953  0.7953  0.8999  0.2477
 1001TIP3   OH2 2966   0.018   5.761   3.368  0.0108 -0.0604  0.4640
 1001TIP3    H1 2967   0.081   5.722   3.428 -1.8507 -0.9643  1.9591
 1001TIP3    H2 2968  -0.013   5.687   3.316 -1.8860 -0.2676  1.7687
 1002TIP3   OH2 2969   3.451   6.065   4.460 -0.2702  0.6432  0.3121
 1002TIP3    H1 2970   3.506   6.074   4.539 -0.1219 -2.2020  0.6104
 1002TIP3    H2 2971   3.364   6.094   4.488  0.2335  1.6698  0.8892
 1003TIP3   OH2 2972   2.644   3.415   2.555  0.3258 -0.4484 -0.1413
 1003TIP3    H1 2973   2.642   3.403   2.650 -1.1926 -1.1337 -0.2265
 1003TIP3    H2 2974   2.704   3.488   2.541 -2.6182  2.6263  1.6893
 1004TIP3   OH2 2975   1.091   1.301   0.694 -0.1449 -0.0593 -0.0054
 1004TIP3    H1 2976   1.093   1.294   0.790  0.9956  0.8277  0.0582
 1004TIP3    H2 2977   1.030   1.373   0.677  0.5634  0.5842  0.1257
 1005TIP3   OH2 2978   6.877   5.840   2.112 -0.3103 -0.3932 -0.2263
 1005TIP3    H1 2979   6.925   5.911   2.155 -0.4463 -0.9748  0.9492
 1005TIP3    H2 2980   6.837   5.880   2.036  1.0356  0.3926 -0.5609
 1006TIP3   OH2 2981   0.407   4.571   4.239  0.1760 -0.4898  0.2825
 1006TIP3    H1 2982   0.496   4.561   4.273 -0.6455 -1.3048  2.3128
 1006TIP3    H2 2983   0.392   4.666   4.239  1.0018 -0.3534 -0.0011
 1007TIP3   OH2 2984   5.905   2.283   0.096 -0.0779 -0.5262 -0.1860
 1007TIP3    H1 2985   5.875   2.227   0.168  0.4634 -0.7282 -0.1091
 1007TIP3    H2 2986   6.001   2.278   0.101 -0.0053  0.6859  0.0486
 1008TIP3   OH2 2987   3.861   3.654   3.603  0.1151  0.3352  0.4580
 1008TIP3    H1 2988   3.923   3.690   3.540 -0.5682  0.5907 -0.0879
 1008TIP3    H2 2989   3.800   3.726   3.620  0.8451  0.5912  2.1766
 1009TIP3   OH2 2990   0.483   1.276   4.184 -0.4231  0.6269 -0.0256
 1009TIP3    H1 2991   0.439   1.215   4.243  1.0104 -0.6942 -0.2559
 1009TIP3    H2 2992   0.490   1.357   4.234  0.3698 -0.3271  1.4942
 1010TIP3   OH2 2993   3.021   1.694   5.752 -0.0330  0.6836 -0.4434
 1010TIP3    H1 2994   3.083   1.766   5.746 -1.8197  2.4396  0.6403
 1010TIP3    H2 2995   3.029   1.663   5.842 -0.4496  0.6842 -0.4026
 1011TIP3   OH2 2996   2.729   6.523   0.961  0.1931  0.8355  0.4944
 1011TIP3    H1 2997   2.671   6.590   0.926 -0.0736 -0.3582 -1.4941
 1011TIP3    H2 2998   2.816   6.548   0.928 -0.0364 -0.2093 -0.9970
 1012TIP3   OH2 2999   6.740   4.775   0.526 -0.0417  0.4473 -0.2683
 1012TIP3    H1 3000   6.751   4.724   0.606 -1.0662  0.8218  0.1213
 1012TIP3    H2 3001   6.829   4.792   0.496  0.3485  0.1196  0.6721
 1013TIP3   OH2 3002   6.912   1.282   2.797 -0.2180  0.0902  0.1662
 1013TIP3    H1 3003   6.831   1.331   2.788 -0.2062  0.1294  0.2716
 1013TIP3    H2 3004   6.946   1.274   2.708 -0.0439  0.5679  0.1882
 1014TIP3   OH2 3005   4.950   0.444   4.192  0.3595 -0.1184 -0.2630
 1014TIP3    H1 3006   4.854   0.443   4.186  0.2489  0.4299  1.1519
 1014TIP3    H2 3007   4.969   0.495   4.270  1.8394  0.1737 -0.7747
 1015TIP3   OH2 3008   5.119   3.294   3.915  0.1127 -0.4032  0.0716
 1015TIP3    H1 3009   5.098   3.371   3.968  1.5358 -0.4851  0.8036
 1015TIP3    H2 3010   5.038   3.243   3.915 -0.1247 -0.0845  1.6321
 1016TIP3   OH2 3011   1.046   3.657   0.688  0.3325 -0.0438 -0.4706
 1016TIP3    H1 3012   1.096   3.670   0.769 -0.0233  3.3273 -0.6233
 1016TIP3    H2 3013   1.110   3.621   0.627  1.5284  0.4714  0.4194
 1017TIP3   OH2 3014   2.806   5.264   4.307  0.4351 -0.2854  0.4821
 1017TIP3    H1 3015   2.742   5.229   4.369  0.6280 -0.8152  0.3943
 1017TIP3    H2 3016   2.885   5.212   4.324  0.7512  0.1583  0.3886
 1018TIP3   OH2 3017   1.605   5.740   5.756  0.7522  0.3854  0.0509
 1018TIP3    H1 3018   1.646   5.744   5.843  0.1881 -1.1288  0.4248
 1018TIP3    H2 3019   1.515   5.769   5.771  0.5321 -0.2892  0.0754
 1019TIP3   OH2 3020   2.099   2.153   3.984 -0.2753  0.3418 -0.6957
 1019TIP3    H1 3021   2.057   2.224   4.033 -0.4584 -1.1792  1.5040
 1019TIP3    H2 3022   2.181   2.192   3.953  0.8317  0.9640  2.5529
 1020TIP3   OH2 3023   6.712   4.310   2.764  0.0208  0.0367  0.2221
 1020TIP3    H1 3024   6.787   4.287   2.709 -1.7503 -2.3823 -1.3694
 1020TIP3    H2 3025   6.708   4.240   2.830 -2.4338 -1.6070 -1.5088
 1021TIP3   OH2 3026   6.721   3.996   1.160 -0.3795 -0.2871  0.3019
 1021TIP3    H1 3027   6.758   4.076   1.198 -2.2365  1.2887 -0.9912
 1021TIP3    H2 3028   6.729   4.008   1.065  0.6059 -2.3380  0.0642
 1022TIP3   OH2 3029   4.161   5.702   4.146  0.4131  0.3051 -0.1578
 1022TIP3    H1 3030   4.097   5.638   4.114  0.4167  1.3782 -2.5780
 1022TIP3    H2 3031   4.115   5.786   4.143  1.4799  0.9022 -0.6019
 1023TIP3   OH2 3032   1.542   6.809   3.373 -0.6210 -0.3226  0.2790
 1023TIP3    H1 3033   1.626   6.803   3.326 -0.6942  0.8763 -0.0555
 1023TIP3    H2 3034   1.556   6.759   3.453  0.2328 -0.5986 -0.0247
 1024TIP3   OH2 3035   0.998   2.349   3.011 -0.0558 -0.1164 -1.1253
 1024TIP3    H1 3036   1.040   2.282   3.065 -0.5621  0.3176 -0.1566
 1024TIP3    H2 3037   0.931   2.386   3.068 -1.7513 -0.7703 -2.6021
 1025TIP3   OH2 3038   4.926   6.080   3.382 -0.2796  0.5050  0.0386
 1025TIP3    H1 3039   5.021   6.089   3.387 -0.3296  0.6140  1.4886
 1025TIP3    H2 3040   4.909   5.989   3.406 -0.6017  0.9305  1.5560
 1026TIP3   OH2 3041   2.103   1.029   0.884  0.1876  0.6246 -0.1236
 1026TIP3    H1 3042   2.164   0.968   0.925 -1.0958  0.1296  1.1636
 1026TIP3    H2 3043   2.026   1.028   0.942 -1.4816  0.4109 -2.2070
 1027TIP3   OH2 3044   3.328   1.298   4.596 -0.8368  0.2450  0.3239
 1027TIP3    H1 3045   3.380   1.321   4.519 -0.1247 -0.5323  0.5621
 1027TIP3    H2 3046   3.386   1.316   4.671 -0.2014 -2.2671  0.5342
 1028TIP3   OH2 3047   0.267   3.373   0.580 -0.2813 -0.1971  0.2105
 1028TIP3    H1 3048   0.304   3.458   0.601  0.3420  0.6193 -3.4396
 1028TIP3    H2 3049   0.318   3.310   0.631  0.6971  1.4669  1.3354
 1029TIP3   OH2 3050   1.086   6.738   5.175 -0.0973  0.3130  0.2775
 1029TIP3    H1 3051   1.153   6.806   5.168 -0.6825  0.7517 -1.4833
 1029TIP3    H2 3052   1.134   6.660   5.202  1.7123 -0.0799 -3.4659
 1030TIP3   OH2 3053   0.783   1.632   4.846  0.0156 -0.2195 -0.0309
 1030TIP3    H1 3054   0.687   1.625   4.844 -0.2387  2.3938 -0.4214
 1030TIP3    H2 3055   0.802   1.673   4.931  0.6795  0.4182 -0.4834
 1031TIP3   OH2 3056   3.338   6.109   4.950  0.4840 -0.0145  0.2951
 1031TIP3    H1 3057   3.423   6.097   4.992 -0.2638 -2.3662  1.2799
 1031TIP3    H2 3058   3.283   6.148   5.017  0.1962 -0.6101  0.4127
 1032TIP3   OH2 3059   0.785   1.046   0.523  1.1406 -0.2712 -0.1976
 1032TIP3    H1 3060   0.770   1.122   0.466 -2.2326 -0.0910  0.7448
 1032TIP3    H2 3061   0.808   1.084   0.608  1.9368 -0.4175 -0.3395
 1033TIP3   OH2 3062   6.109   4.175   3.129  0.2121  0.1556  0.4161
 1033TIP3    H1 3063   6.061   4.097   3.155 -0.0952 -0.4872 -1.8278
 1033TIP3    H2 3064   6.089   4.186   3.036  2.0307  1.6132  0.1274
 1034TIP3   OH2 3065   5.284   3.600   5.829  0.0696  0.1371  0.5688
 1034TIP3    H1 3066   5.194   3.624   5.805 -0.5724  0.7555  3.2365
 1034TIP3    H2 3067   5.300   3.517   5.785 -1.4679  0.4567 -0.6804
 1035TIP3   OH2 3068   4.218   1.287   2.258 -0.3601  0.2627 -0.5352
 1035TIP3    H1 3069   4.196   1.238   2.178  0.3281 -0.8117 -0.0813
 1035TIP3    H2 3070   4.148   1.351   2.266 -0.6654  0.1143 -1.7821
 1036TIP3   OH2 3071   4.726   1.449   3.136 -0.0079 -0.2663 -0.4943
 1036TIP3    H1 3072   4.654   1.483   3.083  0.7753  2.3824  0.0266
 1036TIP3    H2 3073   4.805   1.476   3.090  0.6616  0.6810  1.1263
 1037TIP3   OH2 3074   0.313   0.767   5.557 -0.3340 -0.5883  0.0831
 1037TIP3    H1 3075   0.225   0.759   5.593 -0.4614  0.1016 -0.0640
 1037TIP3    H2 3076   0.302   0.747   5.464 -0.0211 -2.2779  0.3758
 1038TIP3   OH2 3077   4.854   4.807   3.328 -0.0837  0.2268  0.0492
 1038TIP3    H1 3078   4.887   4.785   3.415  1.8182 -1.8837 -1.1067
 1038TIP3    H2 3079   4.826   4.723   3.291 -1.9192  1.2385 -1.0340
 1039TIP3   OH2 3080   1.595   0.241   3.179  0.1096  0.3005  0.3891
 1039TIP3    H1 3081   1.619   0.269   3.267 -0.2013  2.0386 -0.0329
 1039TIP3    H2 3082   1.669   0.268   3.124  0.9114 -1.9682  0.2647
 1040TIP3   OH2 3083   1.347   2.468   0.271  0.3423  0.1583 -0.3544
 1040TIP3    H1 3084   1.320   2.545   0.322  0.7326  0.4752 -0.6174
 1040TIP3    H2 3085   1.269   2.447   0.218  0.2452  0.4031 -0.3133
 1041TIP3   OH2 3086   3.371   3.938   0.040 -0.2458 -0.3385  0.1092
 1041TIP3    H1 3087   3.303   3.926   0.106 -0.0643  0.6662  0.4960
 1041TIP3    H2 3088   3.370   4.032   0.021 -0.4390 -0.6249 -1.4808
 1042TIP3   OH2 3089   3.961   6.311   0.818 -0.0109 -0.7001  0.5742
 1042TIP3    H1 3090   4.000   6.396   0.796  2.1611 -1.0197  2.8223
 1042TIP3    H2 3091   3.962   6.262   0.735  2.2961  0.1393  0.0242
 1043TIP3   OH2 3092   6.093   3.302   1.104  0.2929  0.5075  0.0577
 1043TIP3    H1 3093   6.112   3.303   1.010  0.2584  1.8117  0.0417
 1043TIP3    H2 3094   6.030   3.373   1.116  0.2859  0.3415  1.0691
 1044TIP3   OH2 3095   2.710   0.976   5.264 -0.5828 -0.2345  0.1259
 1044TIP3    H1 3096   2.726   0.920   5.187 -0.4384  0.9795 -0.7547
 1044TIP3    H2 3097   2.614   0.976   5.273 -0.6176 -0.1699 -0.2231
 1045TIP3   OH2 3098   0.883   4.689   0.563 -0.2086 -0.2683 -0.4847
 1045TIP3    H1 3099   0.858   4.636   0.488  2.3533 -1.2035 -0.7869
 1045TIP3    H2 3100   0.811   4.680   0.624 -1.2724 -1.4821 -1.8500
 1046TIP3   OH2 3101   2.373   2.546   4.499 -0.0436 -0.3681  0.3127
 1046TIP3    H1 3102   2.402   2.557   4.408  1.8253  2.3796  1.1369
 1046TIP3    H2 3103   2.300   2.606   4.508  0.0940 -0.2695  0.7627
 1047TIP3   OH2 3104   2.961   2.830   1.752  0.4157  0.2977 -0.4706
 1047TIP3    H1 3105   3.048   2.799   1.727  0.0642  0.0936 -1.4774
 1047TIP3    H2 3106   2.942   2.900   1.689 -0.5817 -0.3756 -0.9333
 1048TIP3   OH2 3107   3.344   0.894   1.396 -0.0841  0.1083 -0.2270
 1048TIP3    H1 3108   3.308   0.944   1.470  0.6877 -0.8872  0.8669
 1048TIP3    H2 3109   3.276   0.830   1.375  0.2184 -0.4911  0.5461
 1049TIP3   OH2 3110   6.076   4.190   3.733  0.1180  0.1466 -0.1604
 1049TIP3    H1 3111   6.093   4.097   3.723  0.3784  0.3456 -1.9630
 1049TIP3    H2 3112   6.150   4.233   3.691 -0.0070  1.1706  0.6195
 1050TIP3   OH2 3113   2.843   0.000   2.821  0.8838 -0.5693 -0.1429
 1050TIP3    H1 3114   2.930  -0.009   2.781  0.4758 -0.2870 -1.1146
 1050TIP3    H2 3115   2.827   0.094   2.822  0.1686 -0.6731 -0.9130
 1051TIP3   OH2 3116   2.411   0.253   5.027 -0.0166  0.3831 -0.2809
 1051TIP3    H1 3117   2.322   0.238   5.057 -0.0762 -0.1246 -0.6901
 1051TIP3    H2 3118   2.412   0.220   4.937 -0.0292  2.4408 -1.1006
 1052TIP3   OH2 3119   1.639   4.296   1.047 -0.1132  0.7793  0.5172
 1052TIP3    H1 3120   1.724   4.335   1.027  1.8653 -3.4461 -0.2983
 1052TIP3    H2 3121   1.599   4.278   0.962  0.2475 -1.2027  0.7199
 1053TIP3   OH2 3122   6.206   4.886   1.478 -0.1763 -0.2828 -0.0441
 1053TIP3    H1 3123   6.158   4.968   1.468  1.2626  0.7950  1.3506
 1053TIP3    H2 3124   6.204   4.868   1.572  0.1122 -1.4828 -0.2550
 1054TIP3   OH2 3125   1.622   0.277   2.482 -0.6221 -0.1893 -0.6091
 1054TIP3    H1 3126   1.651   0.187   2.466  2.1312  0.5664 -0.5156
 1054TIP3    H2 3127   1.665   0.302   2.564 -0.1973  1.6161 -1.3206
 1055TIP3   OH2 3128   4.327   0.297   2.459  0.1592  0.2866 -0.1771
 1055TIP3    H1 3129   4.290   0.264   2.377 -0.0226 -0.0529  0.0400
 1055TIP3    H2 3130   4.421   0.287   2.448  0.1333  0.2068 -0.3312
 1056TIP3   OH2 3131   0.495   4.700   4.728  0.3798 -0.3044  0.0300
 1056TIP3    H1 3132   0.588   4.698   4.753  0.7475 -1.3194 -1.2982
 1056TIP3    H2 3133   0.496   4.698   4.632 -1.0116 -1.6428  0.0021
 1057TIP3   OH2 3134   5.446   5.945   4.850  0.2958 -0.5912  0.2274
 1057TIP3    H1 3135   5.542   5.949   4.859  0.2712 -0.3983  0.4185
 1057TIP3    H2 3136   5.432   5.894   4.771  0.5543 -0.8583  0.3492
 1058TIP3   OH2 3137   1.889   6.456   1.417 -0.0865 -0.4102  0.0053
 1058TIP3    H1 3138   1.842   6.406   1.484  0.1096 -0.5367  0.0507
 1058TIP3    H2 3139   1.827   6.522   1.387  0.1109  0.2031  0.9272
 1059TIP3   OH2 3140   5.041   3.928   0.290  0.3939  0.0081 -0.1403
 1059TIP3    H1 3141   5.109   3.862   0.283  1.6668  1.4160 -1.8798
 1059TIP3    H2 3142   5.076   4.004   0.245 -2.0177  1.0739 -0.3877
 1060TIP3   OH2 3143   0.067   0.111   3.965  0.1251 -0.1698  0.0001
 1060TIP3    H1 3144   0.016   0.034   3.941  0.3520 -0.8734  1.6056
 1060TIP3    H2 3145   0.087   0.098   4.058 -0.5612  2.2199  0.5703
 1061TIP3   OH2 3146   5.175   1.709   5.739 -0.1436  0.2753  0.4117
 1061TIP3    H1 3147   5.256   1.660   5.753  0.1071  0.3341 -0.7208
 1061TIP3    H2 3148   5.145   1.731   5.827  0.4043 -0.8275  0.8937
 1062TIP3   OH2 3149   5.056   3.108   0.515 -0.6454 -0.0950 -0.8759
 1062TIP3    H1 3150   5.033   3.083   0.604  0.5919 -0.4759 -0.6452
 1062TIP3    H2 3151   5.105   3.033   0.481  0.7563  0.8998 -1.1272
 1063TIP3   OH2 3152   2.007   5.585   0.936  0.1860 -0.5387  1.4547
 1063TIP3    H1 3153   2.060   5.635   0.998  0.4705  1.9985 -0.6579
 1063TIP3    H2 3154   1.917   5.599   0.965  0.2308  1.5975  0.7374
 1064TIP3   OH2 3155   2.431   5.993   2.438 -0.6157  0.0192 -0.2232
 1064TIP3    H1 3156   2.476   6.064   2.482  0.4038 -0.5008 -0.4104
 1064TIP3    H2 3157   2.421   5.925   2.504 -0.0416 -0.3376 -0.4940
 1065TIP3   OH2 3158   4.262   6.038   2.884 -0.3202  0.2681 -0.1082
 1065TIP3    H1 3159   4.332   6.073   2.939 -1.8915  2.4524  0.6293
 1065TIP3    H2 3160   4.190   6.099   2.895 -1.1662  0.1165 -3.6477
 1066TIP3   OH2 3161   0.874   3.152   4.017 -0.2270 -0.3888 -0.5297
 1066TIP3    H1 3162   0.855   3.084   4.081  0.0503 -1.0730 -1.1598
 1066TIP3    H2 3163   0.968   3.145   4.002 -0.0473  0.6884  0.0081
 1067TIP3   OH2 3164   4.377   3.283   4.925 -0.2980  0.2773  0.1456
 1067TIP3    H1 3165   4.427   3.289   5.006 -0.2482  0.9554  0.0732
 1067TIP3    H2 3166   4.442   3.264   4.858 -0.2256  0.5284  0.1449
 1068TIP3   OH2 3167   3.358   0.960   4.836  0.3633 -0.2858  0.1854
 1068TIP3    H1 3168   3.310   1.027   4.884  0.2686  0.9475 -1.5402
 1068TIP3    H2 3169   3.295   0.924   4.774  0.5618 -1.6207  0.7184
 1069TIP3   OH2 3170   5.290   6.154   4.954 -0.0795 -0.2370  0.3501
 1069TIP3    H1 3171   5.345   6.209   5.011 -0.2362  0.5799 -0.2661
 1069TIP3    H2 3172   5.349   6.084   4.926  0.8374  0.8947 -0.6959
 1070TIP3   OH2 3173   0.061   0.036   4.704 -0.0844  0.0754 -0.0703
 1070TIP3    H1 3174   0.010   0.103   4.658 -1.0978 -0.1244  0.7254
 1070TIP3    H2 3175   0.122   0.085   4.758 -0.4242  0.3498  0.0686
 1071TIP3   OH2 3176   1.492   3.021   5.012  0.6480 -0.3961  0.3119
 1071TIP3    H1 3177   1.446   3.089   4.963  0.6765 -0.7463 -0.2145
 1071TIP3    H2 3178   1.515   3.062   5.095 -0.1644 -0.0591  0.3789
 1072TIP3   OH2 3179   0.300   4.893   5.317  0.7118  0.1308 -0.2515
 1072TIP3    H1 3180   0.347   4.858   5.242  0.8714  0.4883 -0.3213
 1072TIP3    H2 3181   0.365   4.943   5.366  0.9864 -1.3434  0.9660
 1073TIP3   OH2 3182   2.474   2.983   1.221  0.0528 -0.1583  0.5048
 1073TIP3    H1 3183   2.468   2.889   1.238  0.0528 -0.0657  1.0317
 1073TIP3    H2 3184   2.566   3.004   1.234  0.5698 -0.5211 -2.0041
 1074TIP3   OH2 3185   0.265   1.019   1.845 -0.5379  0.1541 -0.2071
 1074TIP3    H1 3186   0.217   0.965   1.782  2.2615 -2.1249 -0.6036
 1074TIP3    H2 3187   0.293   1.095   1.795  2.8637 -2.2798 -2.3878
 1075TIP3   OH2 3188   0.125   3.144   5.640 -0.3543 -0.3394 -0.2721
 1075TIP3    H1 3189   0.087   3.230   5.623  2.5220  0.7447 -1.9632
 1075TIP3    H2 3190   0.063   3.102   5.700 -3.6180  1.5137 -2.0310
 1076TIP3   OH2 3191   2.660   2.793   1.789 -0.0349 -0.5383  0.4911
 1076TIP3    H1 3192   2.566   2.776   1.787 -0.2864  0.3558  2.2149
 1076TIP3    H2 3193   2.698   2.713   1.823 -0.3388 -0.4576  1.0389
 1077TIP3   OH2 3194   0.695   3.013   3.191  0.1330 -0.1554 -0.3184
 1077TIP3    H1 3195   0.783   3.013   3.154  0.3599 -1.5595  0.1341
 1077TIP3    H2 3196   0.689   3.095   3.240  0.4829  0.8491 -1.9038
 1078TIP3   OH2 3197   4.205   1.691   0.374 -0.1207  0.4171  0.0126
 1078TIP3    H1 3198   4.247   1.776   0.385  0.4093  0.1075  0.4298
 1078TIP3    H2 3199   4.159   1.677   0.457  2.0392 -0.9203  1.0715
 1079TIP3   OH2 3200   6.424   2.607   3.852  0.0556  0.1486  0.1632
 1079TIP3    H1 3201   6.387   2.629   3.938  0.6230  0.0256  0.4397
 1079TIP3    H2 3202   6.518   2.622   3.861  0.3193 -1.2331  0.0133
 1080TIP3   OH2 3203   2.009   6.631   1.596  0.3448 -0.0511  0.5598
 1080TIP3    H1 3204   1.946   6.584   1.541  0.4356  0.1370  0.2903
 1080TIP3    H2 3205   1.983   6.723   1.591  0.2242 -0.0576  1.0093
 1081TIP3   OH2 3206   2.542   1.627   4.343 -0.4137  0.4972  0.2561
 1081TIP3    H1 3207   2.536   1.547   4.290  1.9104  0.5030 -0.1265
 1081TIP3    H2 3208   2.462   1.675   4.322 -0.2536 -0.1551 -2.2323
 1082TIP3   OH2 3209   5.837   1.692   5.774  0.0730 -0.0328 -0.1479
 1082TIP3    H1 3210   5.779   1.758   5.737 -0.9787 -1.4655 -1.1549
 1082TIP3    H2 3211   5.837   1.710   5.868 -1.1674  0.6518 -0.2562
 1083TIP3   OH2 3212   4.938   1.418   0.116  0.1795 -0.2714  0.0304
 1083TIP3    H1 3213   4.934   1.484   0.047 -2.2489 -1.2673 -0.9303
 1083TIP3    H2 3214   4.905   1.462   0.194 -1.3714 -0.2631 -0.5923
 1084TIP3   OH2 3215   2.382   4.570   1.558  0.2088  0.4248  0.1812
 1084TIP3    H1 3216   2.298   4.606   1.527  0.6645 -1.2432 -3.4772
 1084TIP3    H2 3217   2.446   4.604   1.495  1.9320 -0.2256  1.5358
 1085TIP3   OH2 3218   3.587   5.175   3.104 -0.0845 -0.2240  0.0847
 1085TIP3    H1 3219   3.578   5.252   3.048  0.8108 -0.0211  0.2052
 1085TIP3    H2 3220   3.658   5.125   3.065  0.5825 -0.0548  1.0541
 1086TIP3   OH2 3221   6.482   3.795   1.739  0.2526  0.4804 -0.4338
 1086TIP3    H1 3222   6.481   3.719   1.681  0.5955  0.4381 -0.3839
 1086TIP3    H2 3223   6.559   3.783   1.795  0.0375  0.6210 -0.1022
 1087TIP3   OH2 3224   3.817   2.305   0.612 -0.2981  0.1698 -0.5145
 1087TIP3    H1 3225   3.811   2.237   0.679 -0.1236  0.2101 -0.4562
 1087TIP3    H2 3226   3.799   2.260   0.530 -3.2553  0.6029 -0.2095
 1088TIP3   OH2 3227   7.211   5.613   0.458  0.0222  0.3712 -0.0963
 1088TIP3    H1 3228   7.118   5.604   0.477  0.2932 -0.7848  0.7584
 1088TIP3    H2 3229   7.224   5.707   0.450 -1.0027  0.6293  0.9321
 1089TIP3   OH2 3230   3.654   5.331   1.601  0.1381  0.0001  0.2870
 1089TIP3    H1 3231   3.591   5.366   1.538  1.6823  2.6380  0.1000
 1089TIP3    H2 3232   3.629   5.371   1.684  0.9073  0.2152  0.4175
 1090TIP3   OH2 3233   7.039   5.961   4.131 -0.5221 -0.2646 -0.2486
 1090TIP3    H1 3234   7.096   5.925   4.199 -1.1357 -1.5921 -0.4000
 1090TIP3    H2 3235   6.950   5.939   4.160 -0.8269 -0.2547 -1.1362
 1091TIP3   OH2 3236   2.164   0.073   2.649 -0.7065  0.0027  0.5881
 1091TIP3    H1 3237   2.212   0.155   2.651 -0.0103 -0.4124  2.5796
 1091TIP3    H2 3238   2.228   0.008   2.620 -1.5586  0.2677 -2.2006
 1092TIP3   OH2 3239   6.385   1.390   1.223  0.1165  0.2869  0.3016
 1092TIP3    H1 3240   6.354   1.458   1.282 -1.6580 -0.9867  0.9364
 1092TIP3    H2 3241   6.444   1.336   1.276  0.0634  0.2731  0.3465
 1093TIP3   OH2 3242   4.964   6.314   0.155 -1.1032  0.1568 -0.0173
 1093TIP3    H1 3243   4.878   6.350   0.177 -1.1492 -0.3217  0.6384
 1093TIP3    H2 3244   5.015   6.326   0.235 -1.0711 -1.0593  0.1639
 1094TIP3   OH2 3245   5.508   2.431   2.046  0.2799 -0.2069  0.8017
 1094TIP3    H1 3246   5.591   2.391   2.019 -0.1082 -1.4429  1.3601
 1094TIP3    H2 3247   5.465   2.363   2.097 -0.8515  0.6118  0.9608
 1095TIP3   OH2 3248   2.866   6.541   0.667 -0.2305  0.9193 -0.0045
 1095TIP3    H1 3249   2.807   6.613   0.643 -2.5378 -0.4638  1.1548
 1095TIP3    H2 3250   2.874   6.489   0.588 -2.1856  0.1082  0.2758
 1096TIP3   OH2 3251   2.205   4.013   5.793  0.2609  0.0916  0.0358
 1096TIP3    H1 3252   2.291   4.017   5.837 -0.3496  2.2163  1.1212
 1096TIP3    H2 3253   2.158   3.944   5.840  0.8316 -0.0419  0.4245
 1097TIP3   OH2 3254   3.083   1.721   0.594  0.1491 -0.4571 -0.2977
 1097TIP3    H1 3255   3.113   1.655   0.656 -0.5986 -0.9395 -0.4388
 1097TIP3    H2 3256   3.089   1.803   0.642  1.6705 -0.5312 -0.3155
 1098TIP3   OH2 3257   2.800   3.735   0.145 -0.7138 -0.5299  0.4581
 1098TIP3    H1 3258   2.834   3.731   0.234 -1.2998  1.0814  0.7790
 1098TIP3    H2 3259   2.878   3.731   0.089 -0.3842 -2.2188  0.9894
 1099TIP3   OH2 3260   4.371   4.893   0.075 -0.1726 -0.2705  0.4062
 1099TIP3    H1 3261   4.446   4.952   0.060  0.8458 -1.5541  0.3001
 1099TIP3    H2 3262   4.355   4.899   0.169  0.8776 -0.9025  0.6449
 1100TIP3   OH2 3263   6.845   2.437   1.671 -0.2239  0.3402  0.5139
 1100TIP3    H1 3264   6.886   2.410   1.753  0.6067  0.4994  0.1712
 1100TIP3    H2 3265   6.887   2.521   1.650 -0.8779  0.6016  0.2434
 1101TIP3   OH2 3266   4.617   3.844   4.272  0.0393 -0.0085 -0.0651
 1101TIP3    H1 3267   4.687   3.801   4.224 -0.1167 -0.2260 -0.0960
 1101TIP3    H2 3268   4.554   3.775   4.292  1.0728 -0.3768  2.2692
 1102TIP3   OH2 3269   5.301   1.371   2.205  0.1098  0.1857 -0.0423
 1102TIP3    H1 3270   5.229   1.383   2.144 -0.2948  0.4870  0.4845
 1102TIP3    H2 3271   5.273   1.415   2.285  0.6096 -0.2404  0.3815
 1103TIP3   OH2 3272   3.006   1.445   4.868 -0.2372 -0.0082  0.4122
 1103TIP3    H1 3273   2.963   1.503   4.805 -1.5032 -0.1500  1.1145
 1103TIP3    H2 3274   3.098   1.471   4.866 -0.5077  0.9305 -0.4615
 1104TIP3   OH2 3275   3.095   1.235   5.524  0.0552 -1.1074  0.2441
 1104TIP3    H1 3276   3.185   1.245   5.555  0.3087 -0.9290 -0.5272
 1104TIP3    H2 3277   3.041   1.267   5.596  0.6138 -1.0621  0.6479
 1105TIP3   OH2 3278   6.543   0.417   5.168  0.0678  0.1306 -0.2586
 1105TIP3    H1 3279   6.467   0.429   5.224 -1.5529 -1.4591 -1.9803
 1105TIP3    H2 3280   6.521   0.461   5.086  0.1597 -1.8593 -1.4269
 1106TIP3   OH2 3281   4.586   0.336   0.855 -0.1190  0.3492 -0.3271
 1106TIP3    H1 3282   4.566   0.348   0.762 -0.0442 -0.1814 -0.4159
 1106TIP3    H2 3283   4.506   0.297   0.891  0.7792 -2.0007 -0.7286
 1107TIP3   OH2 3284   0.004   3.695   2.337 -0.5237 -0.3074 -0.1028
 1107TIP3    H1 3285  -0.011   3.784   2.369  2.5246 -0.0443  0.9630
 1107TIP3    H2 3286   0.042   3.649   2.412  0.0686 -1.8416 -1.2830
 1108TIP3   OH2 3287   4.845   0.835   4.132 -0.0352  0.0526 -0.3364
 1108TIP3    H1 3288   4.791   0.858   4.208 -0.7033  0.3671 -0.8936
 1108TIP3    H2 3289   4.933   0.825   4.168  0.0630  2.2171  0.1869
 1109TIP3   OH2 3290   7.081   2.135   5.634  0.1222 -0.2237 -1.0491
 1109TIP3    H1 3291   7.049   2.116   5.546  1.5054 -0.1413 -1.5880
 1109TIP3    H2 3292   7.094   2.050   5.675 -1.8567 -0.2619 -0.3845
 1110TIP3   OH2 3293   5.158   6.321   3.197 -0.2986 -0.3752  0.5296
 1110TIP3    H1 3294   5.083   6.357   3.243 -0.5709 -1.0256  0.6117
 1110TIP3    H2 3295   5.127   6.237   3.163 -0.2108  0.2405 -1.1440
 1111TIP3   OH2 3296   1.872   6.249   5.029 -0.3362  0.0986  0.6577
 1111TIP3    H1 3297   1.959   6.232   4.992 -0.0190  1.6590  0.6249
 1111TIP3    H2 3298   1.812   6.203   4.971  0.3701  0.0839 -0.0818
 1112TIP3   OH2 3299   3.542   3.743   1.099  0.0055 -0.5594 -0.1832
 1112TIP3    H1 3300   3.619   3.798   1.114  1.5187 -2.9087  1.3675
 1112TIP3    H2 3301   3.479   3.772   1.165  0.2740  0.1551 -0.2375
 1113TIP3   OH2 3302   6.759   5.011   3.934 -0.2251  0.2513  0.1827
 1113TIP3    H1 3303   6.743   4.967   3.851 -0.9448  0.4533  0.2081
 1113TIP3    H2 3304   6.681   5.065   3.948 -0.6562 -0.6766  1.5556
 1114TIP3   OH2 3305   5.523   4.500   0.434 -0.6413 -0.0484 -0.0872
 1114TIP3    H1 3306   5.594   4.475   0.374 -0.3937  1.6416 -0.5571
 1114TIP3    H2 3307   5.444   4.468   0.391 -0.2532 -1.1921  0.0158
 1115TIP3   OH2 3308   5.198   3.770   0.001 -0.0772 -0.4478 -0.2714
 1115TIP3    H1 3309   5.287   3.766  -0.034  0.0500  1.1484 -0.1956
 1115TIP3    H2 3310   5.205   3.731   0.088  1.7287  3.9613  1.8778
 1116TIP3   OH2 3311   1.643   0.387   4.901  0.1100 -0.0561  0.0302
 1116TIP3    H1 3312   1.721   0.425   4.940  0.2270 -0.9778  0.7190
 1116TIP3    H2 3313   1.668   0.368   4.811 -0.0634  1.7844 -0.4574
 1117TIP3   OH2 3314   3.654   6.004   1.639  0.2006  0.1124  0.9606
 1117TIP3    H1 3315   3.671   5.958   1.556 -0.3909  0.3500  0.7044
 1117TIP3    H2 3316   3.599   5.944   1.689 -0.8569  0.6589  0.4889
 1118TIP3   OH2 3317   4.642   4.911   0.965  0.0025 -0.5454 -0.0963
 1118TIP3    H1 3318   4.590   4.983   0.930 -0.3452 -0.8479 -0.2098
 1118TIP3    H2 3319   4.652   4.931   1.058  1.3342  0.5097 -0.4425
 1119TIP3   OH2 3320   2.508   2.437   2.411 -0.2935 -0.2086  0.4321
 1119TIP3    H1 3321   2.490   2.392   2.328  0.1515 -0.8760  0.6883
 1119TIP3    H2 3322   2.601   2.456   2.408 -0.4762  0.7130  0.3298
 1120TIP3   OH2 3323   0.320   6.202   2.539 -0.4279  0.4195 -0.4167
 1120TIP3    H1 3324   0.234   6.244   2.534 -1.0789 -0.8708 -0.4814
 1120TIP3    H2 3325   0.304   6.121   2.587  0.6966  0.0114 -0.6988
 1121TIP3   OH2 3326   4.754   4.723   1.229 -0.3999  0.1216 -0.3466
 1121TIP3    H1 3327   4.814   4.660   1.189 -2.0962 -2.5531  0.9943
 1121TIP3    H2 3328   4.797   4.747   1.311  0.3230  0.8970 -0.9304
 1122TIP3   OH2 3329   5.797   1.018   1.945  0.3904 -0.4383  0.5581
 1122TIP3    H1 3330   5.848   0.971   1.879 -0.8298 -2.1251  0.7697
 1122TIP3    H2 3331   5.726   1.059   1.897  0.3473 -0.4232  0.6331
 1123TIP3   OH2 3332   6.866   2.264   0.895 -0.0228 -0.9253 -0.5776
 1123TIP3    H1 3333   6.799   2.321   0.857  1.8519  1.6059 -0.3505
 1123TIP3    H2 3334   6.851   2.269   0.989  2.1536  2.1196 -0.2670
 1124TIP3   OH2 3335   3.139   5.986   5.810  0.3141 -0.4198  0.2173
 1124TIP3    H1 3336   3.106   5.898   5.831  0.4515 -0.1034  1.8680
 1124TIP3    H2 3337   3.129   5.992   5.715 -0.7826 -1.7858  0.1969
 1125TIP3   OH2 3338   3.780   4.241   3.100  0.3743  0.3094 -0.2254
 1125TIP3    H1 3339   3.760   4.151   3.076  1.3974  0.4280 -1.6313
 1125TIP3    H2 3340   3.835   4.234   3.178 -2.1411 -0.1240  1.6360
 1126TIP3   OH2 3341   5.085   5.388   4.141  0.7121  0.1965  0.0907
 1126TIP3    H1 3342   5.139   5.451   4.093 -0.8576  1.2251 -0.3897
 1126TIP3    H2 3343   5.093   5.307   4.090 -2.2921  1.6503 -3.1805
 1127TIP3   OH2 3344   6.843   1.473   0.379 -0.1143  0.1522 -0.0165
 1127TIP3    H1 3345   6.793   1.483   0.460  0.6263 -2.9231  0.9306
 1127TIP3    H2 3346   6.786   1.422   0.321 -0.1417  1.2667 -1.0063
 1128TIP3   OH2 3347   6.637   1.965   4.485  0.7144 -0.1072 -0.1945
 1128TIP3    H1 3348   6.595   2.047   4.459  0.2784 -0.5603 -0.9400
 1128TIP3    H2 3349   6.717   1.961   4.432  0.9432  0.0271  0.1368
 1129TIP3   OH2 3350   4.347   0.464   3.055 -0.1476 -0.4141  0.1439
 1129TIP3    H1 3351   4.428   0.469   3.004  0.3848 -1.9898  0.7799
 1129TIP3    H2 3352   4.329   0.555   3.079  1.1212  0.0310 -0.4716
 1130TIP3   OH2 3353   5.199   3.709   0.262 -0.1359 -0.8006 -0.2439
 1130TIP3    H1 3354   5.286   3.705   0.302  0.1516  2.3288 -0.3173
 1130TIP3    H2 3355   5.157   3.627   0.287  2.1460 -1.5457  1.4307
 1131TIP3   OH2 3356   2.705   0.098   4.259  0.0020  0.3747  0.0875
 1131TIP3    H1 3357   2.692   0.071   4.350 -0.3629  1.1214  0.2712
 1131TIP3    H2 3358   2.800   0.101   4.248  0.0827  1.5412  0.8588
 1132TIP3   OH2 3359   3.071   0.313   4.718  0.0246 -0.3094  0.3000
 1132TIP3    H1 3360   3.006   0.323   4.648 -0.4091 -0.1266  0.7235
 1132TIP3    H2 3361   3.137   0.253   4.682  0.5015  0.8106 -0.7605
 1133TIP3   OH2 3362   5.454   1.276   4.365  0.2756  0.0493  0.2455
 1133TIP3    H1 3363   5.482   1.320   4.445 -1.1839  0.7483  0.3917
 1133TIP3    H2 3364   5.515   1.308   4.298  1.8576 -0.9548  1.1373
 1134TIP3   OH2 3365   6.315   4.330   3.640  0.0147  0.0995  0.2198
 1134TIP3    H1 3366   6.270   4.407   3.605  2.1038  0.3542 -2.1671
 1134TIP3    H2 3367   6.314   4.267   3.569  0.3997 -1.1982  1.3284
 1135TIP3   OH2 3368   6.300   6.176   2.277  0.4173  0.4127  0.3989
 1135TIP3    H1 3369   6.207   6.199   2.278  0.7394  2.1768 -2.1130
 1135TIP3    H2 3370   6.301   6.080   2.287 -1.6538  0.3517  0.4243
 1136TIP3   OH2 3371   6.166   2.031   0.436 -0.0902  0.3867  0.3289
 1136TIP3    H1 3372   6.083   2.058   0.476 -0.3461  0.3058 -0.1442
 1136TIP3    H2 3373   6.173   1.938   0.455  1.5789  1.0076  3.3894
 1137TIP3   OH2 3374   2.160   2.210   0.835  0.1041  0.6695 -0.0664
 1137TIP3    H1 3375   2.156   2.299   0.798 -0.6755  0.1585 -1.2804
 1137TIP3    H2 3376   2.114   2.156   0.771  0.6461 -0.6352  0.6168
 1138TIP3   OH2 3377   3.874   2.006   1.359 -0.6651 -0.0947 -0.2977
 1138TIP3    H1 3378   3.926   1.926   1.358 -0.8953 -0.2434 -1.1275
 1138TIP3    H2 3379   3.887   2.043   1.447 -1.7839 -1.8364  0.6561
 1139TIP3   OH2 3380   5.853   0.418   3.662  0.0635 -0.3245  0.2554
 1139TIP3    H1 3381   5.876   0.495   3.611 -0.5225 -0.8626 -0.8608
 1139TIP3    H2 3382   5.866   0.345   3.602  1.8042 -1.2544  1.6519
 1140TIP3   OH2 3383   2.557   1.679   4.672 -0.5115  0.2522  0.4346
 1140TIP3    H1 3384   2.463   1.694   4.662 -0.4067  0.4966 -0.2601
 1140TIP3    H2 3385   2.564   1.614   4.742 -1.2152 -0.0021  0.2771
 1141TIP3   OH2 3386   4.185   5.795   2.565 -0.3203 -0.1443 -0.3238
 1141TIP3    H1 3387   4.241   5.728   2.603 -2.0137 -0.3384  2.0906
 1141TIP3    H2 3388   4.103   5.749   2.544 -0.7120  0.7170 -0.7391
 1142TIP3   OH2 3389   4.068   2.324   0.606 -0.5949  0.1837  0.6208
 1142TIP3    H1 3390   4.084   2.232   0.584 -1.5358 -0.0385  0.8117
 1142TIP3    H2 3391   3.973   2.331   0.613 -0.5302  1.1557  0.7018
 1143TIP3   OH2 3392   2.409   1.269   0.467 -0.1516  0.0012  0.1327
 1143TIP3    H1 3393   2.436   1.204   0.402  0.1026 -0.3276  0.5606
 1143TIP3    H2 3394   2.380   1.344   0.416 -0.9505 -0.6416 -0.3804
 1144TIP3   OH2 3395   5.730   5.822   4.599  0.1822 -0.2645  0.3835
 1144TIP3    H1 3396   5.772   5.736   4.590  1.6564  0.4992 -0.3867
 1144TIP3    H2 3397   5.755   5.853   4.686  1.9712  0.5368 -0.3771
 1145TIP3   OH2 3398   0.537   6.589   4.234  0.3056 -0.7514  0.2003
 1145TIP3    H1 3399   0.442   6.591   4.229  0.2725 -2.0382 -0.0207
 1145TIP3    H2 3400   0.556   6.540   4.314  0.7727 -1.0180 -0.0694
 1146TIP3   OH2 3401   0.526   3.288   2.430 -0.4175  0.1200  0.0919
 1146TIP3    H1 3402   0.512   3.205   2.385 -0.3080  0.4454 -0.5642
 1146TIP3    H2 3403   0.597   3.329   2.381  1.2117 -0.4402  1.8575
 1147TIP3   OH2 3404   2.242   0.325   0.260  0.0125 -0.7035 -0.0912
 1147TIP3    H1 3405   2.191   0.271   0.320 -0.2682 -0.6976 -0.3238
 1147TIP3    H2 3406   2.177   0.365   0.202  0.2825 -0.7229 -0.4121
 1148TIP3   OH2 3407   3.681   6.167   5.842 -0.4322  0.1267  0.6669
 1148TIP3    H1 3408   3.589   6.167   5.818 -0.8890 -2.5016  1.9858
 1148TIP3    H2 3409   3.687   6.228   5.916 -0.9469  0.8601  0.1127
 1149TIP3   OH2 3410   5.801   5.067   2.043  0.4571 -0.5776 -0.1568
 1149TIP3    H1 3411   5.849   5.037   1.966  1.3624  1.1341 -0.2992
 1149TIP3    H2 3412   5.838   5.153   2.063 -0.7995 -0.3253  1.2926
 1150TIP3   OH2 3413   1.842   0.399   3.099  0.1818  0.3772 -0.1006
 1150TIP3    H1 3414   1.878   0.316   3.068  0.8025  1.3899 -2.2715
 1150TIP3    H2 3415   1.904   0.428   3.166  0.0063 -0.8302  0.6214
 1151TIP3   OH2 3416   2.811   3.563   1.361 -0.2269  0.4511 -0.0295
 1151TIP3    H1 3417   2.801   3.551   1.456 -1.8801 -0.5610 -0.2925
 1151TIP3    H2 3418   2.748   3.503   1.323 -2.5996  3.6875 -1.6948
 1152TIP3   OH2 3419   5.210   6.534   4.899 -0.5644  0.4226  0.0201
 1152TIP3    H1 3420   5.172   6.578   4.823 -0.9080  0.8486  0.4326
 1152TIP3    H2 3421   5.285   6.486   4.864 -2.6438 -2.1496 -1.2346
 1153TIP3   OH2 3422   5.668   3.753   4.341 -0.9899  1.0436 -0.9098
 1153TIP3    H1 3423   5.730   3.681   4.332 -0.1855  1.7895 -1.5438
 1153TIP3    H2 3424   5.642   3.751   4.433 -2.9618 -1.6110 -1.4293
 1154TIP3   OH2 3425   0.141   2.933   4.577 -0.4018 -0.6537  0.0861
 1154TIP3    H1 3426   0.064   2.882   4.550  0.7242 -2.8167  0.6793
 1154TIP3    H2 3427   0.139   2.930   4.673 -0.6870  1.0803  0.1505
 1155TIP3   OH2 3428   5.706   2.574   0.656  0.5108 -0.5060  0.6295
 1155TIP3    H1 3429   5.689   2.488   0.619 -1.5116  0.5223 -1.0522
 1155TIP3    H2 3430   5.726   2.629   0.580 -1.2896  1.1495  1.2829
 1156TIP3   OH2 3431   5.728   5.928   1.026  0.0794 -0.2022 -0.3852
 1156TIP3    H1 3432   5.778   5.933   0.944 -0.6482  0.8353 -0.7824
 1156TIP3    H2 3433   5.671   6.005   1.024 -0.3580 -0.4764  0.8352
 1157TIP3   OH2 3434   4.945   6.740   0.850  0.0955  0.9838 -0.3566
 1157TIP3    H1 3435   4.917   6.816   0.799 -1.7583  0.8909  0.4227
 1157TIP3    H2 3436   4.903   6.665   0.807  0.1018  0.6782  0.1559
 1158TIP3   OH2 3437   6.121   6.397   1.959 -0.5031 -0.5810  0.0441
 1158TIP3    H1 3438   6.100   6.303   1.964  2.5101 -1.4721 -1.4005
 1158TIP3    H2 3439   6.134   6.424   2.050 -0.9157 -1.6835  0.4499
 1159TIP3   OH2 3440   4.468   6.105   3.043 -0.3366  0.3653 -0.0207
 1159TIP3    H1 3441   4.563   6.099   3.036 -0.2804 -0.1672  0.9665
 1159TIP3    H2 3442   4.453   6.189   3.086 -0.2649  0.0837  0.5600
 1160TIP3   OH2 3443   1.504   5.486   0.270  0.0890 -0.0561 -0.2581
 1160TIP3    H1 3444   1.483   5.464   0.179  0.2094  0.0948 -0.3232
 1160TIP3    H2 3445   1.578   5.546   0.263  0.9948 -1.1063 -0.0095
 1161TIP3   OH2 3446   6.663   2.261   0.402  0.1874  0.5594  0.0672
 1161TIP3    H1 3447   6.655   2.332   0.339  0.1303 -0.2612 -0.8639
 1161TIP3    H2 3448   6.583   2.266   0.454 -0.2527  0.5992 -0.6035
 1162TIP3   OH2 3449   0.468   5.848   1.037  0.1401  0.3139 -0.2111
 1162TIP3    H1 3450   0.411   5.833   0.961  0.6031 -3.1209 -0.0321
 1162TIP3    H2 3451   0.413   5.829   1.113  0.2785  1.6555  0.2562
 1163TIP3   OH2 3452   0.039   6.219   0.963  0.2988 -0.3438  0.0545
 1163TIP3    H1 3453   0.095   6.285   0.922  0.1747 -0.6486 -0.6185
 1163TIP3    H2 3454   0.044   6.143   0.905  0.0169 -0.7436  0.5397
 1164TIP3   OH2 3455   1.272   4.646   2.213  0.3361  0.6246 -0.2786
 1164TIP3    H1 3456   1.254   4.565   2.165  3.1084 -0.5391  0.4908
 1164TIP3    H2 3457   1.185   4.678   2.239 -0.8329 -2.7182  0.4083
 1165TIP3   OH2 3458   0.894   4.221   3.605  0.3188 -0.0898  0.0411
 1165TIP3    H1 3459   0.831   4.241   3.536 -0.0987 -0.9794  0.1528
 1165TIP3    H2 3460   0.861   4.268   3.682  0.6125  0.6452 -0.2724
 1166TIP3   OH2 3461   6.035   0.308   4.460 -0.3869  0.3582  0.3725
 1166TIP3    H1 3462   6.005   0.274   4.544  0.6909  0.7030  0.9127
 1166TIP3    H2 3463   6.127   0.331   4.475 -0.0139 -0.1120 -1.0617
 1167TIP3   OH2 3464   7.155   5.527   3.571 -0.0345 -0.1076  0.5200
 1167TIP3    H1 3465   7.239   5.571   3.579 -0.8520  1.3412  1.6104
 1167TIP3    H2 3466   7.101   5.586   3.518 -0.3270 -1.1007 -0.3243
 1168TIP3   OH2 3467   2.507   4.120   3.229  0.1318 -0.5666  0.4114
 1168TIP3    H1 3468   2.466   4.206   3.234 -1.7769 -1.4510  0.8201
 1168TIP3    H2 3469   2.580   4.132   3.168 -0.6771  1.0955 -0.2976
 1169TIP3   OH2 3470   6.519   2.676   5.333 -0.4074 -0.4057 -0.1398
 1169TIP3    H1 3471   6.512   2.653   5.241  0.3435  0.3607 -0.4057
 1169TIP3    H2 3472   6.574   2.608   5.372 -0.2094 -0.3960 -0.4002
 1170TIP3   OH2 3473   4.404   3.298   3.520 -0.0070  0.0254  0.0688
 1170TIP3    H1 3474   4.461   3.345   3.581  0.4252 -0.1090 -0.2252
 1170TIP3    H2 3475   4.327   3.275   3.572 -0.2455  1.0794  0.2199
 1171TIP3   OH2 3476   5.821   2.820   4.543 -0.0533 -0.4382  0.0498
 1171TIP3    H1 3477   5.753   2.836   4.609 -0.9704 -0.8917 -0.7448
 1171TIP3    H2 3478   5.788   2.745   4.493 -1.4552  2.1773 -3.4366
 1172TIP3   OH2 3479   0.325   0.805   2.607 -0.0397 -0.4916  0.5753
 1172TIP3    H1 3480   0.348   0.764   2.524  0.5377 -0.4373  0.7061
 1172TIP3    H2 3481   0.401   0.791   2.663  0.3487  1.0747  0.5089
 1173TIP3   OH2 3482   0.244   2.417   5.062  0.0160  0.5480 -0.4664
 1173TIP3    H1 3483   0.236   2.370   4.978 -1.8223  1.1984 -0.6865
 1173TIP3    H2 3484   0.294   2.496   5.041 -1.2724  1.2018 -1.2017
 1174TIP3   OH2 3485   4.145   2.901   3.348 -0.2213  0.2640 -0.3028
 1174TIP3    H1 3486   4.088   2.954   3.404 -1.4050 -1.5327  0.2907
 1174TIP3    H2 3487   4.219   2.878   3.404  0.3530  1.3231 -0.5966
 1175TIP3   OH2 3488   6.985   1.957   3.272  0.4163 -0.6897  0.0132
 1175TIP3    H1 3489   6.933   1.959   3.191  0.3870 -1.1004  0.0214
 1175TIP3    H2 3490   7.066   1.913   3.247  1.1622  0.7566 -0.2289
 1176TIP3   OH2 3491   5.804   1.825   4.181  0.1574  0.3654 -0.1172
 1176TIP3    H1 3492   5.768   1.894   4.125  0.5772  0.7393  0.0661
 1176TIP3    H2 3493   5.746   1.822   4.257 -1.7674 -1.6720 -1.5284
 1177TIP3   OH2 3494   4.701   2.849   2.165 -0.3422  0.0552  0.5927
 1177TIP3    H1 3495   4.650   2.770   2.148 -1.3337  0.6645  0.6187
 1177TIP3    H2 3496   4.732   2.877   2.079 -0.7523  0.1332  0.4683
 1178TIP3   OH2 3497   5.974   3.058   2.821 -0.0979  0.0901 -0.0291
 1178TIP3    H1 3498   5.950   3.133   2.875  2.1778 -0.3390  1.7033
 1178TIP3    H2 3499   6.050   3.088   2.771  0.3501 -0.7977  0.1053
 1179TIP3   OH2 3500   4.986   6.236   5.715 -0.6249  0.2356 -0.3467
 1179TIP3    H1 3501   4.976   6.145   5.744  1.2355 -0.5109 -1.8291
 1179TIP3    H2 3502   4.975   6.288   5.795 -1.8871 -1.2462  0.5096
 1180TIP3   OH2 3503   4.453   6.142   0.057 -0.7549 -0.2276 -1.1011
 1180TIP3    H1 3504   4.363   6.162   0.030 -0.6940 -1.0191 -1.9631
 1180TIP3    H2 3505   4.443   6.089   0.136 -1.0726 -0.6264 -1.4020
 1181TIP3   OH2 3506   0.379   3.265   5.622  0.2489  0.6104  0.6079
 1181TIP3    H1 3507   0.351   3.356   5.619 -0.4864  0.4017  0.9995
 1181TIP3    H2 3508   0.298   3.214   5.617  0.6746 -0.0321  0.0387
 1182TIP3   OH2 3509   1.736   2.523   5.871  0.0670  0.7734 -0.0548
 1182TIP3    H1 3510   1.781   2.439   5.873 -1.9997 -0.4115  2.2634
 1182TIP3    H2 3511   1.694   2.526   5.785  0.4349 -0.3865 -0.2878
 1183TIP3   OH2 3512   3.047   5.621   1.629  0.3893  0.2748 -0.8798
 1183TIP3    H1 3513   3.135   5.605   1.594 -0.2797 -2.2843 -1.5541
 1183TIP3    H2 3514   2.989   5.571   1.573 -1.0924 -1.3249  1.8908
 1184TIP3   OH2 3515   0.287   6.164   0.698  0.5358 -0.6604 -0.3249
 1184TIP3    H1 3516   0.197   6.139   0.720 -0.0495  0.2626 -1.5525
 1184TIP3    H2 3517   0.338   6.083   0.708  0.2054 -0.5844  3.3780
 1185TIP3   OH2 3518   0.235   0.174   4.858  0.1715 -0.3273  0.4917
 1185TIP3    H1 3519   0.321   0.140   4.882  0.2168 -0.4101  0.2164
 1185TIP3    H2 3520   0.198   0.207   4.940 -0.0537 -1.4113  0.8425
 1186TIP3   OH2 3521   2.443   3.638   1.839 -1.1881  0.0267  0.2760
 1186TIP3    H1 3522   2.356   3.642   1.879 -0.6522  1.1220  1.4389
 1186TIP3    H2 3523   2.501   3.676   1.906  0.5655 -2.8421  0.5344
 1187TIP3   OH2 3524   2.438   4.672   4.397  0.1045  0.0084  0.3380
 1187TIP3    H1 3525   2.345   4.657   4.385 -0.3282  1.4337  1.6708
 1187TIP3    H2 3526   2.476   4.584   4.407 -1.0557 -0.5809 -0.2592
 1188TIP3   OH2 3527   3.666   0.965   0.511  0.1849 -0.1916  0.3959
 1188TIP3    H1 3528   3.663   0.985   0.418  1.2215 -1.6459  0.0127
 1188TIP3    H2 3529   3.702   1.043   0.552 -0.6486  0.6028 -0.3650
 1189TIP3   OH2 3530   7.067   5.147   3.869  0.0557 -0.0481 -0.0693
 1189TIP3    H1 3531   6.976   5.120   3.883  0.0349 -0.4502 -0.9070
 1189TIP3    H2 3532   7.118   5.073   3.900  0.0797 -0.0546 -0.1254
 1190TIP3   OH2 3533   1.457   4.834   3.187 -0.0682  0.3161  0.2050
 1190TIP3    H1 3534   1.486   4.917   3.226 -0.7044  0.4455  0.4148
 1190TIP3    H2 3535   1.391   4.861   3.122  1.0456  0.1194 -1.0649
 1191TIP3   OH2 3536   5.787   4.155   3.189 -0.0291  0.2513  0.2165
 1191TIP3    H1 3537   5.815   4.093   3.122 -0.2335  1.0855 -0.6654
 1191TIP3    H2 3538   5.817   4.116   3.272  0.8162 -0.4781 -0.4106
 1192TIP3   OH2 3539   2.005   5.389   1.966  0.3381  0.1629 -0.3272
 1192TIP3    H1 3540   1.981   5.418   2.054  2.1976  2.3146 -0.4140
 1192TIP3    H2 3541   2.054   5.308   1.979  1.7074  1.1281  0.8017
 1193TIP3   OH2 3542   7.142   0.888   4.084  0.4300  0.0911  0.3674
 1193TIP3    H1 3543   7.177   0.976   4.099  0.0288  0.0909  1.3566
 1193TIP3    H2 3544   7.218   0.830   4.096  1.2705  0.4087 -2.6059
 1194TIP3   OH2 3545   2.698   2.217   4.746  0.4063 -0.0837  0.7650
 1194TIP3    H1 3546   2.769   2.191   4.804  0.0480 -1.2733  0.7052
 1194TIP3    H2 3547   2.618   2.194   4.793  0.0888  0.1460  0.3474
 1195TIP3   OH2 3548   2.177   6.053   3.697  0.3708  0.0264 -0.0542
 1195TIP3    H1 3549   2.160   5.994   3.770 -0.7540  0.6238  0.1876
 1195TIP3    H2 3550   2.099   6.048   3.643 -0.7625  2.8645  1.0971
 1196TIP3   OH2 3551   4.302   6.435   2.339 -0.0122  0.4252  0.0660
 1196TIP3    H1 3552   4.224   6.391   2.372 -0.3311  0.2483 -0.8918
 1196TIP3    H2 3553   4.373   6.372   2.352 -0.3258 -0.0650 -0.5733
 1197TIP3   OH2 3554   2.131   4.122   4.942 -0.0639 -0.3017  0.2530
 1197TIP3    H1 3555   2.126   4.199   4.886 -1.0116 -0.3279  0.3000
 1197TIP3    H2 3556   2.164   4.154   5.025 -0.5584  0.0680  0.3053
 1198TIP3   OH2 3557   2.094   2.862   4.136 -0.2860  0.3635 -0.2279
 1198TIP3    H1 3558   2.111   2.892   4.047 -0.7674 -0.1915 -0.5209
 1198TIP3    H2 3559   2.066   2.940   4.183 -0.0806  0.6502 -0.5799
 1199TIP3   OH2 3560   6.225   3.367   4.821 -0.2519 -0.3861 -0.3063
 1199TIP3    H1 3561   6.244   3.395   4.911 -0.6042  0.2567 -0.4283
 1199TIP3    H2 3562   6.260   3.437   4.766  0.2860 -0.9493 -0.6908
 1200TIP3   OH2 3563   1.600   5.652   5.427  0.2276 -0.5696 -0.1288
 1200TIP3    H1 3564   1.559   5.644   5.341  2.7619 -1.2763 -1.3721
 1200TIP3    H2 3565   1.592   5.744   5.449 -0.7809 -0.4454 -0.9248
 1201TIP3   OH2 3566   2.887   2.063   5.740 -0.1250 -0.1201 -0.1059
 1201TIP3    H1 3567   2.884   1.979   5.696  1.3019  0.3859 -1.2223
 1201TIP3    H2 3568   2.889   2.042   5.833 -0.9880 -1.2645 -0.3337
 1202TIP3   OH2 3569   6.317   2.326   4.015 -0.3357  0.8281  0.1478
 1202TIP3    H1 3570   6.335   2.238   4.048 -2.0577  0.0713 -0.7369
 1202TIP3    H2 3571   6.305   2.314   3.920  0.0180  2.1245 -0.0796
 1203TIP3   OH2 3572   2.303   3.935   2.829  0.0265 -0.4488 -0.0257
 1203TIP3    H1 3573   2.218   3.952   2.789  0.1004 -0.7955 -0.3462
 1203TIP3    H2 3574   2.365   3.981   2.772  0.0396 -0.0715  0.2933
 1204TIP3   OH2 3575   3.017   1.625   1.487 -0.4113 -0.2423  0.1836
 1204TIP3    H1 3576   3.028   1.554   1.423  0.1227  1.6489 -1.9513
 1204TIP3    H2 3577   3.094   1.618   1.543  0.2986 -0.6276 -0.7939
 1205TIP3   OH2 3578   5.059   0.034   2.067  0.0674 -0.3574  0.5795
 1205TIP3    H1 3579   4.976   0.080   2.082  0.5379 -0.0280  2.3426
 1205TIP3    H2 3580   5.107   0.093   2.008  0.5089  1.3309  2.5011
 1206TIP3   OH2 3581   1.285   4.104   5.841  0.1556 -0.2326  0.3117
 1206TIP3    H1 3582   1.330   4.136   5.919  0.1546  0.5537 -0.0028
 1206TIP3    H2 3583   1.229   4.034   5.873  1.6820 -1.3330  0.6938
 1207TIP3   OH2 3584   0.978   4.930   2.422 -0.8329 -0.3814 -0.2189
 1207TIP3    H1 3585   0.994   4.859   2.484  0.8923 -0.0809 -0.2608
 1207TIP3    H2 3586   1.041   4.997   2.446 -4.0942  2.3872  1.5318
 1208TIP3   OH2 3587   3.551   3.218   4.677 -0.6235 -0.1586  0.0708
 1208TIP3    H1 3588   3.488   3.260   4.620 -0.8911  0.9362  1.1422
 1208TIP3    H2 3589   3.593   3.289   4.725 -0.5076 -1.0266  1.3403
 1209TIP3   OH2 3590   6.691   5.954   5.429  0.5028 -0.5603 -0.1411
 1209TIP3    H1 3591   6.624   6.012   5.465 -0.0678 -0.9198 -0.6028
 1209TIP3    H2 3592   6.722   5.999   5.350  2.1830  0.5204  1.0444
 1210TIP3   OH2 3593   5.965   3.697   1.566  0.4114  0.1493 -0.3608
 1210TIP3    H1 3594   5.917   3.696   1.483  0.6872  0.2424 -0.5217
 1210TIP3    H2 3595   6.008   3.782   1.567  0.6011  0.0515 -0.2325
 1211TIP3   OH2 3596   3.534   6.760   1.084 -0.0644 -0.0525 -0.9009
 1211TIP3    H1 3597   3.574   6.801   1.161 -0.1434 -0.5554 -0.5850
 1211TIP3    H2 3598   3.602   6.704   1.048  0.3310  0.9970 -1.8449
 1212TIP3   OH2 3599   0.716   5.848   1.795  0.1342  0.4760 -0.2452
 1212TIP3    H1 3600   0.744   5.813   1.880 -0.1964  0.4000 -0.1658
 1212TIP3    H2 3601   0.634   5.894   1.814 -0.5428 -0.5039 -0.7132
 1213TIP3   OH2 3602   4.440   0.909   1.333 -0.8608  0.4149 -0.0140
 1213TIP3    H1 3603   4.401   0.863   1.407 -0.9972  0.5474 -0.0040
 1213TIP3    H2 3604   4.368   0.959   1.294 -0.7890  0.3445 -0.2364
 1214TIP3   OH2 3605   5.967   0.191   3.481  0.0155  0.5553 -0.0571
 1214TIP3    H1 3606   5.912   0.255   3.437  0.0126 -0.1090 -1.0391
 1214TIP3    H2 3607   6.010   0.142   3.411  0.6122 -0.0167  0.6750
 1215TIP3   OH2 3608   6.217   0.115   2.054  0.1767 -0.1042 -0.6217
 1215TIP3    H1 3609   6.258   0.063   1.985  0.5624 -0.6891  0.0317
 1215TIP3    H2 3610   6.290   0.154   2.102 -0.1044  1.1436 -1.1571
 1216TIP3   OH2 3611   0.977   1.442   5.082  0.2733 -0.0991  0.0560
 1216TIP3    H1 3612   1.036   1.510   5.115  1.1679  0.2466 -2.0462
 1216TIP3    H2 3613   1.033   1.385   5.029 -0.5539 -2.2598  1.4004
 1217TIP3   OH2 3614   0.654   1.000   2.420 -0.5252  0.8428  0.6737
 1217TIP3    H1 3615   0.683   0.939   2.487  2.0190  0.1692 -0.9198
 1217TIP3    H2 3616   0.671   0.954   2.337 -3.4305  1.6773 -0.5098
 1218TIP3   OH2 3617   4.976   0.739   4.987 -0.5134  0.9966  0.4737
 1218TIP3    H1 3618   4.884   0.716   4.971 -0.7945  2.6875 -0.6139
 1218TIP3    H2 3619   5.002   0.683   5.060 -2.2418  0.0950  0.4650
 1219TIP3   OH2 3620   5.444   0.741   3.101  0.7258  0.0531 -0.0110
 1219TIP3    H1 3621   5.390   0.672   3.062  0.1193  0.3937  0.2257
 1219TIP3    H2 3622   5.462   0.710   3.189  1.2283 -0.2287 -0.2066
 1220TIP3   OH2 3623   3.946   6.335   3.040 -0.3367 -0.0025 -0.1734
 1220TIP3    H1 3624   3.959   6.274   2.968  0.0800  0.8638 -0.8635
 1220TIP3    H2 3625   3.980   6.419   3.007 -0.5490  0.5202  0.8669
 1221TIP3   OH2 3626   1.904   3.250   0.078 -0.1947  0.6151 -0.3096
 1221TIP3    H1 3627   1.853   3.278   0.154 -1.8406 -1.2028 -0.6471
 1221TIP3    H2 3628   1.838   3.218   0.016  1.2326  0.3493 -1.7565
 1222TIP3   OH2 3629   3.818   1.534   4.142  0.8284  0.0884 -0.0229
 1222TIP3    H1 3630   3.734   1.496   4.168  0.5862 -1.1976 -2.3776
 1222TIP3    H2 3631   3.795   1.600   4.076  1.5849  0.6383  0.2547
 1223TIP3   OH2 3632   4.976   0.405   0.958  0.3578  0.3174  0.2592
 1223TIP3    H1 3633   4.963   0.411   1.052  1.1337  0.1810  0.3861
 1223TIP3    H2 3634   5.025   0.484   0.935 -0.4854  0.7311 -0.1640
 1224TIP3   OH2 3635   5.628   0.203   5.139 -0.2729 -0.5534  0.5862
 1224TIP3    H1 3636   5.683   0.247   5.204 -0.8891  0.4966  0.4229
 1224TIP3    H2 3637   5.669   0.223   5.055 -1.2898  0.8979  0.3949
 1225TIP3   OH2 3638   1.026   3.124   0.326  0.1393 -0.5908  0.6560
 1225TIP3    H1 3639   1.097   3.169   0.370  0.2850 -0.8882  0.7243
 1225TIP3    H2 3640   1.034   3.032   0.352 -0.2089 -0.6450  0.5885
 1226TIP3   OH2 3641   1.108   0.629   2.762  0.2948 -0.4942  0.8802
 1226TIP3    H1 3642   1.174   0.617   2.830  0.2809 -1.4516  0.7461
 1226TIP3    H2 3643   1.052   0.551   2.769 -1.1360  0.5382  1.3342
 1227TIP3   OH2 3644   1.864   3.826   4.503 -0.2299 -0.0821  0.3969
 1227TIP3    H1 3645   1.901   3.739   4.512  2.1119  0.6866 -1.0728
 1227TIP3    H2 3646   1.935   3.886   4.525 -2.1405  1.5639  2.7673
 1228TIP3   OH2 3647   3.691   1.728   0.943  0.7650 -0.0090 -0.6180
 1228TIP3    H1 3648   3.700   1.712   1.037 -0.8174 -1.4226 -0.6636
 1228TIP3    H2 3649   3.652   1.815   0.937 -1.1447 -0.7731  0.1527
 1229TIP3   OH2 3650   4.853   5.133   5.689 -0.4610  0.3488 -0.3958
 1229TIP3    H1 3651   4.868   5.197   5.619 -0.7776  1.7077  0.7383
 1229TIP3    H2 3652   4.924   5.148   5.751 -1.8547  1.2609  1.0477
 1230TIP3   OH2 3653   4.473   3.325   4.233  0.0504  0.1373 -0.1953
 1230TIP3    H1 3654   4.404   3.268   4.199 -1.7708 -0.0151  3.2497
 1230TIP3    H2 3655   4.544   3.264   4.256 -0.2440 -0.2326 -0.2459
 1231TIP3   OH2 3656   0.752   4.902   2.634 -0.4868 -0.1926 -0.1180
 1231TIP3    H1 3657   0.689   4.932   2.568  0.8015  2.7266 -0.1966
 1231TIP3    H2 3658   0.805   4.980   2.654  1.5023 -1.8736  1.7468
 1232TIP3   OH2 3659   5.542   2.695   5.193 -0.6250  0.0950 -0.2952
 1232TIP3    H1 3660   5.614   2.759   5.193  0.3526 -0.9733  0.1487
 1232TIP3    H2 3661   5.498   2.709   5.276  1.0514 -1.3485  0.9124
 1233TIP3   OH2 3662   6.523   0.501   2.893  0.5076  0.1051  0.3399
 1233TIP3    H1 3663   6.554   0.590   2.878  0.6105  0.3944  2.0746
 1233TIP3    H2 3664   6.465   0.508   2.968 -0.9754 -1.0200 -0.6437
 1234TIP3   OH2 3665   0.088   5.471   4.645  0.5017  0.0011 -0.1844
 1234TIP3    H1 3666   0.164   5.526   4.625 -0.3041  1.2147 -0.0229
 1234TIP3    H2 3667   0.040   5.467   4.562 -0.1097  0.6376  0.1303
 1235TIP3   OH2 3668   5.753   3.181   2.451 -0.1757  0.0988  0.2110
 1235TIP3    H1 3669   5.745   3.219   2.363 -1.1767 -0.1040  0.1928
 1235TIP3    H2 3670   5.663   3.160   2.475  0.3747 -3.5228 -0.3482
 1236TIP3   OH2 3671   1.005   1.858   2.387 -0.0392 -0.0451  0.1519
 1236TIP3    H1 3672   1.017   1.800   2.462 -1.0154  1.1194  1.2524
 1236TIP3    H2 3673   0.979   1.799   2.316  0.4967 -1.1221  0.8118
 1237TIP3   OH2 3674   5.135   2.009   4.166 -0.4147  0.4234 -0.4221
 1237TIP3    H1 3675   5.097   1.927   4.197  0.7287  0.6802  1.8241
 1237TIP3    H2 3676   5.074   2.077   4.193  0.2179  0.5808  0.6527
 1238TIP3   OH2 3677   5.700   0.322   1.236 -0.0553  0.0502 -0.0746
 1238TIP3    H1 3678   5.676   0.250   1.179 -0.1228  0.7718 -0.9940
 1238TIP3    H2 3679   5.744   0.385   1.178  2.0179 -0.2131  1.0937
 1239TIP3   OH2 3680   3.775   2.594   4.076 -0.1439  0.3821 -0.0868
 1239TIP3    H1 3681   3.803   2.677   4.116 -0.8620  0.9487 -0.7412
 1239TIP3    H2 3682   3.832   2.528   4.117  0.5155  1.2023  0.3622
 1240TIP3   OH2 3683   2.969   1.016   4.551 -0.2867  0.0164  0.0060
 1240TIP3    H1 3684   2.885   0.995   4.510  0.2342 -0.6155 -0.7732
 1240TIP3    H2 3685   2.955   1.101   4.591 -1.2947 -0.0648 -0.1280
 1241TIP3   OH2 3686   3.535   3.923   0.256  0.0460  0.2849 -0.7349
 1241TIP3    H1 3687   3.526   3.828   0.269  1.4539  0.1468 -0.6495
 1241TIP3    H2 3688   3.495   3.939   0.170  0.6096 -0.5375 -1.1686
 1242TIP3   OH2 3689   5.677   1.905  -0.012  0.9454 -1.2016  0.1741
 1242TIP3    H1 3690   5.682   1.839   0.057 -0.2821  0.6588  2.1894
 1242TIP3    H2 3691   5.676   1.989   0.035  0.5406  0.1948 -2.1481
 1243TIP3   OH2 3692   1.801   0.523   1.429  0.6169  0.1907  0.2073
 1243TIP3    H1 3693   1.813   0.429   1.418  1.4144  0.1856  1.0088
 1243TIP3    H2 3694   1.865   0.563   1.369 -0.4099  0.2505 -0.8840
 1244TIP3   OH2 3695   0.334   2.574   5.575  0.8273 -0.1389  0.0023
 1244TIP3    H1 3696   0.319   2.519   5.498 -0.2749  0.5692 -0.3230
 1244TIP3    H2 3697   0.411   2.537   5.617  1.5493 -0.4579 -1.5270
 1245TIP3   OH2 3698   3.542   5.025   0.551  0.3450 -0.2741  0.1304
 1245TIP3    H1 3699   3.529   5.063   0.464  0.7340 -0.6182 -0.0849
 1245TIP3    H2 3700   3.623   5.065   0.582  0.6816 -0.7961 -0.0392
 1246TIP3   OH2 3701   2.180   0.609   1.089  0.5598 -0.0446 -0.5128
 1246TIP3    H1 3702   2.199   0.549   1.018 -0.7919 -0.0297 -0.9213
 1246TIP3    H2 3703   2.200   0.696   1.053 -0.5256  0.0003 -1.0467
 1247TIP3   OH2 3704   2.496   3.271   3.570 -0.2336 -0.1415  0.5332
 1247TIP3    H1 3705   2.485   3.186   3.528  1.7877 -1.4660  2.5293
 1247TIP3    H2 3706   2.568   3.312   3.522  0.4688 -0.6474  1.1300
 1248TIP3   OH2 3707   2.616   3.448   5.200  0.2510  0.8558 -0.1759
 1248TIP3    H1 3708   2.590   3.479   5.287 -0.7286 -0.4058  0.0199
 1248TIP3    H2 3709   2.671   3.372   5.218 -2.2721 -1.2264 -0.5662
 1249TIP3   OH2 3710   6.715   4.972   1.982 -0.2197 -0.3598 -0.2357
 1249TIP3    H1 3711   6.798   5.020   1.985 -0.8013  0.7294 -0.8256
 1249TIP3    H2 3712   6.673   4.991   2.066 -0.7058  0.6983 -0.6891
 1250TIP3   OH2 3713   1.828   6.104   4.235 -0.0526 -0.2007 -0.2318
 1250TIP3    H1 3714   1.739   6.124   4.262 -0.0133 -0.7375  0.2946
 1250TIP3    H2 3715   1.867   6.189   4.214 -0.5059  0.0829  0.0890
 1251TIP3   OH2 3716   2.467   0.565   2.285 -0.1521  0.0286  0.2302
 1251TIP3    H1 3717   2.534   0.579   2.351  0.2099 -2.1012  0.3967
 1251TIP3    H2 3718   2.506   0.502   2.224 -1.4354 -0.0834 -0.5143
 1252TIP3   OH2 3719   0.225   2.662   2.533  0.1501 -0.0186 -0.4661
 1252TIP3    H1 3720   0.140   2.631   2.565  0.4589  0.5636  0.9908
 1252TIP3    H2 3721   0.235   2.620   2.447 -0.6178 -1.8144  0.2815
 1253TIP3   OH2 3722   7.173   5.603   1.688 -0.0944 -0.1082  0.4433
 1253TIP3    H1 3723   7.244   5.544   1.663  0.8934  1.6997 -1.2270
 1253TIP3    H2 3724   7.181   5.611   1.783  2.1593  0.2833  0.2651
 1254TIP3   OH2 3725   6.741   4.677   4.706 -0.0016  0.3167  0.4588
 1254TIP3    H1 3726   6.715   4.592   4.742 -1.4090  0.5768  0.1217
 1254TIP3    H2 3727   6.741   4.663   4.611  0.3005  0.5552  0.4228
 1255TIP3   OH2 3728   5.397   4.486   3.213 -1.1670  0.7288  0.7354
 1255TIP3    H1 3729   5.332   4.484   3.284 -2.6737  0.0975 -0.5991
 1255TIP3    H2 3730   5.433   4.398   3.210 -1.2090  0.7144  0.6384
 1256TIP3   OH2 3731   3.525   4.974   4.870  0.3753  0.3053 -0.3013
 1256TIP3    H1 3732   3.491   4.954   4.783 -0.2365 -0.6913  0.1557
 1256TIP3    H2 3733   3.618   4.951   4.865  0.1768 -0.4984 -0.4705
 1257TIP3   OH2 3734   1.696   6.193   4.792  0.2747  0.2212  0.3421
 1257TIP3    H1 3735   1.619   6.141   4.768  1.4944 -2.0769  1.1265
 1257TIP3    H2 3736   1.660   6.263   4.847 -1.3182 -0.5603  0.3762
 1258TIP3   OH2 3737   4.760   3.872   5.303  0.1699  0.6053 -0.4288
 1258TIP3    H1 3738   4.801   3.929   5.368 -0.6741  0.2095  0.4927
 1258TIP3    H2 3739   4.769   3.919   5.220 -1.0010  2.3820  0.3713
 1259TIP3   OH2 3740   4.363   3.505   0.977 -0.3033 -0.6047 -0.3830
 1259TIP3    H1 3741   4.334   3.590   1.010  1.0384  0.3753 -1.5983
 1259TIP3    H2 3742   4.313   3.492   0.896  0.4759 -0.3023 -0.9238
 1260TIP3   OH2 3743   2.835   1.531   1.115  0.0952  0.3253  0.5152
 1260TIP3    H1 3744   2.916   1.541   1.066  0.2665  0.3721  0.8051
 1260TIP3    H2 3745   2.773   1.495   1.052  0.1203  1.0346  0.0740
 1261TIP3   OH2 3746   0.459   5.713   4.779 -0.2078 -0.7127 -0.1385
 1261TIP3    H1 3747   0.500   5.632   4.750  1.3457 -0.9879  2.4624
 1261TIP3    H2 3748   0.365   5.699   4.765  0.0577 -2.8054 -0.1273
 1262TIP3   OH2 3749   5.591   5.558   4.910  0.2782 -0.4237 -0.2210
 1262TIP3    H1 3750   5.668   5.599   4.949  0.3182 -0.2452 -0.4885
 1262TIP3    H2 3751   5.624   5.474   4.876  0.0163 -1.1004  1.1105
 1263TIP3   OH2 3752   5.119   1.152   5.031 -0.4326 -0.6453  0.2939
 1263TIP3    H1 3753   5.033   1.121   5.001 -0.2644 -0.7159 -0.1112
 1263TIP3    H2 3754   5.128   1.239   4.992  0.2180 -1.1391 -0.6967
 1264TIP3   OH2 3755   6.763   0.331   4.901  0.1666  0.1163 -0.0932
 1264TIP3    H1 3756   6.669   0.336   4.879  0.1909 -1.3873 -0.6829
 1264TIP3    H2 3757   6.793   0.253   4.856  1.8361  0.8422 -0.2981
 1265TIP3   OH2 3758   3.298   1.456   5.579 -0.0668 -0.4681  0.3136
 1265TIP3    H1 3759   3.282   1.450   5.673  0.9995  1.7050  0.7095
 1265TIP3    H2 3760   3.279   1.548   5.557 -1.7033 -1.2508 -1.9071
 1266TIP3   OH2 3761   5.356   5.686   2.609  0.0512  0.1219  0.1556
 1266TIP3    H1 3762   5.402   5.633   2.544  0.7645 -0.8261  1.3905
 1266TIP3    H2 3763   5.334   5.767   2.563  1.6346 -0.0113 -0.9019
 1267TIP3   OH2 3764   1.549   2.760   4.848 -0.4743  0.0153 -0.3792
 1267TIP3    H1 3765   1.512   2.846   4.830 -1.5164 -0.5523 -1.0569
 1267TIP3    H2 3766   1.478   2.711   4.889  1.0421  0.3998  2.9559
 1268TIP3   OH2 3767   0.193   3.839   4.510 -0.3851 -0.1542  0.0133
 1268TIP3    H1 3768   0.226   3.842   4.600  1.0172  0.0546 -0.4803
 1268TIP3    H2 3769   0.117   3.898   4.510 -0.6482 -0.4723  1.1407
 1269TIP3   OH2 3770   3.817   0.737   4.601  0.5307  0.5552  0.4045
 1269TIP3    H1 3771   3.855   0.755   4.687  0.0676  0.2028  0.6861
 1269TIP3    H2 3772   3.722   0.736   4.616  0.4339  0.7408 -0.1600
 1270TIP3   OH2 3773   0.363   4.429   3.124 -0.3137 -0.1759 -0.3838
 1270TIP3    H1 3774   0.324   4.460   3.042  1.3903 -0.4942 -1.3681
 1270TIP3    H2 3775   0.422   4.359   3.097  0.6726  0.0595  1.0662
 1271TIP3   OH2 3776   6.600   5.728   4.435  0.3860  1.4193 -0.0164
 1271TIP3    H1 3777   6.618   5.634   4.441 -2.0128  0.9915  2.3244
 1271TIP3    H2 3778   6.663   5.769   4.494  2.9145  1.6685 -2.6618
 1272TIP3   OH2 3779   0.550   0.612   3.359  0.3429  0.0353 -0.1654
 1272TIP3    H1 3780   0.508   0.696   3.339  2.0403  1.2207  0.9031
 1272TIP3    H2 3781   0.608   0.632   3.433 -1.7589 -2.9142  2.5046
 1273TIP3   OH2 3782   5.367   2.183   4.764  0.2183 -0.3253  0.1362
 1273TIP3    H1 3783   5.306   2.210   4.833 -0.5194 -1.2461 -0.1230
 1273TIP3    H2 3784   5.314   2.129   4.706  0.6598  0.9593 -1.5312
 1274TIP3   OH2 3785   7.190   3.687   1.850 -0.0556  0.2326  0.3554
 1274TIP3    H1 3786   7.260   3.694   1.915  0.9505  0.8737 -0.7415
 1274TIP3    H2 3787   7.110   3.709   1.898  0.4599 -0.6811  1.6842
 1275TIP3   OH2 3788   2.135   5.597   5.211 -0.4152  0.3643 -0.2250
 1275TIP3    H1 3789   2.206   5.636   5.161 -0.3384  0.4598 -0.0427
 1275TIP3    H2 3790   2.176   5.567   5.292 -0.7208  1.1378  0.2328
 1276TIP3   OH2 3791   1.580   0.600  -0.001  0.4253 -0.4848 -0.2075
 1276TIP3    H1 3792   1.531   0.668  -0.047 -0.2714 -0.0620  1.1298
 1276TIP3    H2 3793   1.632   0.646   0.064  0.6081 -1.1629  0.1412
 1277TIP3   OH2 3794   7.207   4.781   3.779  0.3607  0.0777  0.4033
 1277TIP3    H1 3795   7.219   4.827   3.862  0.6453 -0.2606  0.5504
 1277TIP3    H2 3796   7.122   4.812   3.747  0.3518  0.3767  0.7120
 1278TIP3   OH2 3797   1.265   2.710   0.404  0.0893  0.1901  0.0605
 1278TIP3    H1 3798   1.301   2.782   0.352 -1.1517  1.2126  0.5715
 1278TIP3    H2 3799   1.171   2.712   0.386 -0.3584  0.4472  2.1597
 1279TIP3   OH2 3800   3.856   4.664   5.699 -0.5729 -0.2432 -0.6120
 1279TIP3    H1 3801   3.772   4.671   5.744 -0.5970 -1.8128 -0.3663
 1279TIP3    H2 3802   3.834   4.637   5.610 -0.3233 -0.9694 -0.4601
 1280TIP3   OH2 3803   2.787   5.253   4.649 -0.1612 -0.2085 -0.3913
 1280TIP3    H1 3804   2.707   5.256   4.596 -1.7376 -0.7773  1.7627
 1280TIP3    H2 3805   2.805   5.344   4.670  0.0263 -0.0397 -1.2534
 1281TIP3   OH2 3806   4.721   0.224   3.316  0.9886 -0.0066 -0.6341
 1281TIP3    H1 3807   4.781   0.202   3.387  1.8233  0.3790 -1.2060
 1281TIP3    H2 3808   4.739   0.317   3.299  2.1970 -0.5533 -2.6395
 1282TIP3   OH2 3809   1.464   3.981   3.155 -0.3722 -0.3501  0.2204
 1282TIP3    H1 3810   1.421   4.004   3.238  0.7778  2.3231  0.1674
 1282TIP3    H2 3811   1.555   3.965   3.179 -0.4495 -1.7273 -0.2879
 1283TIP3   OH2 3812   3.788   5.777   3.942 -0.5210 -0.0670 -0.0367
 1283TIP3    H1 3813   3.723   5.783   3.872 -0.6863 -0.9037  0.0302
 1283TIP3    H2 3814   3.778   5.858   3.992 -1.9296 -0.4342  0.3254
 1284TIP3   OH2 3815   0.871   1.488   2.706  0.7515  0.0076 -0.5508
 1284TIP3    H1 3816   0.955   1.529   2.726  0.3579  1.1883 -1.2281
 1284TIP3    H2 3817   0.891   1.421   2.641  1.5395 -1.5714  1.2238
 1285TIP3   OH2 3818   3.196   4.478   2.519  0.0455  0.7364 -0.0587
 1285TIP3    H1 3819   3.185   4.407   2.456 -0.7755  1.4559 -0.7562
 1285TIP3    H2 3820   3.260   4.536   2.480  1.0512  0.1865  0.7146
 1286TIP3   OH2 3821   4.506   5.449   0.049 -0.0510  0.5247  0.3296
 1286TIP3    H1 3822   4.591   5.452   0.005  0.0697 -0.5867  0.4671
 1286TIP3    H2 3823   4.526   5.423   0.139 -0.6402 -1.1000  0.0186
 1287TIP3   OH2 3824   5.875   0.670   2.682 -0.1231  0.1205 -0.0046
 1287TIP3    H1 3825   5.899   0.718   2.602 -0.6690  1.3542  0.5551
 1287TIP3    H2 3826   5.933   0.593   2.681 -0.5247 -0.2118 -1.8824
 1288TIP3   OH2 3827   2.357   4.931   3.401  0.0886  0.3979 -0.2593
 1288TIP3    H1 3828   2.367   4.836   3.398  0.8364  0.4642  0.1019
 1288TIP3    H2 3829   2.317   4.949   3.486 -1.5575  0.2862 -0.9725
 1289TIP3   OH2 3830   1.205   1.528   4.005 -0.0598  0.5096  0.4292
 1289TIP3    H1 3831   1.215   1.624   4.004  0.3800  0.5083 -2.2493
 1289TIP3    H2 3832   1.225   1.503   4.095 -1.5099  3.0395  1.5775
 1290TIP3   OH2 3833   0.204   4.177   2.722 -0.0352  0.1769  0.6617
 1290TIP3    H1 3834   0.122   4.224   2.708 -0.1292 -0.2753 -0.3508
 1290TIP3    H2 3835   0.205   4.160   2.816 -0.9576  0.4404  0.7345
 1291TIP3   OH2 3836   5.366   6.625   5.869 -0.1511  1.2825 -0.0025
 1291TIP3    H1 3837   5.297   6.570   5.832  1.1499 -0.7258  0.4530
 1291TIP3    H2 3838   5.433   6.564   5.900  1.7032  3.1390 -0.1119
 1292TIP3   OH2 3839   1.630   3.158   2.248  0.1728 -0.4863 -0.4123
 1292TIP3    H1 3840   1.658   3.205   2.327  1.6457 -0.9174 -0.6480
 1292TIP3    H2 3841   1.619   3.227   2.183  1.5968 -0.3648 -0.5507
 1293TIP3   OH2 3842   1.835   1.398   5.037 -0.3659  0.2520  0.1957
 1293TIP3    H1 3843   1.831   1.487   5.073  0.8690  1.3507 -2.2225
 1293TIP3    H2 3844   1.749   1.384   4.997 -0.0606  0.9571 -0.7208
 1294TIP3   OH2 3845   1.749   2.428   4.865 -0.1462 -0.5998  0.3366
 1294TIP3    H1 3846   1.808   2.363   4.904 -0.7873 -0.8356  0.9225
 1294TIP3    H2 3847   1.803   2.471   4.798  0.3694 -1.5458  0.1159
 1295TIP3   OH2 3848   6.848   2.746   0.635  0.4630 -0.0452 -0.0904
 1295TIP3    H1 3849   6.880   2.685   0.701 -0.6655  0.9968  1.4815
 1295TIP3    H2 3850   6.788   2.694   0.581 -0.0855 -0.4623  0.9068
 1296TIP3   OH2 3851   0.520   3.574   2.063 -0.3226 -0.3136  0.0776
 1296TIP3    H1 3852   0.599   3.613   2.101  0.1526 -0.1494 -1.0332
 1296TIP3    H2 3853   0.500   3.630   1.988 -1.9501  0.1037  0.7676
 1297TIP3   OH2 3854   5.803   5.871   3.582  0.5253 -0.0254 -0.0309
 1297TIP3    H1 3855   5.801   5.961   3.615  2.4715  0.1107 -0.1632
 1297TIP3    H2 3856   5.720   5.833   3.611  0.0099  1.5717  0.7019
 1298TIP3   OH2 3857   6.205   0.221   3.072  0.1960  0.0030 -0.8752
 1298TIP3    H1 3858   6.160   0.136   3.075 -1.0920  0.6550 -1.2704
 1298TIP3    H2 3859   6.241   0.232   3.160 -0.6358 -0.4207 -0.4701
 1299TIP3   OH2 3860   3.383   3.277   2.867  0.2739 -0.3636 -0.1706
 1299TIP3    H1 3861   3.469   3.276   2.909  0.9944  1.7555 -1.4298
 1299TIP3    H2 3862   3.327   3.225   2.925  1.5590  1.1414  2.6268
 1300TIP3   OH2 3863   1.220   5.831   4.093  0.2069  0.0293  0.2151
 1300TIP3    H1 3864   1.234   5.787   4.009 -2.8619 -1.0442  0.1249
 1300TIP3    H2 3865   1.222   5.924   4.073  1.1187 -0.1692 -0.7030
 1301TIP3   OH2 3866   6.228   5.418   3.235 -0.3273 -0.3071 -0.5287
 1301TIP3    H1 3867   6.221   5.333   3.278 -0.8600 -0.6268 -1.2159
 1301TIP3    H2 3868   6.205   5.400   3.143 -1.3740  0.7382 -0.4990
 1302TIP3   OH2 3869   4.679   6.653   1.388  0.4356  0.3365 -0.5372
 1302TIP3    H1 3870   4.628   6.591   1.336  0.8628  0.0622 -0.6325
 1302TIP3    H2 3871   4.708   6.718   1.324  2.8748 -1.2035 -1.1293
 1303TIP3   OH2 3872   0.181   2.358   0.317  0.1987 -0.0928 -0.5398
 1303TIP3    H1 3873   0.237   2.379   0.242  0.9295 -1.6604 -0.4776
 1303TIP3    H2 3874   0.239   2.309   0.376 -0.0081  2.0698  1.6254
 1304TIP3   OH2 3875   5.429   4.908   2.477  0.0145 -0.7461  0.0425
 1304TIP3    H1 3876   5.482   4.988   2.477 -0.7599 -0.1091 -3.1676
 1304TIP3    H2 3877   5.477   4.848   2.421 -1.2390 -1.1760 -0.5920
 1305TIP3   OH2 3878   3.019   6.709   4.792  0.5693  0.3794  0.1567
 1305TIP3    H1 3879   2.934   6.724   4.750  0.2930 -0.9884  0.1987
 1305TIP3    H2 3880   2.998   6.702   4.885  0.4450 -1.8106 -0.0007
 1306TIP3   OH2 3881   1.940   0.247   0.581  0.1893 -0.1767  0.7550
 1306TIP3    H1 3882   1.984   0.191   0.645  1.5095  1.5422  1.4211
 1306TIP3    H2 3883   1.932   0.332   0.625 -0.6640  0.5092 -0.6551
 1307TIP3   OH2 3884   0.122   1.239   3.593  0.2381 -0.1862 -0.0637
 1307TIP3    H1 3885   0.029   1.239   3.572  0.5983  2.9159 -2.4669
 1307TIP3    H2 3886   0.130   1.294   3.670  0.1513  0.4457 -0.5004
 1308TIP3   OH2 3887   4.529   5.780   3.905  0.0849  0.1471 -0.0538
 1308TIP3    H1 3888   4.513   5.691   3.937  1.3465  0.0099  0.2517
 1308TIP3    H2 3889   4.448   5.805   3.860 -0.2535 -1.1820 -0.2112
 1309TIP3   OH2 3890   6.066   5.803   3.469  0.1434  0.2882  0.0289
 1309TIP3    H1 3891   6.002   5.789   3.538 -0.2394  1.2634 -0.1122
 1309TIP3    H2 3892   6.027   5.762   3.391  0.4868 -0.6343  0.3211
 1310TIP3   OH2 3893   5.868   0.663   4.959 -0.7982  0.2124  0.3984
 1310TIP3    H1 3894   5.933   0.710   5.011 -0.0281  0.5377 -0.8127
 1310TIP3    H2 3895   5.799   0.728   4.943  0.4485  1.1626 -1.6102
 1311TIP3   OH2 3896   2.752   1.783   0.818  0.5174  0.1254  0.3514
 1311TIP3    H1 3897   2.798   1.762   0.899 -0.1792 -0.9250  0.4931
 1311TIP3    H2 3898   2.659   1.772   0.839  0.2543  1.0330 -0.2603
 1312TIP3   OH2 3899   0.397   4.414   4.543  0.0224 -0.4850  0.1891
 1312TIP3    H1 3900   0.348   4.484   4.501  1.4631 -0.3240 -1.2971
 1312TIP3    H2 3901   0.373   4.420   4.636 -1.9990  0.1769 -0.3321
 1313TIP3   OH2 3902   4.867   0.727   1.849  0.5731 -0.0284  0.1597
 1313TIP3    H1 3903   4.815   0.700   1.773 -1.3684  1.2885  0.9493
 1313TIP3    H2 3904   4.853   0.658   1.914 -2.7460  1.6362  1.4396
 1314TIP3   OH2 3905   6.183   5.542   5.296 -0.0806  0.2817 -0.3116
 1314TIP3    H1 3906   6.237   5.464   5.312  1.4500  1.2535 -0.5146
 1314TIP3    H2 3907   6.096   5.518   5.330  0.4226 -1.3827 -0.0801
 1315TIP3   OH2 3908   2.850   1.573   4.707  0.5566  0.1909 -0.1401
 1315TIP3    H1 3909   2.830   1.646   4.649  0.6696 -0.6355 -1.2614
 1315TIP3    H2 3910   2.764   1.535   4.727  0.4674  0.8257  0.7312
 1316TIP3   OH2 3911   1.126   2.421   4.748 -0.0584  0.1031 -0.2816
 1316TIP3    H1 3912   1.122   2.351   4.812  2.2775 -0.8534 -1.0797
 1316TIP3    H2 3913   1.104   2.379   4.665  0.6112  0.4722 -0.6525
 1317TIP3   OH2 3914   4.421   5.150   2.847 -0.2827  0.6706  0.1799
 1317TIP3    H1 3915   4.367   5.092   2.793 -0.3273  0.4886  0.4143
 1317TIP3    H2 3916   4.433   5.229   2.794  0.2653  0.2197 -0.3835
 1318TIP3   OH2 3917   0.587   2.351   5.366 -0.4002 -0.0641  0.0695
 1318TIP3    H1 3918   0.682   2.346   5.350 -0.1835 -0.2915  1.3073
 1318TIP3    H2 3919   0.580   2.370   5.459 -1.5703  2.2346 -0.4186
 1319TIP3   OH2 3920   6.425   5.169   1.540 -0.4154 -0.2481 -0.8153
 1319TIP3    H1 3921   6.470   5.198   1.619 -1.0587 -0.9491 -0.1644
 1319TIP3    H2 3922   6.333   5.189   1.557 -0.3424  1.5473 -2.2918
 1320TIP3   OH2 3923   6.089   6.556   5.802  0.3251  0.6863  0.0889
 1320TIP3    H1 3924   6.184   6.550   5.789  0.5256  1.3114  1.1123
 1320TIP3    H2 3925   6.051   6.517   5.724  1.4183  1.2930 -0.7656
 1321TIP3   OH2 3926   0.530   6.180   3.490  0.2643 -0.2473  0.5260
 1321TIP3    H1 3927   0.511   6.177   3.397  0.7917 -2.9828  0.4057
 1321TIP3    H2 3928   0.582   6.101   3.506 -0.5167 -0.3126  3.2709
 1322TIP3   OH2 3929   5.798   1.221   1.567  0.1007 -0.0620 -0.0368
 1322TIP3    H1 3930   5.766   1.199   1.479 -3.2233  1.2606  0.6801
 1322TIP3    H2 3931   5.746   1.167   1.626  1.0845  0.2846  1.1812
 1323TIP3   OH2 3932   6.597   6.298   4.548 -0.2413 -0.2162 -0.5794
 1323TIP3    H1 3933   6.681   6.323   4.587 -0.6686  0.6434 -0.1596
 1323TIP3    H2 3934   6.544   6.378   4.555 -1.1833 -0.8318 -0.5653
 1324TIP3   OH2 3935   1.355   0.074   1.105  0.5011  0.5019 -0.1069
 1324TIP3    H1 3936   1.312  -0.004   1.071 -0.6554  0.6882  0.8705
 1324TIP3    H2 3937   1.307   0.096   1.185  2.2790  0.8437  0.9335
 1325TIP3   OH2 3938   3.372   3.596   4.605 -0.1826  0.3455  0.0778
 1325TIP3    H1 3939   3.395   3.521   4.550  0.1436 -0.2541  1.0040
 1325TIP3    H2 3940   3.454   3.645   4.614 -0.0912  0.1301  0.4782
 1326TIP3   OH2 3941   0.905   4.808   4.418  0.3960  0.2680 -0.0882
 1326TIP3    H1 3942   0.899   4.902   4.431  2.6901  0.4886 -0.2094
 1326TIP3    H2 3943   0.963   4.798   4.342 -1.0576 -1.2376 -1.0738
 1327TIP3   OH2 3944   4.901   1.329   0.879  0.4890 -0.1205  0.0731
 1327TIP3    H1 3945   4.901   1.361   0.789  1.2682 -0.7476 -0.1590
 1327TIP3    H2 3946   4.943   1.398   0.930  2.1843 -0.7422 -0.4268
 1328TIP3   OH2 3947   1.582   2.902   3.836 -0.0436  0.4807 -0.1790
 1328TIP3    H1 3948   1.597   2.996   3.827  0.9721  0.3110 -0.3812
 1328TIP3    H2 3949   1.668   2.866   3.860 -0.7215 -0.2340  1.2820
 1329TIP3   OH2 3950   1.551   1.651   0.155  0.4523 -0.6015 -0.0223
 1329TIP3    H1 3951   1.564   1.734   0.201 -0.4411 -0.6773  0.3805
 1329TIP3    H2 3952   1.457   1.642   0.147  0.5706 -0.9215 -1.2972
 1330TIP3   OH2 3953   2.016   6.261   0.851 -0.0313  0.2631  0.0284
 1330TIP3    H1 3954   2.076   6.322   0.894  0.8655  0.4125 -1.3418
 1330TIP3    H2 3955   1.971   6.314   0.785  0.3329 -0.4047 -0.7810
 1331TIP3   OH2 3956   2.967   4.907   2.241 -0.2318  0.3713  0.3398
 1331TIP3    H1 3957   3.033   4.841   2.223  0.5014  1.0548  0.4469
 1331TIP3    H2 3958   3.017   4.988   2.253 -0.8228  0.4531  2.9885
 1332TIP3   OH2 3959   2.962   0.908   4.839  0.3116 -0.0624  0.2965
 1332TIP3    H1 3960   2.913   0.985   4.809  1.4313  1.2055  1.5115
 1332TIP3    H2 3961   2.973   0.854   4.761 -0.3622  1.1034 -0.6458
 1333TIP3   OH2 3962   1.187   4.085   4.691  0.3363 -0.2485  0.3344
 1333TIP3    H1 3963   1.104   4.049   4.659  0.4063 -0.2865  0.1942
 1333TIP3    H2 3964   1.248   4.074   4.618 -0.7839  4.6965 -1.7447
 1334TIP3   OH2 3965   0.714   2.836   2.931  0.0837  0.7638  0.3208
 1334TIP3    H1 3966   0.621   2.846   2.911 -0.0078  1.5822  1.0925
 1334TIP3    H2 3967   0.725   2.743   2.952 -0.1615  0.2400 -1.6477
 1335TIP3   OH2 3968   5.425   3.221   1.640 -0.2989 -0.0794  0.6465
 1335TIP3    H1 3969   5.367   3.203   1.566 -1.5843  0.9496  1.3431
 1335TIP3    H2 3970   5.444   3.315   1.633  0.6491 -0.2424  0.8886
 1336TIP3   OH2 3971   3.062   3.016   2.833 -0.2907  0.0760  0.1405
 1336TIP3    H1 3972   2.992   2.951   2.841  0.0975 -0.1282  2.3882
 1336TIP3    H2 3973   3.050   3.075   2.907  1.2671  0.6902 -0.0511
 1337TIP3   OH2 3974   5.669   6.629   1.791  0.3399  0.2142 -0.8362
 1337TIP3    H1 3975   5.638   6.718   1.807 -2.3748 -1.0067  1.2816
 1337TIP3    H2 3976   5.722   6.608   1.867 -1.6374 -0.9986  0.2789
 1338TIP3   OH2 3977   6.462   2.010   5.012 -0.2525  0.0809  0.4292
 1338TIP3    H1 3978   6.526   1.939   5.000  1.3497  1.7617 -1.7937
 1338TIP3    H2 3979   6.378   1.965   5.018  0.7791 -2.0662  0.0107
 1339TIP3   OH2 3980   5.301   0.078   3.109 -0.0045 -0.4296 -0.2430
 1339TIP3    H1 3981   5.292  -0.006   3.155  2.2289 -0.5470  0.1154
 1339TIP3    H2 3982   5.260   0.141   3.168  0.6397 -0.9310  0.7903
 1340TIP3   OH2 3983   1.964   5.831   3.715 -0.2226  0.9214 -0.2808
 1340TIP3    H1 3984   2.024   5.869   3.778 -1.3695  1.2948  0.6328
 1340TIP3    H2 3985   1.954   5.740   3.741  0.2552  0.7533 -0.6791
 1341TIP3   OH2 3986   3.315   4.750   3.811  0.9164  0.0931 -0.5367
 1341TIP3    H1 3987   3.288   4.828   3.764  0.4258 -0.5474 -1.3454
 1341TIP3    H2 3988   3.257   4.681   3.779  0.7317 -0.4183  0.8275
 1342TIP3   OH2 3989   0.325   6.208   4.263  0.1494  0.4157  0.1314
 1342TIP3    H1 3990   0.329   6.272   4.334  0.4926  0.8480 -0.2650
 1342TIP3    H2 3991   0.410   6.165   4.264 -0.2246 -0.3342  0.6569
 1343TIP3   OH2 3992   0.557   2.144   0.634  0.2298  0.3711  0.8970
 1343TIP3    H1 3993   0.588   2.079   0.571 -0.0505  0.0802  1.0548
 1343TIP3    H2 3994   0.537   2.094   0.712 -1.6317  0.3687  0.4789
 1344TIP3   OH2 3995   5.783   0.259   0.895 -0.0645 -0.3945  0.3895
 1344TIP3    H1 3996   5.792   0.348   0.928 -0.3692 -0.6875  1.2773
 1344TIP3    H2 3997   5.741   0.269   0.809 -0.2203  0.3022  0.5461
 1345TIP3   OH2 3998   6.615   5.015   5.002 -0.2189 -0.6885  0.4483
 1345TIP3    H1 3999   6.620   4.964   5.082  1.6093  0.4877  1.1342
 1345TIP3    H2 4000   6.643   5.103   5.027 -0.6943 -0.0043 -1.2540
 1346TIP3   OH2 4001   4.018   6.629   4.493 -0.2546 -0.0963 -0.0075
 1346TIP3    H1 4002   3.965   6.703   4.461 -0.9073 -0.6274 -0.1648
 1346TIP3    H2 4003   4.030   6.647   4.586 -0.6983  0.0335  0.0239
 1347TIP3   OH2 4004   5.263   0.122   0.569  0.1552  0.4620  0.3554
 1347TIP3    H1 4005   5.197   0.058   0.541 -0.3805  1.3203 -0.3827
 1347TIP3    H2 4006   5.222   0.168   0.642  0.3125  0.3710  0.5032
 1348TIP3   OH2 4007   1.609   1.779   1.346 -0.0492  0.2482 -0.5922
 1348TIP3    H1 4008   1.611   1.836   1.423 -1.0235  0.1601 -0.4902
 1348TIP3    H2 4009   1.617   1.691   1.382  3.3535  0.3339 -0.8679
 1349TIP3   OH2 4010   5.052   0.243   4.013  0.5023 -0.2057  0.1425
 1349TIP3    H1 4011   5.006   0.319   4.049 -0.6263 -1.6669  1.9433
 1349TIP3    H2 4012   5.124   0.227   4.073  1.4418  0.0969 -0.8709
 1350TIP3   OH2 4013   3.593   4.080   0.949 -0.4669 -0.2423  0.2789
 1350TIP3    H1 4014   3.630   4.127   1.024 -0.3378  2.5424 -1.3960
 1350TIP3    H2 4015   3.665   4.027   0.916  0.2700  0.5948  0.5270
 1351TIP3   OH2 4016   4.696   5.795   1.637 -0.3520  0.1347 -0.2865
 1351TIP3    H1 4017   4.660   5.736   1.571  2.1005 -2.1541  0.2456
 1351TIP3    H2 4018   4.773   5.834   1.595  1.6462 -1.8836  1.3111
 1352TIP3   OH2 4019   3.761   3.684   5.646  0.1501  0.0383 -0.0393
 1352TIP3    H1 4020   3.763   3.766   5.596 -0.7522  0.0540 -0.0550
 1352TIP3    H2 4021   3.682   3.639   5.616  0.0639 -0.3471  0.7445
 1353TIP3   OH2 4022   6.192   5.378   4.780 -0.5054 -0.0804 -0.0938
 1353TIP3    H1 4023   6.254   5.372   4.707 -0.4236 -0.0006 -0.0303
 1353TIP3    H2 4024   6.225   5.449   4.834 -1.2869  0.7342 -0.6481
 1354TIP3   OH2 4025   1.941   5.546   2.351  0.0387  0.0092  0.5088
 1354TIP3    H1 4026   1.888   5.603   2.296  1.9938  1.0986 -0.3731
 1354TIP3    H2 4027   1.941   5.462   2.307 -2.3556 -0.5705  1.4807
 1355TIP3   OH2 4028   3.078   2.834   5.129  0.1823  1.0644 -0.2466
 1355TIP3    H1 4029   3.150   2.853   5.068  0.9535 -2.2243 -0.5295
 1355TIP3    H2 4030   2.999   2.837   5.074  0.2299  2.8774 -0.3038
 1356TIP3   OH2 4031   0.947   1.879   3.738  0.4955  0.0973  0.0419
 1356TIP3    H1 4032   0.887   1.929   3.794 -0.3885  1.1884 -1.8063
 1356TIP3    H2 4033   1.025   1.934   3.732  1.3376 -0.8534  1.6088
 1357TIP3   OH2 4034   1.076   1.923   0.888  0.1062 -0.5277  0.2297
 1357TIP3    H1 4035   1.158   1.875   0.899 -0.0430 -0.8704 -0.1471
 1357TIP3    H2 4036   1.038   1.889   0.807  0.6104  1.1317 -0.7495
 1358TIP3   OH2 4037   6.140   1.412   3.258  0.1991  0.0100 -0.5091
 1358TIP3    H1 4038   6.195   1.489   3.274  0.0395 -0.0911  0.6397
 1358TIP3    H2 4039   6.120   1.378   3.346  0.0958 -1.2263 -0.9923
 1359TIP3   OH2 4040   1.093   6.384   4.571  0.2109  0.1865  0.3306
 1359TIP3    H1 4041   1.131   6.363   4.656 -0.5784  0.2553  0.7094
 1359TIP3    H2 4042   1.089   6.301   4.524  1.1331  0.2348  0.1518
 1360TIP3   OH2 4043   2.375   4.825   5.646  0.2813 -0.3733 -0.1075
 1360TIP3    H1 4044   2.400   4.918   5.649 -0.2138 -0.2635  1.4078
 1360TIP3    H2 4045   2.458   4.778   5.655  0.4892 -0.0646 -0.4150
 1361TIP3   OH2 4046   2.576   3.562   3.010  0.2307  0.4075  0.1214
 1361TIP3    H1 4047   2.549   3.653   2.998  0.5552  0.5431  0.4059
 1361TIP3    H2 4048   2.627   3.562   3.091  2.1597  0.3959 -1.0425
 1362TIP3   OH2 4049   4.007   2.045   4.135 -0.3235 -0.2642  0.0135
 1362TIP3    H1 4050   3.965   1.972   4.182  0.1236 -1.3712 -1.2332
 1362TIP3    H2 4051   4.096   2.048   4.170 -0.2104 -0.6161 -0.2372
 1363TIP3   OH2 4052   4.318   4.113   1.931  0.5985  0.2728 -0.1675
 1363TIP3    H1 4053   4.260   4.179   1.968 -1.1847 -0.5785 -1.3203
 1363TIP3    H2 4054   4.379   4.163   1.876  0.5969  1.1113  0.5633
 1364TIP3   OH2 4055   6.658   6.427   3.375 -0.1943  0.0993 -0.1963
 1364TIP3    H1 4056   6.689   6.363   3.311  1.0316 -0.5201  0.9706
 1364TIP3    H2 4057   6.582   6.467   3.333  1.0025  0.2754 -2.3632
 1365TIP3   OH2 4058   6.390   0.829   4.326 -0.1101 -0.1329  0.4215
 1365TIP3    H1 4059   6.329   0.866   4.262  1.7270  0.7133 -0.9326
 1365TIP3    H2 4060   6.417   0.903   4.380  0.1582 -0.3755  0.6284
 1366TIP3   OH2 4061   6.019   2.301   2.476  0.1446 -0.0693  0.1739
 1366TIP3    H1 4062   6.011   2.210   2.447  0.3540  0.2615 -0.9748
 1366TIP3    H2 4063   5.942   2.317   2.529  0.0540 -0.8879  0.2915
 1367TIP3   OH2 4064   0.995   1.631   1.520 -0.3999 -0.0533  0.7912
 1367TIP3    H1 4065   1.023   1.628   1.612  0.5944 -1.2445  0.4844
 1367TIP3    H2 4066   0.991   1.724   1.499  0.3373  0.2177  1.7774
 1368TIP3   OH2 4067   1.481   6.806   5.113  0.3001  0.4537 -0.4081
 1368TIP3    H1 4068   1.560   6.822   5.164  0.0411 -0.0549  0.1708
 1368TIP3    H2 4069   1.439   6.731   5.156 -0.6348  0.8814 -0.5337
 1369TIP3   OH2 4070   3.482   1.026   1.197 -0.4086  0.6282  0.7862
 1369TIP3    H1 4071   3.434   0.971   1.259  0.0343 -1.3615 -0.5516
 1369TIP3    H2 4072   3.458   0.993   1.111  4.6779 -2.0390 -0.0500
 1370TIP3   OH2 4073   0.996   3.212   0.035 -0.1590  0.3735  0.3629
 1370TIP3    H1 4074   0.988   3.205   0.131 -0.3396  0.1486  0.3334
 1370TIP3    H2 4075   1.000   3.306   0.018  0.9024  0.3962  0.6741
 1371TIP3   OH2 4076   0.210   2.454   2.753 -0.0586 -0.3374  0.6978
 1371TIP3    H1 4077   0.259   2.372   2.757  2.0336  0.5863 -2.1933
 1371TIP3    H2 4078   0.277   2.522   2.765 -1.2884  0.9899  0.3502
 1372TIP3   OH2 4079   3.749   0.609   2.350  0.1518 -0.0997 -0.5292
 1372TIP3    H1 4080   3.711   0.668   2.285  1.0729 -0.1883 -1.1749
 1372TIP3    H2 4081   3.797   0.666   2.410  0.7447 -0.1485 -0.9464
 1373TIP3   OH2 4082   5.424   5.380   0.293  0.4404 -0.0752 -0.3407
 1373TIP3    H1 4083   5.518   5.377   0.274  0.5690 -0.5636  0.3548
 1373TIP3    H2 4084   5.410   5.468   0.327  0.7385 -0.1636  0.0161
 1374TIP3   OH2 4085   5.071   0.120   5.787  0.1443 -0.1704  0.0062
 1374TIP3    H1 4086   4.980   0.094   5.796 -0.1739 -0.1590 -2.4875
 1374TIP3    H2 4087   5.084   0.187   5.855 -1.5055 -0.6226  0.8084
 1375TIP3   OH2 4088   2.815   1.328   3.325 -0.0688 -0.5075  0.4620
 1375TIP3    H1 4089   2.806   1.244   3.369 -1.8640  0.2162  1.6018
 1375TIP3    H2 4090   2.873   1.379   3.381 -0.9983 -0.1619  1.1360
 1376TIP3   OH2 4091   4.598   0.081   3.923  0.1441  0.3967 -0.5724
 1376TIP3    H1 4092   4.595   0.104   3.830 -1.5193  3.6327  0.1218
 1376TIP3    H2 4093   4.510   0.046   3.941  1.0835 -2.1631 -0.5216
 1377TIP3   OH2 4094   1.324   1.915   5.862 -0.8076 -0.1712 -0.3273
 1377TIP3    H1 4095   1.255   1.908   5.927 -0.8508  0.1495 -0.3403
 1377TIP3    H2 4096   1.306   1.843   5.801 -1.4213  0.2079 -0.6084
 1378TIP3   OH2 4097   4.744   1.938   2.080  0.2065 -0.4668 -0.0917
 1378TIP3    H1 4098   4.694   1.998   2.135 -1.3203 -1.1806 -0.6420
 1378TIP3    H2 4099   4.749   1.982   1.995 -0.1991 -0.7398 -0.2615
 1379TIP3   OH2 4100   1.932   2.334   1.695  0.5983 -0.1350  0.0304
 1379TIP3    H1 4101   2.022   2.349   1.668  0.4504 -0.0962 -0.4558
 1379TIP3    H2 4102   1.929   2.362   1.786  1.0380  0.0071  0.0041
 1380TIP3   OH2 4103   5.205   2.507   1.420  0.0722 -0.1914  0.0967
 1380TIP3    H1 4104   5.191   2.495   1.514  3.1021  0.7403  0.7987
 1380TIP3    H2 4105   5.197   2.602   1.407 -0.1271 -0.2938 -0.5511
 1381TIP3   OH2 4106   2.996   4.100   5.659  0.4067  0.3202 -0.3719
 1381TIP3    H1 4107   2.978   4.033   5.592  0.4440  0.1907 -0.2536
 1381TIP3    H2 4108   3.087   4.084   5.684  0.5838  0.7472 -0.7156
 1382TIP3   OH2 4109   0.562   2.102   1.136  0.0629  0.4831 -0.2879
 1382TIP3    H1 4110   0.592   2.181   1.180 -0.4787  0.2581  0.5210
 1382TIP3    H2 4111   0.612   2.031   1.177  1.0132  0.4466 -1.4527
 1383TIP3   OH2 4112   0.712   4.830   3.407 -0.1002  0.1975 -0.4333
 1383TIP3    H1 4113   0.666   4.808   3.488  0.0555 -0.4285 -0.5134
 1383TIP3    H2 4114   0.695   4.924   3.395  0.8115  0.5526  0.9087
 1384TIP3   OH2 4115   0.578   2.415   2.918  0.2717  0.1125 -0.5581
 1384TIP3    H1 4116   0.509   2.470   2.881 -1.0866 -1.3769 -0.3082
 1384TIP3    H2 4117   0.560   2.412   3.011  2.7110  2.4610  0.1381
 1385TIP3   OH2 4118   3.082   2.406   4.104 -0.0706  0.1904  0.1501
 1385TIP3    H1 4119   3.176   2.387   4.110  0.0996  1.3024  2.4052
 1385TIP3    H2 4120   3.078   2.502   4.100 -1.1071  0.1221 -0.8350
 1386TIP3   OH2 4121   4.126   6.239   3.506  0.1887 -0.1283  0.4737
 1386TIP3    H1 4122   4.070   6.293   3.450  0.6268  1.2982  1.3643
 1386TIP3    H2 4123   4.111   6.149   3.475 -1.3949  0.3689 -0.3317
 1387TIP3   OH2 4124   6.472   1.165   2.016  0.0483  0.5303  0.6713
 1387TIP3    H1 4125   6.544   1.208   2.062 -0.5883  1.9415  0.4028
 1387TIP3    H2 4126   6.474   1.202   1.928 -1.0646  0.6954  0.6996
 1388TIP3   OH2 4127   5.112   6.075   2.417  0.2384 -0.2373 -0.0571
 1388TIP3    H1 4128   5.029   6.108   2.382 -0.6507 -0.3137  1.8456
 1388TIP3    H2 4129   5.175   6.145   2.401 -0.2559 -0.0342 -1.2108
 1389TIP3   OH2 4130   6.392   6.691   2.181 -0.3555  0.0944 -0.0149
 1389TIP3    H1 4131   6.359   6.753   2.246  3.3711  1.0503  1.1852
 1389TIP3    H2 4132   6.335   6.614   2.191 -1.9574  1.4242  2.0280
 1390TIP3   OH2 4133   4.926   4.637   1.438  0.3570  0.5514 -0.0772
 1390TIP3    H1 4134   4.997   4.694   1.410  0.9997  0.2684  0.9275
 1390TIP3    H2 4135   4.948   4.613   1.528 -2.0119  2.0380  1.0028
 1391TIP3   OH2 4136   1.006   2.823   0.320 -0.6076 -0.5902 -0.0057
 1391TIP3    H1 4137   0.933   2.800   0.378  0.3281 -1.5556  0.8362
 1391TIP3    H2 4138   0.974   2.803   0.232 -1.2437 -1.3242  0.3785
 1392TIP3   OH2 4139   4.401   1.078   3.751 -0.6623  0.0040 -0.1208
 1392TIP3    H1 4140   4.360   1.083   3.838 -1.4712  0.0601 -0.4999
 1392TIP3    H2 4141   4.490   1.111   3.765 -1.4999  2.3314  0.2453
 1393TIP3   OH2 4142   4.409   6.032   3.548  0.5148  0.6008 -0.2491
 1393TIP3    H1 4143   4.370   6.000   3.629  1.4636  0.9748  0.3805
 1393TIP3    H2 4144   4.466   6.104   3.576  0.1994  1.3068 -1.3570
 1394TIP3   OH2 4145   5.658   0.802   0.405 -0.1367  0.2359 -0.2647
 1394TIP3    H1 4146   5.748   0.794   0.373  0.5130  0.2557  1.4496
 1394TIP3    H2 4147   5.617   0.865   0.346  0.8407 -0.0850 -1.3213
 1395TIP3   OH2 4148   4.011   5.642   1.493 -0.3011 -0.1512  0.4372
 1395TIP3    H1 4149   4.011   5.731   1.528 -1.2672 -0.9680  2.7122
 1395TIP3    H2 4150   3.920   5.613   1.502 -0.1247 -1.1662 -0.8481
 1396TIP3   OH2 4151   4.179   4.064   5.304  0.2730 -0.1901 -0.6200
 1396TIP3    H1 4152   4.090   4.047   5.336 -0.3250  0.8461 -1.6440
 1396TIP3    H2 4153   4.228   4.087   5.383 -0.5820  0.0005 -0.1253
 1397TIP3   OH2 4154   3.145   3.673   3.251 -0.4219  0.2536  0.0529
 1397TIP3    H1 4155   3.112   3.640   3.167  0.4697  0.6813 -0.4858
 1397TIP3    H2 4156   3.067   3.703   3.297 -0.8692  0.5323 -0.8542
 1398TIP3   OH2 4157   1.206   3.722   3.041  0.4335  0.5457 -0.1036
 1398TIP3    H1 4158   1.147   3.796   3.027 -1.1272 -0.8090 -0.9889
 1398TIP3    H2 4159   1.283   3.743   2.988  0.1166  1.6030 -0.1847
 1399TIP3   OH2 4160   4.034   3.118   3.493  0.4209  0.6215 -0.6003
 1399TIP3    H1 4161   3.950   3.109   3.538  1.4037  1.0724  1.4122
 1399TIP3    H2 4162   4.031   3.205   3.453  0.0472  0.7518 -0.2939
 1400TIP3   OH2 4163   4.344   0.066   4.453 -0.5502  0.3738  0.6404
 1400TIP3    H1 4164   4.345  -0.008   4.392  0.8101  0.0967  0.9607
 1400TIP3    H2 4165   4.357   0.142   4.397 -1.0461  0.2956  0.4098
 1401TIP3   OH2 4166   5.572   1.401   0.153 -0.2124 -0.5627  0.2151
 1401TIP3    H1 4167   5.613   1.471   0.203  1.5170 -0.4852 -1.2087
 1401TIP3    H2 4168   5.594   1.321   0.202 -0.9103 -0.2624  1.0377
 1402TIP3   OH2 4169   4.231   0.407   5.675 -0.4189  0.2921 -0.1699
 1402TIP3    H1 4170   4.244   0.439   5.586  0.3230  0.7626  0.0982
 1402TIP3    H2 4171   4.138   0.422   5.692 -0.6152 -0.0143 -0.9447
 1403TIP3   OH2 4172   3.730   5.755   5.431  0.2709 -0.2989 -0.0539
 1403TIP3    H1 4173   3.713   5.689   5.364 -2.5151  0.5518 -0.2841
 1403TIP3    H2 4174   3.804   5.806   5.397 -1.4233  0.5052 -2.8281
 1404TIP3   OH2 4175   3.442   2.158   0.451 -0.0535 -0.6090 -0.2679
 1404TIP3    H1 4176   3.416   2.145   0.360  0.4692 -0.6769 -0.4108
 1404TIP3    H2 4177   3.528   2.201   0.446 -0.6339  0.6410  0.1997
 1405TIP3   OH2 4178   5.595   4.782   0.324  0.3072 -0.3640 -0.3707
 1405TIP3    H1 4179   5.614   4.794   0.231  1.6663  0.8987  0.0364
 1405TIP3    H2 4180   5.549   4.698   0.328  0.0165 -0.3316 -2.1989
 1406TIP3   OH2 4181   2.944   3.802   5.149 -0.1938  0.3641 -0.1345
 1406TIP3    H1 4182   2.941   3.838   5.060 -1.2941 -0.0621 -0.2813
 1406TIP3    H2 4183   2.908   3.714   5.142 -2.3305  1.0568  1.0497
 1407TIP3   OH2 4184   1.316   1.348   4.688 -0.0658  0.0962 -0.8426
 1407TIP3    H1 4185   1.264   1.428   4.685  0.6613  0.6859  0.9203
 1407TIP3    H2 4186   1.402   1.374   4.657  0.9237  0.7148  2.1095
 1408TIP3   OH2 4187   6.946   6.574   2.470 -0.0243  0.0291 -0.2299
 1408TIP3    H1 4188   6.963   6.612   2.556  1.8190 -1.2928  0.0468
 1408TIP3    H2 4189   7.026   6.592   2.420 -0.9451  0.5042 -1.5938
 1409TIP3   OH2 4190   5.044   0.413   0.213 -0.2258  0.2798  0.0520
 1409TIP3    H1 4191   4.948   0.421   0.209 -0.3531 -0.4882  1.0820
 1409TIP3    H2 4192   5.072   0.490   0.262 -0.8439 -1.8001  4.1988
 1410TIP3   OH2 4193   6.055   0.042   3.706 -0.6716 -0.2083  0.4093
 1410TIP3    H1 4194   6.025   0.110   3.646 -1.1767 -0.3445  0.4947
 1410TIP3    H2 4195   6.008  -0.036   3.679  1.1289 -0.9457 -0.7231
 1411TIP3   OH2 4196   3.650   5.609   0.894 -0.6313  0.0417 -0.3840
 1411TIP3    H1 4197   3.599   5.570   0.823  0.1080  0.4345 -1.1585
 1411TIP3    H2 4198   3.735   5.628   0.854 -1.1232  2.9681 -0.2361
 1412TIP3   OH2 4199   6.713   1.350   5.145 -0.4315  0.2576 -0.7766
 1412TIP3    H1 4200   6.654   1.384   5.078  0.2630  0.6239 -1.2232
 1412TIP3    H2 4201   6.776   1.296   5.096  0.1569  0.6274 -0.4374
 1413TIP3   OH2 4202   3.881   0.512   2.721  1.0710  0.6325  0.1882
 1413TIP3    H1 4203   3.931   0.556   2.789 -1.6174  2.3092  1.2091
 1413TIP3    H2 4204   3.860   0.581   2.658 -0.9092  0.2881  0.4106
 1414TIP3   OH2 4205   5.858   2.685   1.086  0.5205 -0.2701 -0.1614
 1414TIP3    H1 4206   5.841   2.760   1.142 -1.9644 -0.0802 -1.0785
 1414TIP3    H2 4207   5.909   2.721   1.013 -1.6121  0.8385 -1.1812
 1415TIP3   OH2 4208   3.615   3.712   4.659 -0.1765 -0.0153 -0.0690
 1415TIP3    H1 4209   3.649   3.780   4.718 -0.9464  0.8923 -0.6400
 1415TIP3    H2 4210   3.667   3.721   4.580 -1.5418  1.2759 -0.8889
 1416TIP3   OH2 4211   4.444   4.010   1.069 -0.0279 -0.1382 -0.0573
 1416TIP3    H1 4212   4.399   3.946   1.014  1.4650 -1.4764  0.1742
 1416TIP3    H2 4213   4.468   4.081   1.010  2.3738 -1.9688 -1.4622
 1417TIP3   OH2 4214   0.248   4.965   1.526  1.0458 -0.3362  0.3399
 1417TIP3    H1 4215   0.190   4.900   1.566 -0.0567 -0.3228 -1.1754
 1417TIP3    H2 4216   0.191   5.037   1.500  2.0283  0.5520  0.5486
 1418TIP3   OH2 4217   1.920   4.616   4.506 -0.1128 -0.3693  0.6431
 1418TIP3    H1 4218   1.881   4.682   4.563  0.3102  1.7007 -1.3394
 1418TIP3    H2 4219   1.860   4.610   4.431 -0.1577 -2.3024  0.7840
 1419TIP3   OH2 4220   3.695   2.510   2.384  0.1168 -0.3483  0.3122
 1419TIP3    H1 4221   3.782   2.536   2.416  0.1114 -0.7624  0.6694
 1419TIP3    H2 4222   3.670   2.580   2.323  0.9506 -0.5150 -0.2421
 1420TIP3   OH2 4223   6.221   2.582   0.170 -0.6133  0.1947  0.2627
 1420TIP3    H1 4224   6.234   2.506   0.113 -0.7629  1.4855 -1.5912
 1420TIP3    H2 4225   6.149   2.557   0.227  0.5371 -1.7314  1.0012
 1421TIP3   OH2 4226   4.689   5.008   0.644  0.6335  0.2043 -0.3379
 1421TIP3    H1 4227   4.609   5.030   0.595  0.4834  0.2915 -0.0573
 1421TIP3    H2 4228   4.742   5.088   0.640 -0.4580  1.0937  1.7568
 1422TIP3   OH2 4229   3.516   3.038   2.733  0.0377 -0.5885 -0.0005
 1422TIP3    H1 4230   3.577   2.964   2.727 -0.7232 -1.4170  1.7074
 1422TIP3    H2 4231   3.439   3.001   2.777 -0.9341  0.8942 -0.4114
 1423TIP3   OH2 4232   5.619   1.720   4.400 -0.1473 -0.3037  0.1330
 1423TIP3    H1 4233   5.626   1.784   4.471 -1.0735 -0.4652  0.3789
 1423TIP3    H2 4234   5.528   1.726   4.371  0.5928  0.9327 -2.1805
 1424TIP3   OH2 4235   3.886   3.150   0.825  0.3432  0.0860  0.1324
 1424TIP3    H1 4236   3.812   3.090   0.826 -0.2486  0.7646  2.0449
 1424TIP3    H2 4237   3.957   3.100   0.784 -0.0070 -2.1022  2.0044
 1425TIP3   OH2 4238   4.109   0.432   0.279  0.2993 -0.0044 -0.0849
 1425TIP3    H1 4239   4.107   0.386   0.196 -0.1810  1.2018 -0.7658
 1425TIP3    H2 4240   4.025   0.410   0.321  1.0312 -1.5554  0.6436
 1426TIP3   OH2 4241   1.027   4.760   0.222  0.5521  0.2097 -0.0244
 1426TIP3    H1 4242   1.097   4.813   0.260 -0.2681  0.9935  0.4228
 1426TIP3    H2 4243   1.028   4.679   0.274  1.5100 -0.0378 -0.4131
 1427TIP3   OH2 4244   0.483   5.039   4.196 -0.1065  0.4479  0.1286
 1427TIP3    H1 4245   0.413   5.097   4.165 -1.1590 -1.7361 -1.8115
 1427TIP3    H2 4246   0.537   5.024   4.119  1.0128  0.0234  0.9789
 1428TIP3   OH2 4247   4.281   2.355   5.065 -0.2269  0.6028 -0.2200
 1428TIP3    H1 4248   4.338   2.295   5.112  1.9832  3.4981  1.0497
 1428TIP3    H2 4249   4.294   2.333   4.972  1.4485 -0.0987  0.1564
 1429TIP3   OH2 4250   4.988   2.968   5.063 -0.5630 -0.2797 -0.1683
 1429TIP3    H1 4251   4.951   2.945   4.977 -0.3220 -4.2539  0.5824
 1429TIP3    H2 4252   4.916   2.957   5.124  0.5131 -3.6770  0.7421
 1430TIP3   OH2 4253   0.888   0.206   1.034 -0.6154  0.3028 -0.1946
 1430TIP3    H1 4254   0.840   0.130   1.067  0.0892  0.2476  0.7602
 1430TIP3    H2 4255   0.855   0.218   0.945  0.9109 -2.5802 -1.3061
 1431TIP3   OH2 4256   4.382   1.420   1.913 -0.2972 -0.2919  0.2544
 1431TIP3    H1 4257   4.354   1.345   1.965 -0.1859  0.5640  1.6005
 1431TIP3    H2 4258   4.467   1.395   1.878  0.2628 -0.3896  1.6322
 1432TIP3   OH2 4259   4.407   5.269   2.587 -0.6118 -0.8022 -0.1537
 1432TIP3    H1 4260   4.456   5.337   2.632 -2.3266  0.0765  0.4619
 1432TIP3    H2 4261   4.441   5.269   2.498  0.9651 -0.7261  0.4148
 1433TIP3   OH2 4262   4.286   1.421   0.370  0.6732  0.0211 -0.2717
 1433TIP3    H1 4263   4.345   1.410   0.444  0.7976  1.1965 -0.1797
 1433TIP3    H2 4264   4.272   1.516   0.364 -0.1980 -0.1435 -1.0737
 1434TIP3   OH2 4265   4.252   4.412   3.535 -0.3730  0.9065 -0.0228
 1434TIP3    H1 4266   4.334   4.462   3.541  0.3900 -0.3161 -0.0068
 1434TIP3    H2 4267   4.213   4.441   3.453  1.1975 -0.1013 -1.1990
 1435TIP3   OH2 4268   4.115   0.699   0.387  0.3145 -0.4075  0.0287
 1435TIP3    H1 4269   4.174   0.764   0.349  0.1119 -0.2016  0.0607
 1435TIP3    H2 4270   4.144   0.616   0.350 -0.2024 -0.1534 -0.9947
 1436TIP3   OH2 4271   3.480   6.167   1.392  0.5051  0.2805 -0.0216
 1436TIP3    H1 4272   3.465   6.171   1.486 -2.9855 -1.7479 -0.2985
 1436TIP3    H2 4273   3.416   6.227   1.354  0.1856 -0.7201 -1.1421
 1437TIP3   OH2 4274   6.451   2.495   0.972  0.0756  0.0668  0.2669
 1437TIP3    H1 4275   6.370   2.457   0.938  0.0570  0.3865 -0.0627
 1437TIP3    H2 4276   6.469   2.568   0.912 -0.0317  0.7333  1.0338
 1438TIP3   OH2 4277   4.760   6.377   1.611  0.2013 -0.3824  0.1571
 1438TIP3    H1 4278   4.686   6.319   1.595  0.5033 -0.4268 -1.2937
 1438TIP3    H2 4279   4.774   6.420   1.526  1.7689 -0.3147  0.4290
 1439TIP3   OH2 4280   7.164   4.469   2.893  0.1414  0.3027  0.1805
 1439TIP3    H1 4281   7.251   4.495   2.922  0.5915 -0.0930 -0.8109
 1439TIP3    H2 4282   7.124   4.429   2.971  0.9925  0.1101  0.5251
 1440TIP3   OH2 4283   2.365   1.386   2.476 -0.6103 -0.0901 -0.0690
 1440TIP3    H1 4284   2.353   1.474   2.439  1.4564  0.6730  0.9399
 1440TIP3    H2 4285   2.391   1.401   2.567 -0.6731 -1.7606  0.2501
 1441TIP3   OH2 4286   3.225   3.010   3.382 -0.1380  0.3404 -0.1110
 1441TIP3    H1 4287   3.276   3.009   3.463 -0.3297 -2.0463  0.0650
 1441TIP3    H2 4288   3.139   3.041   3.408 -0.0845 -0.0338  0.5504
 1442TIP3   OH2 4289   4.440   2.868   4.789 -0.0413 -0.2946  0.0633
 1442TIP3    H1 4290   4.529   2.892   4.815 -0.0271  3.6722 -2.6573
 1442TIP3    H2 4291   4.449   2.836   4.699 -1.2895 -0.5436  0.0061
 1443TIP3   OH2 4292   1.325   0.505   2.862 -0.1485  0.2292  0.4696
 1443TIP3    H1 4293   1.295   0.464   2.944 -1.6304  2.6708  1.2221
 1443TIP3    H2 4294   1.420   0.489   2.862 -0.3994 -1.6006  1.5891
 1444TIP3   OH2 4295   4.760   4.538   3.404  0.3452 -0.0607 -0.1679
 1444TIP3    H1 4296   4.780   4.564   3.494  0.5124 -2.5086  0.5821
 1444TIP3    H2 4297   4.845   4.541   3.359  0.2569  1.1946 -0.2927
 1445TIP3   OH2 4298   1.588   5.184   2.933 -0.0819  0.0681 -0.4674
 1445TIP3    H1 4299   1.652   5.119   2.904  0.5148 -0.1556  1.2463
 1445TIP3    H2 4300   1.529   5.136   2.991  0.5908  1.0610  1.1368
 1446TIP3   OH2 4301   5.622   0.686   4.742 -0.2355  0.4177 -0.5386
 1446TIP3    H1 4302   5.537   0.729   4.733 -0.3479  0.9011  2.0521
 1446TIP3    H2 4303   5.682   0.741   4.691 -1.2923  0.5755 -1.6561
 1447TIP3   OH2 4304   6.417   3.448   2.281  0.2451  0.2905  0.2348
 1447TIP3    H1 4305   6.395   3.400   2.201  0.0252  0.0343  0.4445
 1447TIP3    H2 4306   6.437   3.537   2.251 -0.1316  0.2746 -0.0744
 1448TIP3   OH2 4307   3.202   2.580   1.974 -0.0207 -0.0192  0.8319
 1448TIP3    H1 4308   3.225   2.508   1.917 -3.5971  0.1457 -1.0957
 1448TIP3    H2 4309   3.128   2.548   2.026 -1.8464  2.2036 -0.2171
 1449TIP3   OH2 4310   5.161   1.505   4.692 -0.3991 -0.4917 -0.4420
 1449TIP3    H1 4311   5.153   1.454   4.773  1.6520  1.0226  0.8158
 1449TIP3    H2 4312   5.163   1.596   4.722  0.5603  0.1062 -2.2042
 1450TIP3   OH2 4313   5.152   0.832   4.796 -0.3720 -0.1762 -0.0617
 1450TIP3    H1 4314   5.093   0.838   4.871 -2.1910 -2.6594 -1.1506
 1450TIP3    H2 4315   5.099   0.861   4.721  0.4113 -0.6259 -0.8172
 1451TIP3   OH2 4316   5.111   3.702   3.325  0.9194 -0.4000 -0.3087
 1451TIP3    H1 4317   5.143   3.623   3.368  0.8699  0.4096  1.3198
 1451TIP3    H2 4318   5.184   3.730   3.269  0.1666 -2.6941 -2.5661
 1452TIP3   OH2 4319   5.186   0.218   4.976 -0.2955 -0.2584  0.1000
 1452TIP3    H1 4320   5.116   0.158   4.952  1.3720 -2.2281 -0.1242
 1452TIP3    H2 4321   5.157   0.257   5.059 -1.8923 -0.5482 -0.2883
 1453TIP3   OH2 4322   5.297   4.413   1.651  0.7190 -0.0030 -0.0793
 1453TIP3    H1 4323   5.292   4.497   1.696  0.7373 -0.3666  0.6335
 1453TIP3    H2 4324   5.345   4.356   1.713 -1.0112 -1.0837  0.3521
 1454TIP3   OH2 4325   2.413   2.463   3.262  0.4132  0.0084  0.2194
 1454TIP3    H1 4326   2.322   2.432   3.271  1.0545 -1.8673  0.8159
 1454TIP3    H2 4327   2.406   2.541   3.207 -1.5756  0.0041  0.3722
 1455TIP3   OH2 4328   6.247   0.700   4.953  0.1187  0.1490 -0.2980
 1455TIP3    H1 4329   6.221   0.728   4.866 -0.0882  0.5824 -0.1026
 1455TIP3    H2 4330   6.215   0.610   4.960  0.2250  0.0774 -0.7032
 1456TIP3   OH2 4331   4.667   4.283   1.123 -0.7680 -0.2962 -0.0191
 1456TIP3    H1 4332   4.671   4.215   1.056 -0.3007  2.5094 -3.0818
 1456TIP3    H2 4333   4.579   4.321   1.114 -0.1976  1.0642 -0.0976
 1457TIP3   OH2 4334   5.497   4.237   3.226  0.0050 -0.0351 -0.3068
 1457TIP3    H1 4335   5.451   4.198   3.300 -1.2506 -0.9284 -1.4950
 1457TIP3    H2 4336   5.587   4.246   3.256 -0.4475 -0.4454  1.2889
 1458TIP3   OH2 4337   5.822   5.069   1.576 -0.2141 -0.4777  0.8060
 1458TIP3    H1 4338   5.900   5.124   1.567 -0.2740 -0.3219  1.2159
 1458TIP3    H2 4339   5.748   5.128   1.561 -0.3132 -0.2335  2.1261
 1459TIP3   OH2 4340   6.746   5.618   0.258  0.1861 -0.5468 -0.3189
 1459TIP3    H1 4341   6.686   5.648   0.326  1.6153  0.6553  0.4852
 1459TIP3    H2 4342   6.828   5.600   0.305  0.6040 -1.7422 -1.4314
 1460TIP3   OH2 4343   4.212   0.090   3.163  0.0132 -0.2577  0.3022
 1460TIP3    H1 4344   4.303   0.116   3.180 -0.4592  1.8958 -0.1117
 1460TIP3    H2 4345   4.171   0.169   3.128 -1.0017 -2.2578 -3.5913
 1461TIP3   OH2 4346   5.755   4.896   1.021 -0.2952  0.0203 -0.7089
 1461TIP3    H1 4347   5.807   4.850   0.955  0.7253  1.5884 -1.0747
 1461TIP3    H2 4348   5.665   4.871   1.003 -0.2053  1.3175 -3.5367
 1462TIP3   OH2 4349   5.146   5.770   4.391 -0.3921 -0.0096 -0.3830
 1462TIP3    H1 4350   5.141   5.767   4.296 -1.5700 -1.1173 -0.3260
 1462TIP3    H2 4351   5.069   5.821   4.417  0.3485  0.9486 -0.0429
 1463TIP3   OH2 4352   3.663   4.174   5.550  1.0078  0.2277 -0.1346
 1463TIP3    H1 4353   3.572   4.200   5.537  1.5151  1.2736 -2.0123
 1463TIP3    H2 4354   3.659   4.080   5.569 -0.4201  0.0353 -1.2179
 1464TIP3   OH2 4355   7.056   3.639   1.177 -0.1585 -0.4968  0.5191
 1464TIP3    H1 4356   7.072   3.634   1.083 -1.1843 -1.1179  0.3635
 1464TIP3    H2 4357   7.126   3.589   1.217  0.3749 -0.0940  0.1017
 1465TIP3   OH2 4358   2.062   6.360   2.047  0.1624 -0.0037 -0.9032
 1465TIP3    H1 4359   2.052   6.429   1.981 -1.0928 -0.4197 -1.1682
 1465TIP3    H2 4360   2.141   6.385   2.095  0.5322  0.8478 -1.9090
 1466TIP3   OH2 4361   2.110   4.923   0.904 -0.4757  0.2025  0.2900
 1466TIP3    H1 4362   2.101   4.872   0.824  0.7279  0.5852 -0.0982
 1466TIP3    H2 4363   2.053   4.999   0.890 -1.4521 -0.4850  0.4394
 1467TIP3   OH2 4364   4.670   3.268   2.806 -0.0600 -0.1469 -0.1447
 1467TIP3    H1 4365   4.630   3.264   2.719 -0.5789 -1.3015  0.1307
 1467TIP3    H2 4366   4.748   3.214   2.798 -0.4195 -0.7329  0.2569
 1468TIP3   OH2 4367   4.645   1.072   2.613  0.4210 -0.0724  0.0334
 1468TIP3    H1 4368   4.684   1.127   2.546  1.7473  1.2746  1.8163
 1468TIP3    H2 4369   4.706   0.999   2.624 -0.9615 -1.6022 -1.7931
 1469TIP3   OH2 4370   5.959   4.933   2.528 -0.7004 -0.5599  0.5896
 1469TIP3    H1 4371   5.866   4.956   2.536 -0.1736  2.6034 -0.8908
 1469TIP3    H2 4372   6.006   5.009   2.561  1.4821 -2.6061  2.5566
 1470TIP3   OH2 4373   2.798   5.206   2.113  0.2972  0.0859 -0.2987
 1470TIP3    H1 4374   2.859   5.262   2.162  0.6255 -2.0985  2.0576
 1470TIP3    H2 4375   2.855   5.155   2.055  0.4478 -0.3162  0.1960
 1471TIP3   OH2 4376   0.499   1.020   0.906 -0.1586 -0.1636  0.3616
 1471TIP3    H1 4377   0.461   1.099   0.867 -0.4841 -1.3170 -1.8202
 1471TIP3    H2 4378   0.593   1.038   0.910 -0.3018  0.5970  0.5730
 1472TIP3   OH2 4379   3.547   5.524   1.331  0.5051  0.1901  0.2364
 1472TIP3    H1 4380   3.563   5.584   1.258 -1.6272 -0.2812 -0.7034
 1472TIP3    H2 4381   3.588   5.565   1.406 -1.4632  3.2656 -0.1923
 1473TIP3   OH2 4382   4.948   3.193   3.205 -0.0904 -0.2451  0.1774
 1473TIP3    H1 4383   4.869   3.168   3.157  0.0743  1.3530 -1.0017
 1473TIP3    H2 4384   4.943   3.288   3.214  0.4180 -0.3682  2.4773
 1474TIP3   OH2 4385   0.427   3.708   5.069  0.0100  0.6506  0.3273
 1474TIP3    H1 4386   0.405   3.641   5.003 -0.3042  0.5129  0.5645
 1474TIP3    H2 4387   0.344   3.725   5.113  0.6797 -1.2626  2.5324
 1475TIP3   OH2 4388   5.430   3.328   2.233  0.4320  0.3818 -0.4744
 1475TIP3    H1 4389   5.503   3.312   2.173  0.1707  0.0058 -0.6899
 1475TIP3    H2 4390   5.469   3.379   2.304  2.0949 -3.7144  1.8815
 1476TIP3   OH2 4391   3.425   2.816   1.204  0.8175 -0.3448 -0.0793
 1476TIP3    H1 4392   3.519   2.800   1.215  0.7769  0.1291  1.0837
 1476TIP3    H2 4393   3.383   2.742   1.248  0.6525  0.4633  1.1546
 1477TIP3   OH2 4394   1.487   1.183   1.602  0.0486 -0.2056 -0.4311
 1477TIP3    H1 4395   1.572   1.213   1.635 -0.0948 -0.2422 -0.0293
 1477TIP3    H2 4396   1.440   1.264   1.580  0.1173 -0.1790 -0.4806
 1478TIP3   OH2 4397   4.595   2.412   0.206 -0.4516  0.5148 -0.1773
 1478TIP3    H1 4398   4.684   2.410   0.243 -0.2876  0.9463 -0.5399
 1478TIP3    H2 4399   4.539   2.388   0.279 -0.0286  0.1361  0.0322
 1479TIP3   OH2 4400   2.143   1.628   0.517 -0.8856  0.1882 -0.3489
 1479TIP3    H1 4401   2.147   1.536   0.492 -0.2829  0.3775 -0.9847
 1479TIP3    H2 4402   2.059   1.638   0.561 -1.1276 -0.5761 -0.6360
 1480TIP3   OH2 4403   2.174   0.638   1.754  0.3309 -0.0503  0.2032
 1480TIP3    H1 4404   2.083   0.635   1.725  0.0094 -0.8928  1.2448
 1480TIP3    H2 4405   2.169   0.654   1.848  1.1757 -1.7199  0.5764
 1481TIP3   OH2 4406   4.739   0.965   3.924 -0.4832 -0.4832  0.2649
 1481TIP3    H1 4407   4.767   0.903   3.992 -1.7699  0.2466  1.5255
 1481TIP3    H2 4408   4.692   0.912   3.861 -0.7257 -0.9351  0.8188
 1482TIP3   OH2 4409   4.042   3.682   5.546  0.3988  0.1616 -0.1020
 1482TIP3    H1 4410   3.960   3.700   5.593  1.4302  1.4603  1.2788
 1482TIP3    H2 4411   4.090   3.622   5.604  0.7750  0.0600 -0.5150
 1483TIP3   OH2 4412   2.718   6.033   5.749 -0.2138  0.3896 -0.2329
 1483TIP3    H1 4413   2.781   5.962   5.736  0.8535  1.1407  0.6147
 1483TIP3    H2 4414   2.671   6.040   5.666 -0.2142 -1.1668 -0.3945
 1484TIP3   OH2 4415   5.279   4.048   5.770  0.3372 -0.3837  0.1763
 1484TIP3    H1 4416   5.360   4.000   5.785 -0.4257 -1.7185  0.1907
 1484TIP3    H2 4417   5.223   3.986   5.724 -0.4085  0.7801 -0.5382
 1485TIP3   OH2 4418   1.891   6.620   5.540 -0.1303 -0.4026 -0.4202
 1485TIP3    H1 4419   1.881   6.715   5.549  2.0753 -0.3275  3.0451
 1485TIP3    H2 4420   1.817   6.583   5.587  2.2652 -0.1372  4.0499
 1486TIP3   OH2 4421   1.835   6.173   2.877 -0.9214  0.5284 -0.0492
 1486TIP3    H1 4422   1.870   6.237   2.815  2.1851 -1.7079 -0.8216
 1486TIP3    H2 4423   1.833   6.219   2.961  2.2439  1.4562 -0.3512
 1487TIP3   OH2 4424   1.612   5.290   3.186  0.1011 -0.4453 -0.0731
 1487TIP3    H1 4425   1.622   5.263   3.094  1.2264 -1.4117  0.3075
 1487TIP3    H2 4426   1.610   5.386   3.182 -0.4239 -0.4863 -1.1522
 1488TIP3   OH2 4427   1.078   6.063   0.429  1.0009  0.0985 -0.5070
 1488TIP3    H1 4428   1.078   6.048   0.524 -1.5013  0.8305 -0.3232
 1488TIP3    H2 4429   1.068   5.975   0.392 -0.8349  0.0426  0.0486
 1489TIP3   OH2 4430   6.162   5.563   1.610 -0.2980  0.3946 -0.1314
 1489TIP3    H1 4431   6.153   5.470   1.592  0.8441  0.5040 -1.4848
 1489TIP3    H2 4432   6.095   5.604   1.556  0.8942  0.4909 -1.6137
 1490TIP3   OH2 4433   1.503   1.054   4.495  0.9303 -0.7854 -0.0951
 1490TIP3    H1 4434   1.411   1.070   4.471  0.4779 -1.0060  1.3869
 1490TIP3    H2 4435   1.515   0.960   4.479  1.2087 -0.5667 -1.2340
 1491TIP3   OH2 4436   5.194   6.464   2.451 -0.1046  0.0888  0.1044
 1491TIP3    H1 4437   5.191   6.543   2.396  1.7357 -0.2731 -0.5842
 1491TIP3    H2 4438   5.207   6.392   2.389 -0.8912 -0.6722  0.8006
 1492TIP3   OH2 4439   5.785   4.651   1.236  0.3840  0.2735 -0.1486
 1492TIP3    H1 4440   5.726   4.720   1.207 -0.7423 -0.9150 -0.8100
 1492TIP3    H2 4441   5.873   4.686   1.222 -0.1495  0.8931 -2.1785
 1493TIP3   OH2 4442   6.035   6.587   1.467 -0.0868 -0.3525  0.1920
 1493TIP3    H1 4443   6.050   6.661   1.525 -0.4412 -0.1512  0.0312
 1493TIP3    H2 4444   6.105   6.593   1.402 -0.1870 -0.0831  0.1059
 1494TIP3   OH2 4445   3.255   0.869   4.151  0.6465  0.4240  0.0408
 1494TIP3    H1 4446   3.259   0.948   4.097  0.4221  0.3731 -0.0503
 1494TIP3    H2 4447   3.258   0.797   4.088 -0.1704  0.3694  0.0634
 1495TIP3   OH2 4448   4.702   0.826   4.576  0.2932  0.0060  0.0243
 1495TIP3    H1 4449   4.635   0.858   4.517  0.6437 -0.2263 -0.5092
 1495TIP3    H2 4450   4.671   0.849   4.664  0.4542  1.6219 -0.3234
 1496TIP3   OH2 4451   0.680   4.881   4.562 -0.4062  0.1334  0.4369
 1496TIP3    H1 4452   0.759   4.829   4.546 -0.4405  0.5642 -1.2141
 1496TIP3    H2 4453   0.711   4.958   4.609  0.0843  0.0765  0.2095
 1497TIP3   OH2 4454   4.848   2.262   3.803  0.2740  0.1815 -0.9582
 1497TIP3    H1 4455   4.918   2.310   3.759  0.3517 -0.2125 -1.2648
 1497TIP3    H2 4456   4.791   2.330   3.838  0.5036  0.5001 -1.1991
 1498TIP3   OH2 4457   6.329   5.320   1.131 -0.4907  0.5620 -0.0170
 1498TIP3    H1 4458   6.265   5.271   1.183  1.1621 -0.4364  1.1394
 1498TIP3    H2 4459   6.354   5.393   1.186 -1.2702  1.4895 -0.8451
 1499TIP3   OH2 4460   3.769   5.615   0.068  0.2755 -0.2385 -0.4713
 1499TIP3    H1 4461   3.675   5.613   0.047 -0.0060  0.9413  0.5540
 1499TIP3    H2 4462   3.794   5.523   0.075 -0.8830 -0.5663 -0.4415
 1500TIP3   OH2 4463   1.381   1.696   2.014 -0.1447  0.0164 -0.0038
 1500TIP3    H1 4464   1.463   1.674   2.058 -0.4579 -0.2689  0.4425
 1500TIP3    H2 4465   1.406   1.709   1.922  0.0149 -2.5678 -0.3966
 1501TIP3   OH2 4466   5.469   0.163   4.112 -0.6465  0.3432  1.1482
 1501TIP3    H1 4467   5.504   0.239   4.065  0.5273 -1.0934 -0.4364
 1501TIP3    H2 4468   5.376   0.181   4.119 -0.5613  1.5042 -0.0742
 1502TIP3   OH2 4469   0.125   3.848   5.573 -0.2977  0.7572 -0.3692
 1502TIP3    H1 4470   0.170   3.932   5.566  0.2180  0.4901 -0.2862
 1502TIP3    H2 4471   0.088   3.834   5.486 -0.0065  0.8572 -0.5107
 1503TIP3   OH2 4472   4.648   0.452   1.093 -0.6961 -0.8374 -0.7004
 1503TIP3    H1 4473   4.586   0.524   1.076  0.7698  0.3234 -1.3432
 1503TIP3    H2 4474   4.654   0.406   1.009  0.3639 -0.0696 -1.0681
 1504TIP3   OH2 4475   0.390   1.885   3.043 -0.4772 -0.2902  0.1271
 1504TIP3    H1 4476   0.422   1.819   3.104  0.6194 -1.0103 -1.1765
 1504TIP3    H2 4477   0.358   1.956   3.099  0.9760 -0.6918  1.5281
 1505TIP3   OH2 4478   3.180   0.480   4.933 -0.7027 -0.1007 -0.1358
 1505TIP3    H1 4479   3.162   0.454   5.023 -0.4881 -2.0525 -0.6186
 1505TIP3    H2 4480   3.131   0.418   4.880  0.1957  0.2238 -1.3772
 1506TIP3   OH2 4481   4.612   4.993   5.788 -0.1701  0.0208 -0.1306
 1506TIP3    H1 4482   4.592   5.020   5.699 -0.9670 -0.3062 -0.0574
 1506TIP3    H2 4483   4.686   5.048   5.814 -0.8666  1.1448 -0.4765
 1507TIP3   OH2 4484   1.231   5.579   5.706  0.1830 -0.2583  0.0960
 1507TIP3    H1 4485   1.164   5.547   5.647  1.3462  1.2032 -2.1645
 1507TIP3    H2 4486   1.252   5.504   5.762 -1.5930 -1.4419 -0.7494
 1508TIP3   OH2 4487   3.301   2.166   4.908 -0.0065  0.1761 -0.1281
 1508TIP3    H1 4488   3.297   2.261   4.893 -0.4154  0.1881  0.0326
 1508TIP3    H2 4489   3.266   2.128   4.828  0.8918  0.1295 -0.5104
 1509TIP3   OH2 4490   5.448   5.681   4.353 -0.1178  0.1782  0.8233
 1509TIP3    H1 4491   5.462   5.776   4.347  1.4057  0.0275  1.4291
 1509TIP3    H2 4492   5.354   5.671   4.360 -0.5002  1.5143 -1.4727
 1510TIP3   OH2 4493   2.992   0.968   2.124  0.3048  0.7214  0.1292
 1510TIP3    H1 4494   2.965   1.014   2.045 -1.1735 -1.4992 -0.7552
 1510TIP3    H2 4495   3.087   0.958   2.114 -0.0394 -1.1243 -2.3907
 1511TIP3   OH2 4496   2.045   0.717   0.431  0.3762  0.0642 -0.3677
 1511TIP3    H1 4497   2.131   0.690   0.399  0.2264  1.3499 -2.0026
 1511TIP3    H2 4498   1.986   0.648   0.400  0.6367 -0.1738 -0.3399
 1512TIP3   OH2 4499   3.874  -0.000   4.038  0.2393  0.6561  0.0908
 1512TIP3    H1 4500   3.909   0.088   4.029 -0.2934  1.0132  1.3173
 1512TIP3    H2 4501   3.873  -0.017   4.132  0.3314 -0.6668 -0.1205
 1513TIP3   OH2 4502   6.315   3.842   1.321 -0.8359  0.0247 -0.0456
 1513TIP3    H1 4503   6.227   3.823   1.286 -1.2352 -0.7105  1.3052
 1513TIP3    H2 4504   6.299   3.891   1.401 -0.1180 -1.7664  1.2528
 1514TIP3   OH2 4505   1.042   5.312   0.739  0.1521  0.1241  0.5443
 1514TIP3    H1 4506   1.104   5.385   0.738 -1.3280  1.4710  1.6271
 1514TIP3    H2 4507   0.975   5.336   0.675  0.1233 -0.7584  0.2254
 1515TIP3   OH2 4508   2.564   4.695   2.877  0.1657  0.1376 -0.6102
 1515TIP3    H1 4509   2.506   4.724   2.948  0.0606  2.4995 -1.5611
 1515TIP3    H2 4510   2.652   4.717   2.909  0.4831 -2.1085  0.2232
 1516TIP3   OH2 4511   1.201   2.389   1.148  0.8163  0.0134 -0.0034
 1516TIP3    H1 4512   1.252   2.455   1.102  0.3813 -0.0874 -0.6569
 1516TIP3    H2 4513   1.186   2.321   1.082  0.2342 -0.1632  0.3048
 1517TIP3   OH2 4514   4.140   3.536   5.774  0.2278  0.0934  0.4300
 1517TIP3    H1 4515   4.149   3.482   5.852  2.7957 -0.1402  0.0715
 1517TIP3    H2 4516   4.173   3.480   5.703  2.8034  1.9944  0.0139
 1518TIP3   OH2 4517   4.662   5.962   1.856  0.1541  0.2659  0.0592
 1518TIP3    H1 4518   4.687   5.889   1.799 -0.3701  0.5744 -0.5792
 1518TIP3    H2 4519   4.723   6.032   1.833 -0.4735  0.6088 -0.6146
 1519TIP3   OH2 4520   4.908   2.362   5.232  0.5158 -0.5538  0.4208
 1519TIP3    H1 4521   4.843   2.428   5.256  1.6250  0.4382  0.8165
 1519TIP3    H2 4522   4.922   2.376   5.138  1.9739  0.9890  0.8030
 1520TIP3   OH2 4523   2.841   5.699   2.589 -0.2269  1.0701 -0.1782
 1520TIP3    H1 4524   2.883   5.751   2.521  3.8011 -1.1870  0.2425
 1520TIP3    H2 4525   2.828   5.613   2.549  1.6869 -0.1370  1.5802
 1521TIP3   OH2 4526   6.030   6.139   1.972  0.0382  0.4519 -0.7022
 1521TIP3    H1 4527   6.120   6.108   1.958  0.6744  1.2434  1.2875
 1521TIP3    H2 4528   6.021   6.143   2.067 -1.5216  2.0917 -0.8702
 1522TIP3   OH2 4529   6.665   4.967   4.234  0.3586 -0.2908 -0.1533
 1522TIP3    H1 4530   6.672   5.029   4.307  0.1728  0.4582 -0.7527
 1522TIP3    H2 4531   6.727   5.001   4.168 -1.1804  0.4325 -1.2966
 1523TIP3   OH2 4532   5.803   0.513   4.071  0.1053  0.0857  0.0570
 1523TIP3    H1 4533   5.842   0.436   4.031  0.5881  0.1903  0.3087
 1523TIP3    H2 4534   5.811   0.497   4.165 -0.4130  0.1380  0.1125
 1524TIP3   OH2 4535   5.172   2.484   0.025  0.0166 -0.3406  0.2526
 1524TIP3    H1 4536   5.085   2.445   0.015 -1.1688  1.8090  1.4744
 1524TIP3    H2 4537   5.223   2.417   0.071 -1.6347 -0.8586  1.4143
 1525TIP3   OH2 4538   2.654   2.938   4.857  0.2746  0.1668  0.6813
 1525TIP3    H1 4539   2.665   3.033   4.861  2.2972 -0.0589  1.1771
 1525TIP3    H2 4540   2.579   2.926   4.798  0.2835  2.0387  0.2122
 1526TIP3   OH2 4541   3.520   2.480   4.897 -0.4689  0.6452 -0.0673
 1526TIP3    H1 4542   3.569   2.537   4.955  0.2292  0.5637 -0.5690
 1526TIP3    H2 4543   3.457   2.538   4.853 -1.2707  0.6425  1.0363
 1527TIP3   OH2 4544   0.679   1.480   5.092 -0.8281  0.2475 -0.5398
 1527TIP3    H1 4545   0.762   1.439   5.118 -1.9083 -1.1642  0.8741
 1527TIP3    H2 4546   0.639   1.416   5.033 -0.6968  1.1689 -1.6524
 1528TIP3   OH2 4547   5.997   4.009   4.638  0.1295  0.1928  0.2347
 1528TIP3    H1 4548   5.937   4.030   4.709  0.2095 -0.3661  0.4714
 1528TIP3    H2 4549   5.978   3.917   4.617  0.9708 -0.0184  0.3823
 1529TIP3   OH2 4550   4.408   5.175   3.591  0.0400 -0.2590  0.1565
 1529TIP3    H1 4551   4.457   5.151   3.511 -0.8362 -0.5516 -0.3041
 1529TIP3    H2 4552   4.322   5.134   3.579 -0.1384 -0.2059  1.2061
 1530TIP3   OH2 4553   6.387   6.780   0.620  0.3051 -0.6920  0.4714
 1530TIP3    H1 4554   6.336   6.758   0.542  0.1359  2.4519 -0.4153
 1530TIP3    H2 4555   6.322   6.789   0.689 -0.2169  1.3849 -0.2200
 1531TIP3   OH2 4556   3.729   2.422   3.438 -1.0309 -1.1583 -0.1754
 1531TIP3    H1 4557   3.715   2.371   3.518 -0.6296 -1.5492 -0.3473
 1531TIP3    H2 4558   3.777   2.363   3.380  2.5033  0.4472  0.8576
 1532TIP3   OH2 4559   0.738   1.148   1.285 -0.2149 -0.3326  0.7178
 1532TIP3    H1 4560   0.761   1.184   1.370 -0.1584 -0.1562  0.6272
 1532TIP3    H2 4561   0.742   1.053   1.297 -1.5806 -0.3393  1.3024
 1533TIP3   OH2 4562   4.277   6.610   2.129  0.6542 -0.2816  0.6341
 1533TIP3    H1 4563   4.294   6.525   2.169  1.0478 -0.0541  0.9573
 1533TIP3    H2 4564   4.258   6.668   2.202  0.5848 -0.0430  0.4314
 1534TIP3   OH2 4565   7.059   4.531   1.007 -0.1906  0.4854 -0.3457
 1534TIP3    H1 4566   7.094   4.482   0.932  0.0618 -0.9104  0.6378
 1534TIP3    H2 4567   6.987   4.582   0.970 -1.2110 -1.4848 -1.2849
 1535TIP3   OH2 4568   3.867   3.491   5.397 -0.7855 -0.0846  0.4332
 1535TIP3    H1 4569   3.934   3.547   5.436 -1.1364 -0.4776  1.6647
 1535TIP3    H2 4570   3.808   3.552   5.352 -0.8188  0.4838  1.2229
 1536TIP3   OH2 4571   2.733   4.151   3.453 -0.2718  0.4711 -0.2259
 1536TIP3    H1 4572   2.690   4.095   3.389 -0.0480 -0.4132  0.3791
 1536TIP3    H2 4573   2.798   4.200   3.402  0.6442 -0.9974 -0.5479
 1537TIP3   OH2 4574   2.659   5.825   3.276  0.6778 -1.0119 -0.1769
 1537TIP3    H1 4575   2.651   5.841   3.370  2.0815 -1.9309  0.1300
 1537TIP3    H2 4576   2.732   5.879   3.248 -2.1616  2.4926 -1.6748
 1538TIP3   OH2 4577   4.201   1.983   0.366  0.0850  0.4879  0.6568
 1538TIP3    H1 4578   4.149   1.980   0.446  0.3120 -1.0140  0.7904
 1538TIP3    H2 4579   4.232   2.073   0.360 -1.4682  1.1039  1.2510
 1539TIP3   OH2 4580   5.614   2.808   3.288 -0.2450  0.2155 -0.1771
 1539TIP3    H1 4581   5.591   2.896   3.260  0.0320  0.4510  0.3315
 1539TIP3    H2 4582   5.674   2.776   3.221 -1.1491  0.0153 -0.9172
 1540TIP3   OH2 4583   0.563   0.695   2.814  0.2377 -0.1966  0.4367
 1540TIP3    H1 4584   0.575   0.731   2.902  0.2924 -1.1058  0.8011
 1540TIP3    H2 4585   0.552   0.601   2.827 -1.1798 -0.1688 -0.4075
 1541TIP3   OH2 4586   3.314   6.593   4.251  0.0376 -0.2451 -0.1375
 1541TIP3    H1 4587   3.304   6.656   4.323 -0.8545 -0.2454 -0.2470
 1541TIP3    H2 4588   3.258   6.627   4.181  0.6392 -0.4222 -0.7201
 1542TIP3   OH2 4589   1.794   3.363   3.311 -0.4111  0.6498 -0.3557
 1542TIP3    H1 4590   1.836   3.383   3.227 -0.4702  1.6947 -0.1543
 1542TIP3    H2 4591   1.707   3.333   3.288 -0.2780  0.5205 -0.6929
 1543TIP3   OH2 4592   2.454   1.128   3.224 -0.4736 -0.1189  0.0954
 1543TIP3    H1 4593   2.398   1.112   3.149 -0.9232 -1.4503  0.6901
 1543TIP3    H2 4594   2.400   1.107   3.300  0.0397  0.9915  0.7918
 1544TIP3   OH2 4595   5.901   4.777   4.977  0.1183 -0.0820  0.2275
 1544TIP3    H1 4596   5.915   4.692   5.020  2.7629  0.5765  0.8336
 1544TIP3    H2 4597   5.878   4.836   5.049 -2.5132 -0.3452 -0.2905
 1545TIP3   OH2 4598   6.158   0.889   2.055  0.0134 -0.2589 -0.0327
 1545TIP3    H1 4599   6.224   0.886   2.124  0.3914  0.0190 -0.3804
 1545TIP3    H2 4600   6.097   0.958   2.083  0.7056  0.5462 -0.4504
 1546TIP3   OH2 4601   2.221   5.195   4.127  0.3508  0.2436 -0.0353
 1546TIP3    H1 4602   2.289   5.128   4.131  0.8965  0.7059 -1.1775
 1546TIP3    H2 4603   2.257   5.262   4.069 -1.4122  0.1384 -1.3099
 1547TIP3   OH2 4604   0.840   6.793   4.113  0.1952  0.2264  0.6007
 1547TIP3    H1 4605   0.880   6.711   4.085  1.0317  1.2346 -1.3667
 1547TIP3    H2 4606   0.908   6.838   4.164  0.0730  0.1088  0.8675
 1548TIP3   OH2 4607   5.152   4.086   1.652 -0.0022 -0.4376 -0.0623
 1548TIP3    H1 4608   5.079   4.026   1.633  0.3757 -0.9319  0.0286
 1548TIP3    H2 4609   5.124   4.169   1.615  0.0466 -0.9943 -1.3986
 1549TIP3   OH2 4610   3.722   3.413   3.059  0.5636 -0.3377  0.1952
 1549TIP3    H1 4611   3.804   3.386   3.018 -0.1196 -1.9798 -0.1861
 1549TIP3    H2 4612   3.660   3.344   3.035 -1.5100  1.8953 -1.3327
 1550TIP3   OH2 4613   1.660   5.514   2.948  0.3806 -0.3710 -0.2204
 1550TIP3    H1 4614   1.625   5.433   2.911 -1.0289  0.3318 -0.4744
 1550TIP3    H2 4615   1.750   5.519   2.914  0.6377 -2.0052  0.1293
 1551TIP3   OH2 4616   2.558   5.729   4.846 -0.6768 -0.1789  0.2693
 1551TIP3    H1 4617   2.497   5.802   4.840  1.8206  2.0085 -0.4009
 1551TIP3    H2 4618   2.617   5.753   4.917  0.6430 -1.1723 -0.4455
 1552TIP3   OH2 4619   5.822   4.927   5.196 -0.6518  0.2782 -0.5624
 1552TIP3    H1 4620   5.850   5.019   5.192 -1.2045  0.5530  1.0164
 1552TIP3    H2 4621   5.799   4.913   5.288 -0.5363 -1.4712 -0.7641
 1553TIP3   OH2 4622   2.159   5.733   5.561 -0.4766 -0.0199 -0.0250
 1553TIP3    H1 4623   2.169   5.645   5.525  0.9394 -0.6273  1.7224
 1553TIP3    H2 4624   2.227   5.784   5.517 -0.6077 -0.0457 -0.2621
 1554TIP3   OH2 4625   6.059   0.788   1.209 -0.3403  0.0675 -0.7217
 1554TIP3    H1 4626   5.996   0.755   1.273 -1.1713  0.0287 -1.5572
 1554TIP3    H2 4627   6.027   0.759   1.124  1.0758 -0.3889 -1.1410
 1555TIP3   OH2 4628   6.455   5.583   3.293  0.3283  0.3072  0.1355
 1555TIP3    H1 4629   6.434   5.675   3.277  0.2884 -0.0121 -1.9320
 1555TIP3    H2 4630   6.370   5.540   3.297  0.3692  0.2495  0.3876
 1556TIP3   OH2 4631   6.928   0.500   1.510 -0.3787 -1.0623 -0.4711
 1556TIP3    H1 4632   6.921   0.423   1.454  0.1915 -0.3877 -1.4943
 1556TIP3    H2 4633   6.854   0.493   1.570 -1.1864 -1.6440 -1.5023
 1557TIP3   OH2 4634   2.875   5.182   3.342  0.1638 -0.0384  0.1781
 1557TIP3    H1 4635   2.888   5.236   3.420  0.7722  1.3819 -0.8728
 1557TIP3    H2 4636   2.780   5.173   3.335  0.0467  1.0105  0.2951
 1558TIP3   OH2 4637   0.719   5.571   2.575 -0.3596  0.2182  0.2672
 1558TIP3    H1 4638   0.648   5.515   2.545  0.2860 -0.2201 -0.4790
 1558TIP3    H2 4639   0.791   5.511   2.594  0.2580  0.7620 -0.2875
 1559TIP3   OH2 4640   4.368   4.741   1.934  0.0803 -0.6336  0.4236
 1559TIP3    H1 4641   4.344   4.650   1.919 -0.0724 -0.4944 -0.2167
 1559TIP3    H2 4642   4.363   4.782   1.848  0.7766 -0.1649  0.5892
 1560TIP3   OH2 4643   3.781   1.729   3.486 -0.4799  0.4474 -0.0334
 1560TIP3    H1 4644   3.876   1.727   3.495 -0.6428  0.4756  2.4332
 1560TIP3    H2 4645   3.749   1.679   3.561 -2.4326  1.1992 -0.3113
 1561TIP3   OH2 4646   2.057   0.952   2.107 -0.0663  0.0439 -0.1350
 1561TIP3    H1 4647   1.985   1.009   2.080 -0.3907 -0.8411 -1.1959
 1561TIP3    H2 4648   2.136   1.002   2.086 -0.3601  0.4599 -0.2566
 1562TIP3   OH2 4649   2.809   6.028   3.631  0.1518  0.3572 -0.0654
 1562TIP3    H1 4650   2.855   5.970   3.692  0.4424  1.4044  0.7521
 1562TIP3    H2 4651   2.767   6.093   3.687 -2.4820 -0.6268 -0.7795
 1563TIP3   OH2 4652   3.107   5.205   1.811  0.0745  0.5085  0.0307
 1563TIP3    H1 4653   3.187   5.152   1.810 -1.2755 -1.6594 -0.1342
 1563TIP3    H2 4654   3.083   5.213   1.719 -0.2681  0.5785  0.1279
 1564TIP3   OH2 4655   4.836   1.960   1.477 -0.2189 -0.2317 -0.3080
 1564TIP3    H1 4656   4.860   1.984   1.567 -0.8266  1.4591 -0.5635
 1564TIP3    H2 4657   4.919   1.963   1.429 -0.0509 -0.1494 -0.0175
 1565TIP3   OH2 4658   6.558   6.515   1.615  0.1440 -0.3196 -0.0191
 1565TIP3    H1 4659   6.541   6.479   1.702  0.7646 -0.2087  0.1508
 1565TIP3    H2 4660   6.513   6.600   1.615 -0.2921 -0.5485  0.0077
 1566TIP3   OH2 4661   6.950   4.962   2.248  0.1133 -0.0806  0.3827
 1566TIP3    H1 4662   6.902   4.996   2.323 -0.7696 -0.7465  0.1371
 1566TIP3    H2 4663   6.936   4.867   2.251  0.5604 -0.1787 -0.2808
 1567TIP3   OH2 4664   6.736   1.406   3.438 -0.0756  0.0604 -0.0831
 1567TIP3    H1 4665   6.683   1.407   3.359  0.4792  0.9133 -0.4606
 1567TIP3    H2 4666   6.821   1.372   3.409  0.2898  0.8537  0.0200
 1568TIP3   OH2 4667   0.535   4.423   0.761  0.2035 -0.2310  0.0391
 1568TIP3    H1 4668   0.514   4.383   0.845 -2.2991 -0.5279 -0.6438
 1568TIP3    H2 4669   0.567   4.351   0.707  0.8767 -0.2294  0.4292
 1569TIP3   OH2 4670   2.895   2.804   4.247  0.3626 -0.2830  0.1655
 1569TIP3    H1 4671   2.846   2.725   4.268  1.9021 -2.2803 -2.9431
 1569TIP3    H2 4672   2.828   2.869   4.228 -1.0126 -1.5891  0.3643
 1570TIP3   OH2 4673   3.362   4.897   4.663 -0.0499 -0.1436  0.2400
 1570TIP3    H1 4674   3.375   4.843   4.585 -1.7262 -0.0348 -0.1631
 1570TIP3    H2 4675   3.307   4.969   4.633 -0.2143  0.2371  1.3990
 1571TIP3   OH2 4676   5.769   4.799   5.753  0.2014 -0.1650 -0.4899
 1571TIP3    H1 4677   5.842   4.851   5.721  1.0975 -1.1738 -0.1681
 1571TIP3    H2 4678   5.691   4.841   5.717  0.9331  0.9530 -0.8149
 1572TIP3   OH2 4679   5.399   5.438   5.115 -0.1609 -0.0843 -0.2740
 1572TIP3    H1 4680   5.446   5.478   5.042  0.5225 -3.0824 -1.6323
 1572TIP3    H2 4681   5.420   5.492   5.191  1.8958  1.1861 -1.6838
 1573TIP3   OH2 4682   5.450   3.026   2.891 -0.6752 -0.5097 -0.6914
 1573TIP3    H1 4683   5.356   3.010   2.897 -0.7280  0.0868  3.5210
 1573TIP3    H2 4684   5.485   2.952   2.841 -3.1807 -1.8983 -0.5306
 1574TIP3   OH2 4685   5.710   5.212   2.625 -0.2911 -0.1891 -0.2448
 1574TIP3    H1 4686   5.691   5.252   2.710 -2.1356  0.2471 -0.8054
 1574TIP3    H2 4687   5.746   5.283   2.572 -2.2856  0.4799 -0.8141
 1575TIP3   OH2 4688   1.808   6.404   1.727 -0.7246  0.0178  0.2725
 1575TIP3    H1 4689   1.758   6.358   1.660 -0.2871 -0.6603  0.4035
 1575TIP3    H2 4690   1.840   6.336   1.785  1.6991  0.1929 -0.6924
 1576TIP3   OH2 4691   1.349   0.658   3.308 -0.4723 -0.1049  0.4497
 1576TIP3    H1 4692   1.384   0.649   3.396  0.4694  0.5942  0.1575
 1576TIP3    H2 4693   1.419   0.627   3.251 -1.4264 -1.4797 -0.0367
 1577TIP3   OH2 4694   4.799   6.419   4.269  0.4409  0.0776  0.2954
 1577TIP3    H1 4695   4.818   6.510   4.245  1.4092 -0.2346 -0.1638
 1577TIP3    H2 4696   4.777   6.377   4.186 -2.1947  0.3719  0.7638
 1578TIP3   OH2 4697   1.700   4.739   4.345 -0.1864 -0.3228  0.4553
 1578TIP3    H1 4698   1.739   4.711   4.263 -1.2266 -1.6471  0.3905
 1578TIP3    H2 4699   1.763   4.802   4.381  1.3870 -1.4319 -0.2464
 1579TIP3   OH2 4700   2.382   0.250   3.900 -0.7783 -0.1173 -0.3534
 1579TIP3    H1 4701   2.379   0.157   3.879 -2.6757 -0.1936  0.0565
 1579TIP3    H2 4702   2.290   0.277   3.900 -0.5708  0.9697  2.8417
 1580TIP3   OH2 4703   3.158   6.702   4.032 -0.0689 -0.2971 -0.3293
 1580TIP3    H1 4704   3.106   6.661   3.963 -1.5762  0.3103  0.4063
 1580TIP3    H2 4705   3.115   6.786   4.048  1.4821  0.4824 -0.0690
 1581TIP3   OH2 4706   5.070   2.786  -0.008 -0.2175  0.1468  0.0251
 1581TIP3    H1 4707   4.996   2.729  -0.029 -1.3906  1.2022  1.1055
 1581TIP3    H2 4708   5.097   2.759   0.079 -1.5673  1.9270  1.0790
 1582TIP3   OH2 4709   1.966   4.063   3.098 -0.2585  0.0363 -0.0623
 1582TIP3    H1 4710   1.914   4.138   3.069 -1.1948 -0.6589 -0.2152
 1582TIP3    H2 4711   2.056   4.095   3.096 -0.6508  1.2109  0.0422
 1583TIP3   OH2 4712   3.564   6.551   4.614 -0.3883  0.2698  0.5773
 1583TIP3    H1 4713   3.497   6.525   4.550 -0.4067 -0.3837  0.8533
 1583TIP3    H2 4714   3.568   6.478   4.675  2.6621 -1.0841 -1.0275
 1584TIP3   OH2 4715   1.458   6.276   3.073  0.1441 -0.3867 -0.7002
 1584TIP3    H1 4716   1.508   6.260   2.993 -0.5881  1.1774 -1.5254
 1584TIP3    H2 4717   1.367   6.256   3.049 -0.8703  4.2427 -1.8416
 1585TIP3   OH2 4718   0.397   2.632   2.742  0.3651  0.1544 -0.3388
 1585TIP3    H1 4719   0.430   2.710   2.786  1.2270  0.1550 -0.9770
 1585TIP3    H2 4720   0.347   2.666   2.668  2.1528  0.1130 -1.6295
 1586TIP3   OH2 4721   5.813   2.454   2.228  0.3128  0.0235 -0.2142
 1586TIP3    H1 4722   5.774   2.463   2.315 -0.3751  0.3559 -0.5481
 1586TIP3    H2 4723   5.881   2.521   2.225 -0.6374  1.0072 -0.4479
 1587TIP3   OH2 4724   6.915   5.544   1.860 -0.3740  0.6475 -0.0497
 1587TIP3    H1 4725   6.846   5.557   1.924 -1.2039  0.7720 -0.9455
 1587TIP3    H2 4726   6.996   5.561   1.908 -0.9772  0.7993  0.9363
 1588TIP3   OH2 4727   4.333   2.365   0.631 -0.3372  0.0387 -0.0528
 1588TIP3    H1 4728   4.238   2.368   0.623 -0.3704  0.4966  0.4613
 1588TIP3    H2 4729   4.364   2.341   0.544 -0.9759 -1.2039  0.0467
 1589TIP3   OH2 4730   5.896   1.421   2.932 -0.4415 -0.3452 -0.1293
 1589TIP3    H1 4731   5.972   1.426   2.873  0.0758 -0.1449  0.5445
 1589TIP3    H2 4732   5.827   1.382   2.878  0.2277 -0.8243 -0.6621
 1590TIP3   OH2 4733   2.313   1.459   1.375  0.0303 -0.7947  0.0933
 1590TIP3    H1 4734   2.322   1.407   1.454  0.3894  0.6171  1.0152
 1590TIP3    H2 4735   2.388   1.518   1.376 -0.8460  0.3764 -0.4089
 1591TIP3   OH2 4736   3.044   2.348   0.068 -0.2016  0.2533  0.1158
 1591TIP3    H1 4737   2.989   2.427   0.063 -0.9393 -0.1901  0.9632
 1591TIP3    H2 4738   3.019   2.307   0.151  1.2656 -0.0784  0.4165
 1592TIP3   OH2 4739   0.138   1.735   0.220  0.8849  0.2207  0.7104
 1592TIP3    H1 4740   0.138   1.772   0.308  0.7137 -1.2749  1.3653
 1592TIP3    H2 4741   0.147   1.640   0.233 -2.6606 -0.4907 -0.6272
 1593TIP3   OH2 4742   1.581   2.190   0.292  0.0524  0.1847  0.5394
 1593TIP3    H1 4743   1.543   2.179   0.379  2.3849 -0.7963  1.5359
 1593TIP3    H2 4744   1.630   2.272   0.298 -0.1504  0.3444  0.0039
 1594TIP3   OH2 4745   6.019   4.609   0.281  0.6135  0.0629  0.4881
 1594TIP3    H1 4746   6.010   4.514   0.272 -0.1803  0.1880 -0.1286
 1594TIP3    H2 4747   5.959   4.645   0.216  1.3885  0.9898  0.2638
 1595TIP3   OH2 4748   2.417   5.882   5.713  0.6509  0.4413  0.4190
 1595TIP3    H1 4749   2.477   5.807   5.723  1.2637  0.9237  0.4501
 1595TIP3    H2 4750   2.375   5.890   5.798 -0.2257 -0.5254  0.1044
 1596TIP3   OH2 4751   4.088   3.703   0.715 -0.3933 -0.3001 -0.3391
 1596TIP3    H1 4752   4.113   3.665   0.631 -2.3074 -0.9739 -0.6606
 1596TIP3    H2 4753   4.104   3.796   0.705  0.6283 -0.5204 -0.9599
 1597TIP3   OH2 4754   5.241   3.749   5.140 -0.1741  0.1012  0.2526
 1597TIP3    H1 4755   5.164   3.725   5.192  0.2098 -0.3700  0.6117
 1597TIP3    H2 4756   5.209   3.747   5.049 -0.3469 -1.0983  0.3197
 1598TIP3   OH2 4757   6.780   5.932   4.212  0.0626  0.4365 -0.7896
 1598TIP3    H1 4758   6.814   5.855   4.257  1.0224  2.2526  1.8546
 1598TIP3    H2 4759   6.702   5.956   4.261 -0.0642  1.3337 -1.4009
 1599TIP3   OH2 4760   0.295   0.036   2.477 -0.0237 -0.0894  0.0753
 1599TIP3    H1 4761   0.314   0.047   2.384  0.4457 -0.3401  0.1389
 1599TIP3    H2 4762   0.319   0.119   2.517 -1.2673  0.4130 -0.1841
 1600TIP3   OH2 4763   6.659   5.636   0.005 -0.4161 -0.2912 -0.1120
 1600TIP3    H1 4764   6.708   5.603   0.080 -0.8979 -1.0737 -0.1244
 1600TIP3    H2 4765   6.636   5.557  -0.045 -0.6402  0.1657 -0.7410
 1601TIP3   OH2 4766   1.338   6.236   3.586  0.1634 -0.7158 -0.5250
 1601TIP3    H1 4767   1.281   6.163   3.564 -0.9947 -0.4019  1.2371
 1601TIP3    H2 4768   1.394   6.203   3.657 -1.4094  0.4892  1.3582
 1602TIP3   OH2 4769   0.803   1.099   2.085  0.0184  0.3615 -0.0656
 1602TIP3    H1 4770   0.752   1.181   2.087 -1.1990 -0.3706 -0.0457
 1602TIP3    H2 4771   0.867   1.109   2.155 -0.5400  1.0327  0.3693
 1603TIP3   OH2 4772   3.036   2.150   1.832 -0.3672 -0.2299 -0.6602
 1603TIP3    H1 4773   3.085   2.128   1.911  0.7404  0.7638 -1.0305
 1603TIP3    H2 4774   2.972   2.080   1.822  0.7129 -1.3490  0.0794
 1604TIP3   OH2 4775   4.916   5.922   0.813  0.0206 -0.0721  0.2134
 1604TIP3    H1 4776   4.837   5.892   0.858 -0.8317 -1.1754 -1.8776
 1604TIP3    H2 4777   4.892   6.006   0.776  0.4296  0.4118  1.0141
 1605TIP3   OH2 4778   2.763   2.065   1.673  0.0027 -0.2231 -0.2791
 1605TIP3    H1 4779   2.793   1.977   1.653 -0.9160 -0.5095 -0.4308
 1605TIP3    H2 4780   2.679   2.073   1.628 -0.5956  0.2267  0.8725
 1606TIP3   OH2 4781   0.836   5.331   3.605 -0.0146  0.0149  0.1145
 1606TIP3    H1 4782   0.747   5.361   3.587  0.5280  2.2512  0.8376
 1606TIP3    H2 4783   0.882   5.340   3.522 -0.4689 -1.3197 -0.3072
 1607TIP3   OH2 4784   7.033   6.293   1.945 -0.2365 -0.4078  0.2635
 1607TIP3    H1 4785   6.954   6.295   1.890 -0.2477  0.9146  0.2962
 1607TIP3    H2 4786   7.011   6.231   2.015 -1.6686  0.6857  0.8425
 1608TIP3   OH2 4787   4.984   0.840   0.825  0.3695 -0.9713 -0.2463
 1608TIP3    H1 4788   4.937   0.915   0.788  0.7543 -0.3347  0.5293
 1608TIP3    H2 4789   4.917   0.773   0.837 -0.3551 -0.0758  0.8489
 1609TIP3   OH2 4790   4.067   1.808   1.419  0.0980 -0.3858  0.0543
 1609TIP3    H1 4791   4.086   1.744   1.350 -0.6313 -1.1810  0.5695
 1609TIP3    H2 4792   4.143   1.867   1.418  0.9278 -1.4142 -0.2535
 1610TIP3   OH2 4793   5.680   5.413   0.274  0.6633 -0.0360  0.4779
 1610TIP3    H1 4794   5.702   5.444   0.186  1.1275  0.9671  0.9349
 1610TIP3    H2 4795   5.734   5.335   0.285 -0.4441 -1.0005 -0.6496
 1611TIP3   OH2 4796   5.113   5.051   0.615 -0.5234  0.2401 -0.5657
 1611TIP3    H1 4797   5.155   5.077   0.534  0.6599 -1.0197 -0.3943
 1611TIP3    H2 4798   5.116   5.128   0.671  0.1080  0.6319 -1.1408
 1612TIP3   OH2 4799   0.562   5.270   2.264  0.1485 -0.2085 -0.0370
 1612TIP3    H1 4800   0.573   5.364   2.249 -0.1735  0.2184  2.1530
 1612TIP3    H2 4801   0.468   5.258   2.277  0.3695 -0.5191  1.4381
 1613TIP3   OH2 4802   0.286   2.538   1.179 -0.1572  0.0916 -0.3650
 1613TIP3    H1 4803   0.275   2.454   1.223 -1.3635 -0.8515 -2.3518
 1613TIP3    H2 4804   0.228   2.598   1.226  0.2123 -0.3290  0.6473
 1614TIP3   OH2 4805   7.150   1.882   5.723 -0.5317 -0.4098 -0.3227
 1614TIP3    H1 4806   7.065   1.845   5.745 -0.6183 -0.7659 -1.2088
 1614TIP3    H2 4807   7.191   1.900   5.808 -1.2975 -0.6598  0.1125
 1615TIP3   OH2 4808   7.192   0.329   5.565 -0.1935 -0.5285 -0.3162
 1615TIP3    H1 4809   7.152   0.254   5.522 -0.3685 -0.2369 -0.6666
 1615TIP3    H2 4810   7.174   0.317   5.658 -0.2639 -0.8916 -0.3773
 1616TIP3   OH2 4811   1.372   3.240   4.894  0.2841 -0.5733  0.1879
 1616TIP3    H1 4812   1.430   3.309   4.863  1.7486 -1.1809  1.4711
 1616TIP3    H2 4813   1.308   3.285   4.950  1.6688 -0.3178  1.6091
 1617TIP3   OH2 4814   6.769   6.263   3.178  0.1267  0.1298 -0.1201
 1617TIP3    H1 4815   6.798   6.307   3.098 -1.3569 -0.3866 -0.9769
 1617TIP3    H2 4816   6.715   6.190   3.147 -0.0872 -0.3683  1.3481
 1618TIP3   OH2 4817   2.117   6.183   4.926 -0.0151  0.2674 -0.3643
 1618TIP3    H1 4818   2.162   6.112   4.971  0.5061  1.2003  0.6330
 1618TIP3    H2 4819   2.186   6.245   4.903 -0.6019  1.0329 -0.1141
 1619TIP3   OH2 4820   4.169   1.659   2.507 -0.0158  0.5259  0.3531
 1619TIP3    H1 4821   4.243   1.698   2.460  1.0126  0.8032  2.0833
 1619TIP3    H2 4822   4.189   1.566   2.512 -0.3186  0.4357 -0.0817
 1620TIP3   OH2 4823   2.036   3.595   4.180  0.1419  0.9764  0.6336
 1620TIP3    H1 4824   2.118   3.635   4.150  0.5821 -1.1353 -1.2527
 1620TIP3    H2 4825   1.968   3.635   4.126  0.3894  0.3679 -0.1574
 1621TIP3   OH2 4826   4.988   0.274   4.401 -0.2175 -0.1432 -0.6563
 1621TIP3    H1 4827   4.952   0.299   4.316  0.2569  1.0668 -0.5220
 1621TIP3    H2 4828   4.913   0.276   4.460 -0.6064 -1.2806 -1.0831
 1622TIP3   OH2 4829   6.620   1.805   5.071  0.0736  0.7935  0.0901
 1622TIP3    H1 4830   6.714   1.808   5.054  0.0741  0.5716  0.0484
 1622TIP3    H2 4831   6.608   1.854   5.152  0.5110 -0.9753  1.3028
 1623TIP3   OH2 4832   3.536   6.553   3.171  0.3109 -0.0028 -0.5002
 1623TIP3    H1 4833   3.443   6.538   3.185  0.2954 -1.1029 -1.6027
 1623TIP3    H2 4834   3.574   6.466   3.166  1.3150  0.4298 -0.5746
 1624TIP3   OH2 4835   2.724   1.995   5.055  0.2898 -0.0737  0.0589
 1624TIP3    H1 4836   2.727   1.994   4.959 -2.6866  1.1931 -0.1434
 1624TIP3    H2 4837   2.762   2.080   5.078 -1.4927  0.8536 -0.2386
 1625TIP3   OH2 4838   3.386   2.105   1.300  0.2579  0.5174 -0.5434
 1625TIP3    H1 4839   3.303   2.065   1.323  0.4429  0.0515 -0.6742
 1625TIP3    H2 4840   3.415   2.148   1.380  0.1189  0.2767 -0.3628
 1626TIP3   OH2 4841   0.929   0.292   0.772 -0.2654 -0.1328 -0.3786
 1626TIP3    H1 4842   0.879   0.271   0.693  0.9731  2.1897 -1.8807
 1626TIP3    H2 4843   1.012   0.246   0.761  0.2970  0.9918 -0.9577
 1627TIP3   OH2 4844   5.486   6.293   1.880  0.9088 -0.0553  0.1868
 1627TIP3    H1 4845   5.465   6.386   1.888 -0.0412 -0.3177  0.9528
 1627TIP3    H2 4846   5.570   6.283   1.925  0.2475  0.1749  1.5324
 1628TIP3   OH2 4847   3.021   5.134   5.154  0.1599 -0.4660  0.1726
 1628TIP3    H1 4848   3.011   5.122   5.059 -0.8845  0.4017  0.1560
 1628TIP3    H2 4849   2.940   5.099   5.191  0.0725  0.2321  0.6531
 1629TIP3   OH2 4850   2.929   4.559   4.726  0.1021  0.0996 -0.3651
 1629TIP3    H1 4851   3.022   4.537   4.724  0.5219  1.7037 -0.1236
 1629TIP3    H2 4852   2.901   4.537   4.814  0.6027  0.8275 -0.0104
 1630TIP3   OH2 4853   3.204   5.574   2.853 -0.2641 -0.3506  0.5447
 1630TIP3    H1 4854   3.175   5.520   2.926  0.8648 -0.9719  0.5508
 1630TIP3    H2 4855   3.274   5.628   2.890 -0.5035  0.1971  0.2121
 1631TIP3   OH2 4856   0.862   4.651   2.524  0.1087 -0.1625  0.7963
 1631TIP3    H1 4857   0.824   4.727   2.567  0.9332  1.1044 -0.6214
 1631TIP3    H2 4858   0.904   4.601   2.594 -1.4807  0.0001  1.9299
 1632TIP3   OH2 4859   0.865   2.333   5.529 -0.3100 -0.0461  0.1745
 1632TIP3    H1 4860   0.891   2.425   5.524 -0.6400 -0.0020 -1.0651
 1632TIP3    H2 4861   0.779   2.334   5.572 -0.6692  0.3028 -0.5380
 1633TIP3   OH2 4862   2.867   6.188   4.714  0.3473  0.2050  0.5235
 1633TIP3    H1 4863   2.849   6.193   4.808 -1.5989  2.2298  0.1359
 1633TIP3    H2 4864   2.916   6.268   4.695  0.0149  0.2249 -0.2985
 1634TIP3   OH2 4865   1.566   5.439   4.327  0.1264 -0.2753 -0.3216
 1634TIP3    H1 4866   1.609   5.361   4.291  1.6867  0.4520 -0.1539
 1634TIP3    H2 4867   1.521   5.407   4.405  2.4300 -0.7346  0.9231
 1635TIP3   OH2 4868   3.066   2.617   1.249 -0.1023  0.3227 -0.5674
 1635TIP3    H1 4869   3.149   2.604   1.295  2.9737  1.8855 -5.0125
 1635TIP3    H2 4870   3.030   2.529   1.239  0.0779 -0.2519  2.7521
 1636TIP3   OH2 4871   7.092   6.142   1.453  0.5214  0.2635 -0.3297
 1636TIP3    H1 4872   7.188   6.151   1.453  0.5461  0.1013  0.6395
 1636TIP3    H2 4873   7.077   6.048   1.450  0.3729  0.3034 -1.1519
 1637TIP3   OH2 4874   2.676   1.707   0.220 -0.0555  0.3182 -0.1844
 1637TIP3    H1 4875   2.637   1.620   0.226 -0.9192  0.7767  1.9303
 1637TIP3    H2 4876   2.729   1.715   0.300 -2.1135  2.6277  1.1439
 1638TIP3   OH2 4877   5.564   5.049   5.114  0.1452  0.7060 -0.5974
 1638TIP3    H1 4878   5.476   5.087   5.116  0.3504  1.2648  1.9935
 1638TIP3    H2 4879   5.554   4.963   5.155  0.3803 -0.5060 -2.8978
 1639TIP3   OH2 4880   6.547   5.888   4.952 -0.0822 -0.1555 -0.2598
 1639TIP3    H1 4881   6.579   5.798   4.955 -1.8523 -0.8222 -0.1351
 1639TIP3    H2 4882   6.478   5.887   4.885  0.3428  1.2866 -0.7595
 1640TIP3   OH2 4883   4.732   1.191   4.096  0.4160  0.1363  0.1527
 1640TIP3    H1 4884   4.720   1.109   4.049  0.4992  0.3665 -0.2747
 1640TIP3    H2 4885   4.777   1.167   4.176 -0.3753 -0.3586  0.4578
 1641TIP3   OH2 4886   0.663   6.394   5.652 -0.0040 -0.0389 -0.1131
 1641TIP3    H1 4887   0.658   6.426   5.742  1.6092 -1.3361  0.4966
 1641TIP3    H2 4888   0.639   6.469   5.598  1.5041  1.5695  1.3242
 1642TIP3   OH2 4889   6.926   2.258   0.478  0.4713 -0.1575  0.6112
 1642TIP3    H1 4890   6.970   2.228   0.398  0.6217  0.8596  0.2903
 1642TIP3    H2 4891   6.833   2.250   0.458  0.5000 -1.3314  0.9038
 1643TIP3   OH2 4892   0.558   1.885   4.269 -0.1904 -0.6028 -0.2730
 1643TIP3    H1 4893   0.647   1.920   4.273 -0.3651 -0.1737  2.7826
 1643TIP3    H2 4894   0.548   1.853   4.180  2.6350  0.3111 -1.0159
 1644TIP3   OH2 4895   1.918   2.246   4.970 -0.4282 -0.2678 -0.0198
 1644TIP3    H1 4896   1.914   2.233   4.876  0.2138 -0.2081 -0.0586
 1644TIP3    H2 4897   1.999   2.296   4.984 -1.1816  0.8683  0.4271
 1645TIP3   OH2 4898   0.337   1.494   4.978 -0.2426 -0.2095 -0.1489
 1645TIP3    H1 4899   0.402   1.429   4.950  0.0167  0.2920 -0.7346
 1645TIP3    H2 4900   0.387   1.553   5.034 -0.1722  0.2139 -0.6526
 1646TIP3   OH2 4901   3.462   3.310   3.191 -0.1165  0.5320 -0.2068
 1646TIP3    H1 4902   3.521   3.241   3.159  1.3093  1.5874  0.0369
 1646TIP3    H2 4903   3.436   3.281   3.278  0.2960  0.1853 -0.1958
 1647TIP3   OH2 4904   1.835   3.371   3.996 -0.0477  0.0527 -0.0414
 1647TIP3    H1 4905   1.745   3.386   4.026  0.3357  1.9463  0.2568
 1647TIP3    H2 4906   1.863   3.455   3.960  1.0758 -0.9448 -1.6243
 1648TIP3   OH2 4907   4.244   5.207   0.659  0.1409 -0.1615  0.4678
 1648TIP3    H1 4908   4.236   5.114   0.681  1.9168 -0.0642  1.7866
 1648TIP3    H2 4909   4.218   5.253   0.739  1.0731  0.3979  0.4719
 1649TIP3   OH2 4910   2.796   1.737   3.878  0.2127 -0.1137 -0.2442
 1649TIP3    H1 4911   2.798   1.833   3.884  0.4515 -0.1025 -0.4902
 1649TIP3    H2 4912   2.745   1.709   3.954  0.8546  0.1671  0.2915
 1650TIP3   OH2 4913   0.652   4.271   2.560 -0.7572 -0.0765 -0.1024
 1650TIP3    H1 4914   0.618   4.206   2.622  1.3814 -0.1441  1.1045
 1650TIP3    H2 4915   0.747   4.260   2.564 -0.4769  1.1762 -2.0725
 1651TIP3   OH2 4916   1.783   3.626   1.562 -0.1320 -0.0421  0.6407
 1651TIP3    H1 4917   1.863   3.643   1.612  1.0448  0.6714 -1.3675
 1651TIP3    H2 4918   1.764   3.710   1.519 -1.2424 -0.5493  0.1113
 1652TIP3   OH2 4919   6.583   2.937   0.383  0.5699 -0.5008 -0.1103
 1652TIP3    H1 4920   6.560   2.854   0.341  0.7482 -0.5398 -0.1342
 1652TIP3    H2 4921   6.654   2.972   0.330 -0.9065  0.7230 -1.3650
 1653TIP3   OH2 4922   4.274   3.882   4.116  0.1646  0.0777 -0.0862
 1653TIP3    H1 4923   4.364   3.893   4.085 -0.4430 -1.4848 -2.6158
 1653TIP3    H2 4924   4.264   3.950   4.184  3.5018 -0.3122  0.9770
 1654TIP3   OH2 4925   0.580   2.055   4.849 -0.5484  0.2515 -0.1819
 1654TIP3    H1 4926   0.580   2.149   4.866 -0.0439  0.2235 -0.0121
 1654TIP3    H2 4927   0.595   2.015   4.935 -0.0478  0.0434 -0.3596
 1655TIP3   OH2 4928   3.738   4.214   3.648  0.7677  0.3597 -0.3409
 1655TIP3    H1 4929   3.798   4.286   3.668  0.1680  0.6720  0.3731
 1655TIP3    H2 4930   3.652   4.256   3.641  0.5788 -0.1309 -1.0498
 1656TIP3   OH2 4931   3.594   6.772   0.804  0.2021 -0.4035 -0.3855
 1656TIP3    H1 4932   3.534   6.723   0.746 -0.0898 -0.0033 -0.4257
 1656TIP3    H2 4933   3.536   6.814   0.867  0.3686  0.6435 -0.9138
 1657TIP3   OH2 4934   5.954   3.238   1.319  0.3080 -0.3688  0.3008
 1657TIP3    H1 4935   5.994   3.297   1.384  1.0652  0.3149 -0.7536
 1657TIP3    H2 4936   6.010   3.246   1.242 -0.7414 -0.9448 -0.5450
 1658TIP3   OH2 4937   6.931   2.420   4.747  0.2712 -0.0457  0.0445
 1658TIP3    H1 4938   6.982   2.489   4.704  0.6956  0.5178  1.4021
 1658TIP3    H2 4939   6.973   2.338   4.718  3.0844  0.4154  2.3406
 1659TIP3   OH2 4940   4.602   5.087   0.071  0.0391  0.0654  0.0118
 1659TIP3    H1 4941   4.656   5.162   0.047  0.5970 -0.8302 -1.7052
 1659TIP3    H2 4942   4.649   5.045   0.143  0.7993  0.2086 -0.3938
 1660TIP3   OH2 4943   2.753   4.490   5.767  0.2011  0.9415  0.1291
 1660TIP3    H1 4944   2.815   4.525   5.833 -0.6345  0.9198  0.9434
 1660TIP3    H2 4945   2.747   4.397   5.787  1.2490  0.5851 -1.0821
 1661TIP3   OH2 4946   6.365   2.859   4.029  0.0034  0.3221  0.0645
 1661TIP3    H1 4947   6.400   2.919   4.095  0.0771 -0.5488  0.8354
 1661TIP3    H2 4948   6.396   2.895   3.945 -1.6135  2.5053  0.2868
 1662TIP3   OH2 4949   1.350   1.189   5.085 -0.2732 -0.4131  0.0893
 1662TIP3    H1 4950   1.296   1.166   5.160  0.5345 -0.7587  0.5805
 1662TIP3    H2 4951   1.380   1.278   5.102 -1.8517  0.3481 -0.8941
 1663TIP3   OH2 4952  -0.007   2.348   2.921  0.2804  0.7899  0.2211
 1663TIP3    H1 4953   0.043   2.346   3.003  0.2508 -0.8276  0.2347
 1663TIP3    H2 4954   0.059   2.365   2.854  0.2173  2.7223  0.6073
 1664TIP3   OH2 4955   3.597   4.822   2.236 -0.0180  0.8165  0.4195
 1664TIP3    H1 4956   3.603   4.814   2.141  0.0783  0.4627  0.4553
 1664TIP3    H2 4957   3.516   4.872   2.251 -1.8523 -1.9067  0.2534
 1665TIP3   OH2 4958   3.580   6.389   0.506  0.4796  0.2821 -0.0893
 1665TIP3    H1 4959   3.544   6.477   0.523 -2.2440 -0.8290  0.4011
 1665TIP3    H2 4960   3.524   6.330   0.557  2.5458 -1.7515  0.0019
 1666TIP3   OH2 4961   1.872   1.637   5.159 -0.0001  0.2921  0.4093
 1666TIP3    H1 4962   1.784   1.608   5.183  0.7723 -1.7691  0.9444
 1666TIP3    H2 4963   1.914   1.658   5.242  0.2395  0.6229  0.2062
 1667TIP3   OH2 4964   5.549   6.551   5.001 -0.2516 -0.0481 -0.2013
 1667TIP3    H1 4965   5.644   6.549   5.002 -0.2336  0.7220  0.2223
 1667TIP3    H2 4966   5.528   6.625   4.944 -0.6075 -0.5305 -0.7097
 1668TIP3   OH2 4967   4.668   0.453   5.785  0.0077  0.1828 -0.3158
 1668TIP3    H1 4968   4.725   0.441   5.861  0.5817  0.6155 -0.6674
 1668TIP3    H2 4969   4.580   0.458   5.822  0.1160 -1.2118  0.1745
 1669TIP3   OH2 4970   3.441   1.955   4.521 -0.2042 -0.1340 -0.3823
 1669TIP3    H1 4971   3.533   1.970   4.502 -0.2405 -1.2447 -1.6199
 1669TIP3    H2 4972   3.441   1.878   4.578 -0.3951 -0.5399 -0.9291
 1670TIP3   OH2 4973   0.163   2.273   1.998 -0.7393  0.0069  0.6485
 1670TIP3    H1 4974   0.213   2.342   1.956 -0.7930 -0.8236 -0.8638
 1670TIP3    H2 4975   0.201   2.264   2.085 -0.0850  1.2349  0.5058
 1671TIP3   OH2 4976   4.381   1.666   5.529  0.0872  0.4131 -0.0095
 1671TIP3    H1 4977   4.419   1.604   5.592 -0.4158  0.1608  0.0506
 1671TIP3    H2 4978   4.305   1.702   5.573  0.0832  0.6960 -0.2422
 1672TIP3   OH2 4979   6.199   6.760   0.804 -0.2763  0.2857  0.5835
 1672TIP3    H1 4980   6.113   6.718   0.811 -0.4297 -0.1097 -2.3445
 1672TIP3    H2 4981   6.261   6.692   0.832 -0.7843 -0.3024  0.2960
 1673TIP3   OH2 4982   1.068   2.344   1.378 -0.0545 -0.4890 -0.5359
 1673TIP3    H1 4983   1.137   2.356   1.313  0.2187  1.1037 -0.0015
 1673TIP3    H2 4984   1.023   2.429   1.381 -1.1482 -1.0698  0.1314
 1674TIP3   OH2 4985   0.232   4.065   3.968 -0.0708  0.0516 -0.0974
 1674TIP3    H1 4986   0.322   4.039   3.947  0.0602  0.5566 -0.1563
 1674TIP3    H2 4987   0.194   4.090   3.884 -0.8427 -1.8650 -0.3786
 1675TIP3   OH2 4988   2.053   1.640   2.592  0.3618  1.3900 -0.3064
 1675TIP3    H1 4989   1.991   1.694   2.542 -0.5518  1.7787  1.1875
 1675TIP3    H2 4990   2.023   1.647   2.683  1.4307 -0.0389  0.1869
 1676TIP3   OH2 4991   5.344   5.818   5.291 -0.0915  0.5278  0.4349
 1676TIP3    H1 4992   5.347   5.831   5.385  1.3219  0.9377  0.3491
 1676TIP3    H2 4993   5.280   5.882   5.259 -1.0025  0.0016  1.1499
 1677TIP3   OH2 4994   2.216   5.116   0.474 -0.3200  0.1691  0.3649
 1677TIP3    H1 4995   2.252   5.147   0.558  0.4072  1.1127 -0.2739
 1677TIP3    H2 4996   2.262   5.034   0.457  2.9257  2.1516 -1.2578
 1678TIP3   OH2 4997   6.901   4.190   5.240  0.4483 -0.7082 -0.6883
 1678TIP3    H1 4998   6.873   4.143   5.318  1.8623 -2.1701 -1.0093
 1678TIP3    H2 4999   6.925   4.277   5.272  0.3152 -1.0468  0.3843
 1679TIP3   OH2 5000   5.380   1.858   4.293  0.2076 -0.2241 -0.7049
 1679TIP3    H1 5001   5.315   1.869   4.224  1.1555 -0.2569 -1.6227
 1679TIP3    H2 5002   5.424   1.943   4.298 -0.8198  0.2608  0.9006
 1680TIP3   OH2 5003   2.186   3.135   2.338  0.2069 -1.0036  0.1715
 1680TIP3    H1 5004   2.108   3.117   2.389 -1.4205  0.8591 -1.4821
 1680TIP3    H2 5005   2.172   3.088   2.256  0.9625 -0.9003 -0.0241
 1681TIP3   OH2 5006   0.922   3.442   0.395  0.0731 -0.0636  0.3677
 1681TIP3    H1 5007   1.002   3.409   0.353 -0.1131 -0.6917  0.4937
 1681TIP3    H2 5008   0.851   3.397   0.349 -0.0965 -1.5300  1.9858
 1682TIP3   OH2 5009   4.652   1.249   3.377 -0.1057  0.5777  0.1941
 1682TIP3    H1 5010   4.655   1.277   3.468 -2.2756 -1.1387  0.9050
 1682TIP3    H2 5011   4.622   1.326   3.328  2.0352  1.8070  0.7009
 1683TIP3   OH2 5012   2.576   3.746   5.819  0.0984  0.1465 -0.1032
 1683TIP3    H1 5013   2.562   3.670   5.762 -2.2799  0.7418 -0.4220
 1683TIP3    H2 5014   2.557   3.713   5.907 -0.5680  0.2705 -0.1972
 1684TIP3   OH2 5015   6.438   0.397   2.660  0.0150  0.0377 -0.4671
 1684TIP3    H1 5016   6.352   0.360   2.675  0.6048 -1.5405 -0.8352
 1684TIP3    H2 5017   6.468   0.425   2.747  0.0009 -1.3927  0.0177
 1685TIP3   OH2 5018   3.336   1.843   0.517 -0.1123 -0.2784  0.3961
 1685TIP3    H1 5019   3.367   1.864   0.429  1.6914 -0.0020  1.0684
 1685TIP3    H2 5020   3.241   1.831   0.507 -0.0065  0.2460 -1.4737
 1686TIP3   OH2 5021   1.505   0.259   2.188 -0.2958  0.6807  0.5179
 1686TIP3    H1 5022   1.493   0.338   2.241  0.4950 -0.0701  1.8656
 1686TIP3    H2 5023   1.465   0.189   2.240  0.1385 -0.0204 -0.0642
 1687TIP3   OH2 5024   2.082   3.581   1.320 -0.1930 -0.1490 -0.0439
 1687TIP3    H1 5025   2.031   3.526   1.260 -0.1343 -0.1780 -0.0679
 1687TIP3    H2 5026   2.021   3.648   1.350 -0.3145 -0.3327  0.1236
 1688TIP3   OH2 5027   2.264   2.575   4.006 -0.6380 -0.0849  0.2054
 1688TIP3    H1 5028   2.232   2.504   3.951 -0.1519  1.4430 -2.2108
 1688TIP3    H2 5029   2.354   2.550   4.029 -0.3287 -0.1049 -0.9724
 1689TIP3   OH2 5030   5.047   2.422   3.737 -0.4858 -0.0364  0.5648
 1689TIP3    H1 5031   5.101   2.498   3.760  1.3005 -0.9964 -0.2781
 1689TIP3    H2 5032   5.089   2.385   3.659 -1.6423 -1.5514  0.6201
 1690TIP3   OH2 5033   6.702   5.073   5.737 -0.1040  0.3340 -0.1733
 1690TIP3    H1 5034   6.737   4.984   5.735  0.0794  0.4184 -1.8149
 1690TIP3    H2 5035   6.777   5.128   5.713 -0.2827  0.9221  0.5703
 1691TIP3   OH2 5036   7.073   6.392   3.990 -0.5930  0.2299 -0.1309
 1691TIP3    H1 5037   7.157   6.439   3.994 -0.5417  0.0679  0.9572
 1691TIP3    H2 5038   7.039   6.412   3.903 -0.0464  1.3835 -0.1057
 1692TIP3   OH2 5039   5.057   1.965   0.925  0.1091  0.0779  0.2619
 1692TIP3    H1 5040   5.009   2.047   0.927 -0.4585 -0.2565  0.7507
 1692TIP3    H2 5041   5.114   1.968   1.002  2.5018  1.4024 -1.4455
 1693TIP3   OH2 5042   5.368   5.700   4.077  0.6420  0.2951  0.3943
 1693TIP3    H1 5043   5.401   5.790   4.076  0.7008  0.2743  0.4865
 1693TIP3    H2 5044   5.273   5.710   4.078  0.6030  0.3540 -1.1223
 1694TIP3   OH2 5045   1.432   2.597   1.050  0.0021  0.0299  0.2594
 1694TIP3    H1 5046   1.455   2.507   1.028 -1.0158 -1.0226  3.0329
 1694TIP3    H2 5047   1.516   2.644   1.050  0.5878 -0.9678 -0.8722
 1695TIP3   OH2 5048   0.557   5.515   4.074  0.1342  0.3951 -0.4142
 1695TIP3    H1 5049   0.576   5.485   3.985  0.3360  1.2428 -0.6667
 1695TIP3    H2 5050   0.567   5.610   4.070 -0.8109  0.5422  0.2812
 1696TIP3   OH2 5051   5.189   3.882   2.833  0.0664  0.1712 -0.7414
 1696TIP3    H1 5052   5.243   3.803   2.843 -0.9396 -0.4166  0.3464
 1696TIP3    H2 5053   5.190   3.900   2.739 -2.4894 -3.2139 -1.6009
 1697TIP3   OH2 5054   6.932   1.891   2.576  0.5225 -0.6427  0.4381
 1697TIP3    H1 5055   6.996   1.877   2.506 -0.7454 -0.2431 -0.8573
 1697TIP3    H2 5056   6.962   1.971   2.620  0.2497  0.2872 -0.9817
 1698TIP3   OH2 5057   6.662   4.309   1.551  0.5167 -0.0277 -0.0681
 1698TIP3    H1 5058   6.608   4.371   1.502 -0.8586  0.3036  1.7498
 1698TIP3    H2 5059   6.616   4.225   1.543 -0.0162  0.1455  1.0756
 1699TIP3   OH2 5060   6.669   4.881   0.224 -0.0018  0.0853 -0.2341
 1699TIP3    H1 5061   6.648   4.849   0.312 -0.3828 -0.0275 -0.3633
 1699TIP3    H2 5062   6.614   4.828   0.166 -1.4117  1.6563 -0.3929
 1700TIP3   OH2 5063   1.399   1.982   0.865 -0.0112  0.5310  0.0691
 1700TIP3    H1 5064   1.434   1.912   0.810 -0.5297  1.1177 -1.0364
 1700TIP3    H2 5065   1.436   1.966   0.952 -0.4604 -1.3639 -0.0562
 1701TIP3   OH2 5066   0.307   0.997   4.114 -0.2745  0.4062  0.0539
 1701TIP3    H1 5067   0.316   1.065   4.047 -0.5424  1.4758  1.0788
 1701TIP3    H2 5068   0.381   1.011   4.173  0.3510 -0.9579 -0.3362
 1702TIP3   OH2 5069   5.527   0.550   0.896  0.1607 -0.3762 -0.2342
 1702TIP3    H1 5070   5.519   0.644   0.881  0.3833  0.3419  3.2450
 1702TIP3    H2 5071   5.615   0.538   0.932  0.7323 -2.2351 -2.0135
 1703TIP3   OH2 5072   6.210   4.634   3.821 -0.1033  0.6818 -0.0910
 1703TIP3    H1 5073   6.275   4.564   3.827 -1.8461 -0.8874  1.3473
 1703TIP3    H2 5074   6.232   4.693   3.894  1.7439  2.1096 -1.6640
 1704TIP3   OH2 5075   0.461   4.075   3.592 -0.0676 -0.1788 -0.0216
 1704TIP3    H1 5076   0.512   4.067   3.511 -0.6147 -0.0700 -0.3842
 1704TIP3    H2 5077   0.521   4.047   3.661  0.6171  0.3271 -0.3925
 1705TIP3   OH2 5078   0.090   6.380   2.554  0.0555 -0.2515 -0.4237
 1705TIP3    H1 5079   0.037   6.368   2.476 -0.3521  0.6686 -0.2953
 1705TIP3    H2 5080   0.163   6.435   2.525 -0.7757  1.1911  0.1007
 1706TIP3   OH2 5081   2.883   3.573   2.540  0.5671 -0.2257 -0.1779
 1706TIP3    H1 5082   2.945   3.557   2.469  0.2523 -1.8566 -0.1067
 1706TIP3    H2 5083   2.919   3.527   2.615 -1.3291 -2.3696 -0.4805
 1707TIP3   OH2 5084   0.368   3.281   0.211 -0.0566  0.7849  0.2740
 1707TIP3    H1 5085   0.407   3.348   0.268 -0.1719 -0.5004  1.9425
 1707TIP3    H2 5086   0.365   3.202   0.265 -1.0506 -0.2648 -1.2295
 1708TIP3   OH2 5087   4.507   3.727   3.050 -0.3170  0.3960  0.0628
 1708TIP3    H1 5088   4.558   3.689   2.978  0.0329 -0.5909  0.8040
 1708TIP3    H2 5089   4.545   3.814   3.061 -0.0113  0.3593 -0.5942
 1709TIP3   OH2 5090   1.387   0.545   5.764 -0.6389 -0.4435 -0.1136
 1709TIP3    H1 5091   1.306   0.578   5.804 -1.2268  1.0136 -2.3249
 1709TIP3    H2 5092   1.377   0.563   5.671  2.3544  0.0232 -0.4562
 1710TIP3   OH2 5093   0.109   1.120   5.243  0.6383  0.1093  0.2791
 1710TIP3    H1 5094   0.108   1.206   5.201 -1.0433  0.4461  0.9249
 1710TIP3    H2 5095   0.202   1.098   5.251  1.2006  2.5419  1.4291
 1711TIP3   OH2 5096   3.676   3.884   0.665  0.1302  0.6171  1.1318
 1711TIP3    H1 5097   3.617   3.819   0.703 -0.0186  1.2360  2.0021
 1711TIP3    H2 5098   3.677   3.864   0.571 -0.1964 -0.3993  1.3365
 1712TIP3   OH2 5099   3.733   4.993   3.545 -0.1322  0.7489  0.1665
 1712TIP3    H1 5100   3.804   4.965   3.488 -1.1213  0.9076 -1.1934
 1712TIP3    H2 5101   3.681   5.053   3.491 -0.8463  1.2724  1.3930
 1713TIP3   OH2 5102   3.113   5.630   3.169  0.0866  0.0699  0.0451
 1713TIP3    H1 5103   3.053   5.558   3.147 -0.1942  0.6660 -1.2205
 1713TIP3    H2 5104   3.056   5.700   3.200  0.2823  0.0644  0.4207
 1714TIP3   OH2 5105   3.190   0.719   2.373 -0.7128 -0.4468 -0.3661
 1714TIP3    H1 5106   3.217   0.776   2.444 -0.0739 -2.7674  1.3857
 1714TIP3    H2 5107   3.270   0.671   2.349 -1.7988 -2.8613  0.4884
 1715TIP3   OH2 5108   0.289   2.290   3.052  0.6021 -0.0238 -0.2455
 1715TIP3    H1 5109   0.370   2.270   3.098  0.2578 -1.4707 -0.2327
 1715TIP3    H2 5110   0.221   2.282   3.118  0.5715  3.4194  0.3319
 1716TIP3   OH2 5111   6.099   6.008   2.624 -0.0344 -0.2472 -0.1981
 1716TIP3    H1 5112   6.173   5.946   2.626  0.7654  0.6868 -0.2726
 1716TIP3    H2 5113   6.127   6.080   2.681 -0.8956  0.1218 -0.2287
 1717TIP3   OH2 5114   1.993   4.638   0.863 -0.1130  0.1972  0.1980
 1717TIP3    H1 5115   2.069   4.588   0.832  0.4577  0.9928  0.2886
 1717TIP3    H2 5116   1.921   4.609   0.807  0.5193  0.3079 -0.6961
 1718TIP3   OH2 5117   4.620   4.991   2.944 -0.1535 -0.1158 -0.3049
 1718TIP3    H1 5118   4.558   5.054   2.909  1.1260 -0.2111 -2.9580
 1718TIP3    H2 5119   4.684   5.044   2.992 -1.1650  0.1484  0.8179
 1719TIP3   OH2 5120   2.827   0.879   0.871 -0.3062  0.3866  0.0236
 1719TIP3    H1 5121   2.765   0.885   0.944  0.8406  0.3052  1.0537
 1719TIP3    H2 5122   2.842   0.785   0.860 -0.7489  0.3800 -0.5785
 1720TIP3   OH2 5123   2.242   2.892   5.803  0.5334 -0.1475 -0.2019
 1720TIP3    H1 5124   2.200   2.976   5.785 -0.2087 -0.7519 -1.4651
 1720TIP3    H2 5125   2.187   2.852   5.870  1.8094  1.0108  1.6296
 1721TIP3   OH2 5126   0.176   6.760   0.323 -0.0425  0.2254  0.2839
 1721TIP3    H1 5127   0.099   6.737   0.272 -2.0298  1.8462  2.3687
 1721TIP3    H2 5128   0.249   6.721   0.274 -2.1987 -2.1484 -1.3088
 1722TIP3   OH2 5129   1.479   5.379   0.518 -0.4785  0.2091  0.3213
 1722TIP3    H1 5130   1.472   5.415   0.430 -0.9349 -3.5931 -1.3907
 1722TIP3    H2 5131   1.568   5.344   0.522 -0.0517  1.3695  1.8969
 1723TIP3   OH2 5132   0.176   1.472   2.210  0.1009  0.0900  0.7535
 1723TIP3    H1 5133   0.150   1.550   2.259 -1.0901  0.4298 -0.3717
 1723TIP3    H2 5134   0.187   1.404   2.277  0.7705  1.1070  1.7081
 1724TIP3   OH2 5135   2.027   1.197   2.888  0.2715 -0.0895  0.4330
 1724TIP3    H1 5136   2.075   1.253   2.827  1.1540 -2.2565 -0.9781
 1724TIP3    H2 5137   1.936   1.228   2.883  0.5557  0.5743 -1.0464
 1725TIP3   OH2 5138   3.208   4.322   5.265 -0.0642 -0.4806 -0.1200
 1725TIP3    H1 5139   3.215   4.411   5.300 -0.0147  0.4214 -2.2219
 1725TIP3    H2 5140   3.114   4.304   5.263 -0.0832 -0.4107  0.1766
 1726TIP3   OH2 5141   5.666   6.399   4.253 -0.3253 -0.4790  0.3210
 1726TIP3    H1 5142   5.626   6.360   4.330  0.5726  1.5799  1.9232
 1726TIP3    H2 5143   5.594   6.408   4.190 -1.2096 -1.6268  1.1315
 1727TIP3   OH2 5144   4.370   0.164   0.023 -0.3511 -0.8002  0.0105
 1727TIP3    H1 5145   4.312   0.221  -0.028  0.3277 -0.1826 -0.0894
 1727TIP3    H2 5146   4.311   0.105   0.069 -1.0732 -0.1052  0.0044
 1728TIP3   OH2 5147   3.062   2.502   4.921  0.3447  0.7524  0.1242
 1728TIP3    H1 5148   2.991   2.506   4.858  0.0235  1.0324  0.5005
 1728TIP3    H2 5149   3.142   2.509   4.868  0.3090 -3.0342 -0.7004
 1729TIP3   OH2 5150   5.715   2.958   2.739  0.0212 -0.4707 -0.2418
 1729TIP3    H1 5151   5.697   2.984   2.648 -1.9895  0.7807  0.4441
 1729TIP3    H2 5152   5.802   2.993   2.757  0.4132 -0.6518 -1.6407
 1730TIP3   OH2 5153   1.164   2.966   4.465 -0.0156 -0.6311 -0.0206
 1730TIP3    H1 5154   1.168   3.021   4.387  1.1581  0.0035  0.4622
 1730TIP3    H2 5155   1.148   3.026   4.537 -1.9490 -1.3046  0.1739
 1731TIP3   OH2 5156   4.829   5.674   4.143 -0.0432 -0.0277 -0.0306
 1731TIP3    H1 5157   4.820   5.630   4.058  0.1356 -0.5175  0.2007
 1731TIP3    H2 5158   4.799   5.610   4.207 -2.3488  1.1115  0.1305
 1732TIP3   OH2 5159   4.053   3.451   1.681 -0.1739  0.0042  0.1868
 1732TIP3    H1 5160   4.012   3.366   1.697  0.4085 -0.2236  0.5052
 1732TIP3    H2 5161   4.060   3.491   1.767 -0.0990  0.2144  0.0841
 1733TIP3   OH2 5162   0.380   0.522   2.006 -0.3571 -0.0413  0.5531
 1733TIP3    H1 5163   0.346   0.464   1.938 -0.8583 -0.1000  0.8466
 1733TIP3    H2 5164   0.343   0.608   1.986  1.2728  0.4541 -0.5299
 1734TIP3   OH2 5165   1.047   3.487   2.835 -0.1997  0.3021 -0.6629
 1734TIP3    H1 5166   1.032   3.460   2.744  2.0386 -0.4364 -0.8619
 1734TIP3    H2 5167   1.131   3.447   2.859 -0.6306  0.6590  1.6778
 1735TIP3   OH2 5168   0.531   2.979   4.908 -0.1068 -0.4015  0.0136
 1735TIP3    H1 5169   0.538   3.068   4.943  0.3671  0.1364 -1.3673
 1735TIP3    H2 5170   0.599   2.929   4.953 -0.1153  0.0324  0.5083
 1736TIP3   OH2 5171   6.187   6.182   2.794  0.1628  0.1144 -0.2624
 1736TIP3    H1 5172   6.234   6.217   2.719 -0.9251  0.5778 -0.7431
 1736TIP3    H2 5173   6.135   6.255   2.827 -1.3974 -0.7580 -0.6839
 1737TIP3   OH2 5174   3.201   2.341   1.374 -0.4117  0.6204 -0.2553
 1737TIP3    H1 5175   3.284   2.384   1.353 -1.2827  2.0464 -0.8936
 1737TIP3    H2 5176   3.179   2.292   1.294  0.5446 -1.0461  0.4463
 1738TIP3   OH2 5177   3.861   6.749   0.378 -0.3729 -0.0791 -0.2005
 1738TIP3    H1 5178   3.785   6.792   0.340 -0.0280  0.9223  0.2193
 1738TIP3    H2 5179   3.935   6.783   0.328 -0.0128  0.4764  0.6862
 1739TIP3   OH2 5180   0.422   4.284   4.234  0.1866  0.7186 -0.2055
 1739TIP3    H1 5181   0.475   4.252   4.307  1.6320 -0.0030 -1.5182
 1739TIP3    H2 5182   0.403   4.375   4.257 -1.2609 -0.0666  2.0654
 1740TIP3   OH2 5183   7.026   6.165   3.340  0.2864  0.1939 -0.1379
 1740TIP3    H1 5184   7.097   6.155   3.403 -2.0098 -1.9486  2.3890
 1740TIP3    H2 5185   6.946   6.161   3.393 -1.8143  0.1633 -3.0325
 1741TIP3   OH2 5186   4.226   5.018   2.702 -0.0408 -0.1800  0.2625
 1741TIP3    H1 5187   4.291   4.971   2.649 -1.5547 -1.1101 -0.8467
 1741TIP3    H2 5188   4.225   5.107   2.665  0.7429 -0.1026  0.4233
 1742TIP3   OH2 5189   2.403   4.145   4.474  0.5409  0.0361 -0.5168
 1742TIP3    H1 5190   2.496   4.131   4.457  1.4073  1.3772  2.3460
 1742TIP3    H2 5191   2.388   4.101   4.558 -0.6722  1.9571  0.3580
 1743TIP3   OH2 5192   6.379   4.411   4.849 -0.1875 -0.2640  0.7480
 1743TIP3    H1 5193   6.342   4.366   4.925  0.0702  0.0560  1.0678
 1743TIP3    H2 5194   6.394   4.501   4.880 -0.9538  0.1203  0.0457
 1744TIP3   OH2 5195   3.578   5.978   5.018 -0.1530  0.7627  0.1080
 1744TIP3    H1 5196   3.673   5.988   5.028 -0.1571  0.8756  0.0323
 1744TIP3    H2 5197   3.568   5.894   4.973 -0.0220  1.3882 -1.1386
 1745TIP3   OH2 5198   3.861   3.222   5.460 -0.1909  0.4300  0.1603
 1745TIP3    H1 5199   3.853   3.318   5.459  0.9112  0.6349  2.5616
 1745TIP3    H2 5200   3.905   3.201   5.378 -3.1844  1.5823 -1.9295
 1746TIP3   OH2 5201   5.334   1.957   2.765  0.7556  0.2583  0.1874
 1746TIP3    H1 5202   5.243   1.929   2.766  0.2003  1.9529  1.0710
 1746TIP3    H2 5203   5.341   2.014   2.688  0.8266  0.8487  0.6251
 1747TIP3   OH2 5204   3.017   6.691   1.781  0.3840 -0.6564  0.2838
 1747TIP3    H1 5205   2.958   6.666   1.852 -1.8199  0.0604 -1.1980
 1747TIP3    H2 5206   3.036   6.783   1.797  1.3334 -0.9486  0.8932
 1748TIP3   OH2 5207   2.979   6.549   4.258 -0.3305 -0.2288 -0.2307
 1748TIP3    H1 5208   2.962   6.643   4.248 -1.0189 -0.3465 -0.1850
 1748TIP3    H2 5209   2.982   6.515   4.169 -2.0714 -0.5028 -0.2130
 1749TIP3   OH2 5210   4.613   5.621   1.829 -0.0019  0.1530  0.5048
 1749TIP3    H1 5211   4.679   5.632   1.897  0.9934  1.9365 -0.6484
 1749TIP3    H2 5212   4.632   5.691   1.766 -0.9660 -1.3017 -1.5313
 1750TIP3   OH2 5213   5.485   4.801   3.190  0.4388  0.0158 -0.2655
 1750TIP3    H1 5214   5.553   4.831   3.251  0.2507  0.3033 -0.1953
 1750TIP3    H2 5215   5.512   4.836   3.105 -0.2312  1.1528 -0.0422
 1751TIP3   OH2 5216   1.985   5.204   0.795  0.9270  0.0334  0.3357
 1751TIP3    H1 5217   2.025   5.276   0.746  1.4195 -0.9404 -0.7353
 1751TIP3    H2 5218   1.932   5.158   0.730 -0.4661  0.1992  1.3233
 1752TIP3   OH2 5219   5.244   3.433   3.384  0.2299 -0.0169 -0.7107
 1752TIP3    H1 5220   5.340   3.435   3.384  0.2257  0.3473 -1.0858
 1752TIP3    H2 5221   5.223   3.343   3.359  0.4696 -0.2887  0.0392
 1753TIP3   OH2 5222   2.351   3.488   1.302 -0.1174 -0.0769  0.2449
 1753TIP3    H1 5223   2.404   3.520   1.375  1.7754 -1.2657 -0.5128
 1753TIP3    H2 5224   2.261   3.508   1.326  0.6206  1.5654  1.8544
 1754TIP3   OH2 5225   2.351   1.922   0.063  0.1685 -0.7295 -0.0648
 1754TIP3    H1 5226   2.436   1.939   0.105  0.2835 -0.1845 -0.5151
 1754TIP3    H2 5227   2.371   1.857  -0.005  0.0384 -1.3688  0.4924
 1755TIP3   OH2 5228   2.285   4.244   2.509  0.1078 -0.1651 -0.0304
 1755TIP3    H1 5229   2.372   4.238   2.470 -0.6586 -2.0019 -1.6283
 1755TIP3    H2 5230   2.257   4.334   2.493  0.5180 -0.3837 -2.2881
 1756TIP3   OH2 5231   0.185   2.737   2.031  0.1316 -0.5965  0.0602
 1756TIP3    H1 5232   0.200   2.651   1.993  0.4195 -0.7313  0.4788
 1756TIP3    H2 5233   0.246   2.743   2.104  1.7416  0.8494 -1.3111
 1757TIP3   OH2 5234   5.900   2.001   5.670  0.3582 -0.0282  0.2407
 1757TIP3    H1 5235   5.853   2.082   5.689  1.6493  1.1252 -1.2023
 1757TIP3    H2 5236   5.875   1.979   5.580  0.3051 -1.0431  0.4938
 1758TIP3   OH2 5237   5.054   2.338   1.220  0.2648  0.1976 -0.1509
 1758TIP3    H1 5238   5.137   2.364   1.179  0.5087 -0.3625 -0.0173
 1758TIP3    H2 5239   5.067   2.354   1.313 -0.5565  2.2014 -0.3225
 1759TIP3   OH2 5240   2.753   0.061   5.012 -0.2890  0.1083  0.0042
 1759TIP3    H1 5241   2.834   0.109   4.995 -1.2372  1.9128  0.4117
 1759TIP3    H2 5242   2.694   0.087   4.942 -0.4807 -1.3682 -0.4180
 1760TIP3   OH2 5243   1.529   2.748   3.443 -0.5244  0.0835  0.1690
 1760TIP3    H1 5244   1.512   2.700   3.524 -1.5974  1.8204  1.0230
 1760TIP3    H2 5245   1.474   2.704   3.378 -0.5244 -0.6228  0.6396
 1761TIP3   OH2 5246   2.260   3.539   4.870 -0.2583  0.1784 -0.0485
 1761TIP3    H1 5247   2.275   3.492   4.788  0.3244 -1.6781  1.0555
 1761TIP3    H2 5248   2.187   3.597   4.851  0.7370  0.8195 -2.2549
 1762TIP3   OH2 5249   6.013   1.781   0.254  0.0064 -0.0838  0.0925
 1762TIP3    H1 5250   6.037   1.774   0.346 -0.0670  0.7216  0.1749
 1762TIP3    H2 5251   6.090   1.749   0.207  0.2455  0.0067  0.4185
 1763TIP3   OH2 5252   1.689   0.870   3.813  0.2248  0.3937  0.4916
 1763TIP3    H1 5253   1.731   0.784   3.814  2.0652  1.2606  1.1757
 1763TIP3    H2 5254   1.632   0.867   3.736  2.7068 -0.3386 -1.4557
 1764TIP3   OH2 5255   1.976   5.453   3.407 -0.5055 -0.2162 -0.4130
 1764TIP3    H1 5256   2.024   5.429   3.327  0.5840  0.8882 -0.1222
 1764TIP3    H2 5257   1.995   5.546   3.419  1.2455 -0.8224  2.3905
 1765TIP3   OH2 5258   7.127   2.226   2.147  0.3227  0.0367 -0.2406
 1765TIP3    H1 5259   7.129   2.318   2.172  0.4389  0.0275 -0.2136
 1765TIP3    H2 5260   7.212   2.210   2.106  0.1227  0.0563 -0.6676
 1766TIP3   OH2 5261   5.045   6.582   4.381 -0.0521  0.0641  0.1029
 1766TIP3    H1 5262   5.084   6.500   4.411 -1.0741  0.3674  2.4309
 1766TIP3    H2 5263   5.117   6.645   4.386  1.3161 -0.9225 -3.5869
 1767TIP3   OH2 5264   2.873   0.601   5.371 -0.9129 -0.6253  0.3798
 1767TIP3    H1 5265   2.934   0.621   5.301 -1.0169 -0.5977  0.2967
 1767TIP3    H2 5266   2.865   0.683   5.420  0.5053 -1.1090  1.4722
 1768TIP3   OH2 5267   4.893   2.706   5.754  0.3701 -0.6876  0.1196
 1768TIP3    H1 5268   4.962   2.695   5.820  0.2708 -0.5261  0.2509
 1768TIP3    H2 5269   4.848   2.621   5.752  0.3274 -0.6678  0.3095
 1769TIP3   OH2 5270   3.108   2.718   4.584 -0.1914 -0.3619 -0.0439
 1769TIP3    H1 5271   3.084   2.627   4.564  0.4149 -0.7456  0.8895
 1769TIP3    H2 5272   3.025   2.766   4.579 -1.0383 -1.4495  2.0028
 1770TIP3   OH2 5273   2.083   6.513   4.564  0.7299 -0.5152  0.3870
 1770TIP3    H1 5274   2.080   6.572   4.640 -0.0653 -0.4662  0.3342
 1770TIP3    H2 5275   2.173   6.518   4.533  1.0045 -0.3469  1.1852
 1771TIP3   OH2 5276   3.200   5.426   5.633 -0.3114  0.2951 -0.6490
 1771TIP3    H1 5277   3.172   5.351   5.580 -1.0942  0.1287 -0.0271
 1771TIP3    H2 5278   3.123   5.447   5.686  0.6108  0.0970  0.8303
 1772TIP3   OH2 5279   5.184   2.379   5.712  0.0216  0.2000  0.1461
 1772TIP3    H1 5280   5.100   2.364   5.669  1.3912  1.5469 -3.4113
 1772TIP3    H2 5281   5.247   2.331   5.658  1.8880  1.9386  0.6589
 1773TIP3   OH2 5282   0.695   1.167   2.723  0.1096 -0.2922 -0.4653
 1773TIP3    H1 5283   0.683   1.199   2.634  1.6830  0.9821 -0.2579
 1773TIP3    H2 5284   0.779   1.121   2.722  0.1813 -0.2009  0.3752
 1774TIP3   OH2 5285   1.220   5.396   2.763 -0.5972 -0.0311  0.0629
 1774TIP3    H1 5286   1.169   5.369   2.687 -2.6060  0.5151  1.1551
 1774TIP3    H2 5287   1.233   5.316   2.813  1.0727 -0.4671 -0.9902
 1775TIP3   OH2 5288   1.828   2.038   2.666 -0.2271  0.5351 -0.0454
 1775TIP3    H1 5289   1.805   2.039   2.759 -0.1489  0.4990 -0.0262
 1775TIP3    H2 5290   1.914   2.081   2.662  0.1534 -0.2151 -0.0035
 1776TIP3   OH2 5291   1.292   6.148   0.077 -0.1082  0.2222 -0.6452
 1776TIP3    H1 5292   1.197   6.154   0.074 -0.0329  1.6554 -0.7843
 1776TIP3    H2 5293   1.314   6.078   0.015 -1.1484 -1.5250  0.8629
 1777TIP3   OH2 5294   4.690   0.969   1.003  0.2732  0.9479 -0.0143
 1777TIP3    H1 5295   4.600   0.978   1.033  0.0266 -0.1237 -0.4000
 1777TIP3    H2 5296   4.707   0.875   1.003  1.3676  1.1280 -0.0231
 1778TIP3   OH2 5297   1.612   4.744   1.481  0.5309  0.6202  0.4780
 1778TIP3    H1 5298   1.634   4.654   1.504  0.5945  0.8886  1.4849
 1778TIP3    H2 5299   1.669   4.798   1.535  1.7577  1.2801 -1.3608
 1779TIP3   OH2 5300   5.269   3.772   3.939 -0.6765 -0.4596  0.3154
 1779TIP3    H1 5301   5.294   3.861   3.965 -2.4428  1.2757 -3.2572
 1779TIP3    H2 5302   5.201   3.747   4.002 -1.0444  1.2332  0.6416
 1780TIP3   OH2 5303   3.192   5.065   2.974  0.3171  0.1115  0.0056
 1780TIP3    H1 5304   3.115   5.039   3.024 -0.7086  0.2543 -1.4380
 1780TIP3    H2 5305   3.232   4.982   2.947 -0.5731  0.0126 -1.0569
 1781TIP3   OH2 5306   1.296   0.166   3.327  0.1165 -0.3789  0.1650
 1781TIP3    H1 5307   1.221   0.127   3.373  0.0542 -0.5283 -0.0575
 1781TIP3    H2 5308   1.337   0.223   3.392 -2.0408  2.2348 -0.5533
 1782TIP3   OH2 5309   2.246   6.015   2.224 -0.6139 -0.5042  0.9793
 1782TIP3    H1 5310   2.227   5.929   2.185 -0.2568 -0.3320  0.4139
 1782TIP3    H2 5311   2.325   6.000   2.276  0.2407 -0.2227 -0.2032
 1783TIP3   OH2 5312   5.455   5.303   2.376 -0.4089  0.8143  0.3544
 1783TIP3    H1 5313   5.498   5.388   2.386 -0.2351  0.6759  0.8017
 1783TIP3    H2 5314   5.411   5.289   2.460 -1.3786  0.9819 -0.1111
 1784TIP3   OH2 5315   2.855   6.148   3.165  0.3452 -0.1758 -0.7639
 1784TIP3    H1 5316   2.868   6.214   3.098 -0.1179 -0.2580 -0.9434
 1784TIP3    H2 5317   2.806   6.078   3.121  0.6742 -0.5609 -0.5323
 1785TIP3   OH2 5318   2.493   1.421   4.168 -0.5581  0.8950 -0.6879
 1785TIP3    H1 5319   2.401   1.447   4.161 -0.6418  0.6798 -0.3818
 1785TIP3    H2 5320   2.497   1.334   4.130 -0.8339  0.1252  0.9780
 1786TIP3   OH2 5321   3.028   2.630   5.327 -0.3652  0.1318 -0.2568
 1786TIP3    H1 5322   2.954   2.586   5.287 -0.2284  1.0408 -1.5662
 1786TIP3    H2 5323   3.057   2.694   5.262  0.4689  1.0110  0.9167
 1787TIP3   OH2 5324   4.656   0.916   0.449  0.0173  0.7173  0.2023
 1787TIP3    H1 5325   4.610   0.963   0.379 -0.7771 -0.2614  0.0471
 1787TIP3    H2 5326   4.602   0.932   0.527  0.0663  0.5432  0.2711
 1788TIP3   OH2 5327   1.316   4.404   5.182  0.6290 -0.7746 -0.4405
 1788TIP3    H1 5328   1.377   4.439   5.247 -0.5763  0.7451 -0.0989
 1788TIP3    H2 5329   1.360   4.417   5.098 -0.3769  3.2136 -0.5401
 1789TIP3   OH2 5330   7.155   5.595   1.078 -0.2819 -0.1160 -0.4874
 1789TIP3    H1 5331   7.108   5.667   1.036  0.3609  2.2148  2.4939
 1789TIP3    H2 5332   7.236   5.586   1.027 -1.1274  0.0603 -1.9164
 1790TIP3   OH2 5333   3.988   3.430   3.771 -0.4877  0.4222 -0.2709
 1790TIP3    H1 5334   3.997   3.517   3.731 -0.5087  0.2998 -0.5427
 1790TIP3    H2 5335   4.009   3.444   3.863  1.7756  0.3003 -0.7221
 1791TIP3   OH2 5336   2.092   6.629   2.458  0.3533 -0.3619  0.1556
 1791TIP3    H1 5337   2.144   6.709   2.469  0.1777 -0.0612 -1.1182
 1791TIP3    H2 5338   2.002   6.660   2.453  0.1644 -0.7647  0.9242
 1792TIP3   OH2 5339   6.403   5.065   5.710 -1.1231 -0.3903  0.1067
 1792TIP3    H1 5340   6.494   5.095   5.713 -1.2534 -0.0268  0.5251
 1792TIP3    H2 5341   6.405   4.988   5.653 -0.4146 -0.8732  0.7619
 1793TIP3   OH2 5342   2.532   6.134   0.379 -0.5319 -0.3812  0.3066
 1793TIP3    H1 5343   2.495   6.194   0.315  0.5159 -0.2087 -0.1640
 1793TIP3    H2 5344   2.561   6.058   0.327  2.2692  0.6436  0.1793
 1794TIP3   OH2 5345   1.364   2.674   1.905 -0.1250  0.3452  0.0452
 1794TIP3    H1 5346   1.375   2.609   1.975 -1.3085 -0.4728 -0.4892
 1794TIP3    H2 5347   1.358   2.757   1.952 -0.6707 -0.1609  0.9178
 1795TIP3   OH2 5348   4.137   3.710   2.504 -0.0347  0.0580  0.3196
 1795TIP3    H1 5349   4.231   3.712   2.489  0.0286 -0.9151  0.5210
 1795TIP3    H2 5350   4.125   3.652   2.578 -0.8135  0.0070  0.1691
 1796TIP3   OH2 5351   4.467   1.519   3.397  0.2709  0.1027 -0.3904
 1796TIP3    H1 5352   4.519   1.579   3.343 -0.5479  0.7957 -0.4338
 1796TIP3    H2 5353   4.412   1.472   3.334  0.8425 -0.6390 -0.3461
 1797TIP3   OH2 5354   1.233   3.228   4.291 -0.2959 -0.1886  0.2783
 1797TIP3    H1 5355   1.276   3.302   4.248 -1.7284  0.0877 -0.7444
 1797TIP3    H2 5356   1.218   3.258   4.381  0.6454  0.1119  0.3428
 1798TIP3   OH2 5357   3.450   1.110   4.384 -0.4237  0.5829  0.4647
 1798TIP3    H1 5358   3.410   1.068   4.461 -0.5282  0.1608  0.1810
 1798TIP3    H2 5359   3.472   1.038   4.326 -0.6595  0.9252 -0.0574
 1799TIP3   OH2 5360   6.058   5.122   0.299  0.3057 -0.1178 -0.2705
 1799TIP3    H1 5361   6.000   5.143   0.372 -0.3799 -3.1653  0.1931
 1799TIP3    H2 5362   5.999   5.095   0.228  1.0491  0.3579 -1.0863
 1800TIP3   OH2 5363   0.718   2.443   1.410  0.2364  0.1050 -0.2272
 1800TIP3    H1 5364   0.788   2.507   1.415  1.1575 -0.8218 -0.9132
 1800TIP3    H2 5365   0.671   2.464   1.330 -0.7673  1.1884  0.6090
 1801TIP3   OH2 5366   1.855   4.135   5.113 -0.1542  0.2985 -0.4219
 1801TIP3    H1 5367   1.906   4.123   5.033  2.1241  1.1559  0.7944
 1801TIP3    H2 5368   1.796   4.060   5.116  0.3197 -0.2141 -2.4381
 1802TIP3   OH2 5369   5.358   5.793   3.005  0.2833  0.4527 -0.1840
 1802TIP3    H1 5370   5.344   5.707   3.045  0.9756  0.6387  0.4894
 1802TIP3    H2 5371   5.358   5.854   3.079 -2.5990  1.3849 -0.8224
 1803TIP3   OH2 5372   3.473   6.154   0.356 -0.1772  0.0836  0.1661
 1803TIP3    H1 5373   3.562   6.166   0.322 -0.5775 -0.1682 -0.9990
 1803TIP3    H2 5374   3.482   6.170   0.450  1.1221 -0.0511  0.0900
 1804TIP3   OH2 5375   5.441   6.213   3.114  0.4726 -0.3833  0.1826
 1804TIP3    H1 5376   5.378   6.148   3.144 -0.8803  0.5156 -0.6031
 1804TIP3    H2 5377   5.388   6.279   3.069  2.0801 -0.2207 -1.6125
 1805TIP3   OH2 5378   2.885   1.147   5.140 -0.4346  0.3572  0.1900
 1805TIP3    H1 5379   2.869   1.115   5.051  0.2041 -1.5739  0.7293
 1805TIP3    H2 5380   2.838   1.086   5.196 -0.3277  1.1975  1.2255
 1806TIP3   OH2 5381   0.635   3.941   1.118  0.3701  0.2008  0.7058
 1806TIP3    H1 5382   0.719   3.978   1.091  0.3182 -0.0751  0.1414
 1806TIP3    H2 5383   0.657   3.876   1.184  0.6164  0.0276  0.4536
 1807TIP3   OH2 5384   5.653   5.231   1.429  0.1831  0.0182  0.3119
 1807TIP3    H1 5385   5.582   5.282   1.468  0.2052 -0.6735  1.2930
 1807TIP3    H2 5386   5.726   5.293   1.422 -0.5006  0.7400 -0.7335
 1808TIP3   OH2 5387   4.552   1.066   3.019  0.1044  0.2147 -0.6137
 1808TIP3    H1 5388   4.582   1.001   3.083  0.4227  0.1828 -0.7972
 1808TIP3    H2 5389   4.624   1.127   3.011  0.3698 -0.2048 -1.5162
 1809TIP3   OH2 5390   0.009   1.809   1.018 -0.4502  0.0379 -0.1336
 1809TIP3    H1 5391   0.042   1.862   0.946 -0.5227  2.2478  1.3493
 1809TIP3    H2 5392   0.033   1.858   1.097 -1.3071 -1.7292  1.3083
 1810TIP3   OH2 5393   1.662   5.845   3.535 -0.3632  0.3412 -0.3235
 1810TIP3    H1 5394   1.602   5.772   3.551  3.0011 -2.4978  0.8286
 1810TIP3    H2 5395   1.696   5.867   3.622  0.0073  2.1603 -0.8819
 1811TIP3   OH2 5396   1.077  -0.026   4.088  0.0535  0.5374 -0.2513
 1811TIP3    H1 5397   1.125   0.013   4.161 -0.9211  1.0602  0.1269
 1811TIP3    H2 5398   1.071   0.045   4.024  0.6821  0.1561 -0.7465
 1812TIP3   OH2 5399   1.950   1.355   4.242  0.5399  0.1824  0.0706
 1812TIP3    H1 5400   1.861   1.369   4.275  0.0767  0.4529 -1.2186
 1812TIP3    H2 5401   1.987   1.287   4.299 -1.4226 -1.8745 -0.9662
 1813TIP3   OH2 5402   5.509   5.161   0.662  0.5896 -0.1060  0.3271
 1813TIP3    H1 5403   5.524   5.174   0.756 -0.6138  0.6223  0.4449
 1813TIP3    H2 5404   5.472   5.073   0.656  3.0558 -1.2178  0.2143
 1814TIP3   OH2 5405   1.331   3.100   1.395 -1.4692  0.0030 -0.5101
 1814TIP3    H1 5406   1.311   3.114   1.487  1.1236  0.7741  0.0158
 1814TIP3    H2 5407   1.347   3.006   1.388  0.4375  0.2116  0.3739
 1815TIP3   OH2 5408   4.752   0.963   5.109 -0.2780 -0.2043 -0.0197
 1815TIP3    H1 5409   4.789   1.051   5.121  0.4169 -0.6777  1.7247
 1815TIP3    H2 5410   4.659   0.979   5.092  0.0203  0.8943 -0.7340
 1816TIP3   OH2 5411   5.138   5.026   3.565  0.0751  0.2540 -0.1205
 1816TIP3    H1 5412   5.078   5.075   3.622 -0.3959 -1.0911  0.6117
 1816TIP3    H2 5413   5.153   4.944   3.613  3.4362  0.9674  0.2671
 1817TIP3   OH2 5414   4.182   4.849   2.409  0.2093 -0.0227 -0.3058
 1817TIP3    H1 5415   4.209   4.815   2.324  1.6100 -0.9757  0.4793
 1817TIP3    H2 5416   4.260   4.840   2.464 -0.6522  0.6186  1.0719
 1818TIP3   OH2 5417   0.996   5.552   4.876 -0.0026  0.2352  0.3719
 1818TIP3    H1 5418   1.045   5.546   4.958  0.0940 -0.2103  0.2843
 1818TIP3    H2 5419   0.913   5.508   4.893  0.0071  0.1643  0.2376
 1819TIP3   OH2 5420   5.482   6.055   0.267  0.1292  0.1237 -0.4212
 1819TIP3    H1 5421   5.510   6.051   0.359  0.3900 -1.4731 -0.5325
 1819TIP3    H2 5422   5.406   6.113   0.267  0.8189  1.0821  0.5986
 1820TIP3   OH2 5423   6.806   5.657   2.372 -0.4891  0.0262 -0.4192
 1820TIP3    H1 5424   6.792   5.663   2.466 -0.1406  1.5159 -0.4353
 1820TIP3    H2 5425   6.777   5.742   2.338  0.5462 -0.0197 -1.4859
 1821TIP3   OH2 5426   0.978   2.719   4.502  0.4217 -0.0482 -0.4929
 1821TIP3    H1 5427   0.988   2.632   4.465 -1.0499  0.7554 -2.9996
 1821TIP3    H2 5428   1.023   2.777   4.441 -0.4973  1.1572 -0.0714
 1822TIP3   OH2 5429   6.551   2.422   5.503  0.0346 -0.2971 -0.0546
 1822TIP3    H1 5430   6.646   2.414   5.512 -0.0648 -0.2555  1.2337
 1822TIP3    H2 5431   6.532   2.387   5.416  1.3251  0.5508 -0.7192
 1823TIP3   OH2 5432   5.770   6.441   3.226  0.0940  0.1039 -0.1925
 1823TIP3    H1 5433   5.741   6.522   3.269  1.6558 -0.4115  2.0475
 1823TIP3    H2 5434   5.697   6.381   3.236 -0.3114  0.6200 -0.0109
 1824TIP3   OH2 5435   1.854   6.809   2.742 -0.7398  0.2385 -0.2926
 1824TIP3    H1 5436   1.800   6.792   2.819 -1.0853 -0.1268 -0.6100
 1824TIP3    H2 5437   1.879   6.722   2.711 -0.1033  0.4000 -0.2453
 1825TIP3   OH2 5438   6.705   3.201   0.744  0.1914 -0.5989  0.0207
 1825TIP3    H1 5439   6.688   3.294   0.753  0.5211 -0.6422  1.2460
 1825TIP3    H2 5440   6.703   3.185   0.650 -0.7056  0.4776 -0.1598
 1826TIP3   OH2 5441   1.875   4.699   5.052  0.2155 -0.7109 -0.7506
 1826TIP3    H1 5442   1.842   4.609   5.051 -0.9607 -0.3845  1.5041
 1826TIP3    H2 5443   1.925   4.705   5.133  0.5758  0.5840 -1.0440
 1827TIP3   OH2 5444   2.015   4.351   2.115  0.0743  0.1346 -0.3367
 1827TIP3    H1 5445   2.074   4.422   2.144  0.0153 -0.3734  1.1232
 1827TIP3    H2 5446   1.960   4.334   2.192 -1.5549  0.1524 -1.4667
 1828TIP3   OH2 5447   5.041   5.226   5.206  0.5978 -0.3969  0.0201
 1828TIP3    H1 5448   4.987   5.249   5.131 -0.0838  0.5693  0.7729
 1828TIP3    H2 5449   4.981   5.232   5.281  2.1404  2.9624  1.1946
 1829TIP3   OH2 5450   6.718   5.263   5.301 -0.0527 -0.2024  0.0359
 1829TIP3    H1 5451   6.807   5.285   5.329  0.0868 -0.1438 -0.4400
 1829TIP3    H2 5452   6.667   5.263   5.381 -0.3981  3.3042 -0.0310
 1830TIP3   OH2 5453   5.450   4.879   0.642 -0.4606 -0.6938 -0.7107
 1830TIP3    H1 5454   5.429   4.845   0.555  0.8329 -1.5396 -0.7211
 1830TIP3    H2 5455   5.407   4.818   0.702 -1.3933 -0.0828 -0.7383
 1831TIP3   OH2 5456   6.589   1.398   3.787 -0.0143 -0.1873 -0.0407
 1831TIP3    H1 5457   6.678   1.427   3.771  0.1557 -0.6245  0.0774
 1831TIP3    H2 5458   6.561   1.446   3.865 -0.3022  0.8142 -0.7464
 1832TIP3   OH2 5459   1.252   3.298   4.559 -0.5347 -0.1846  0.4588
 1832TIP3    H1 5460   1.217   3.370   4.610 -0.6197  0.1621 -0.0868
 1832TIP3    H2 5461   1.251   3.223   4.619 -2.0237 -0.1454  0.5096
 1833TIP3   OH2 5462   0.343   5.180   1.859  0.5965 -0.4078  0.5260
 1833TIP3    H1 5463   0.429   5.218   1.842  0.6536 -0.1478  1.3638
 1833TIP3    H2 5464   0.281   5.246   1.829  0.6960 -0.0554  1.0732
 1834TIP3   OH2 5465   6.434   3.007   3.272 -0.3793  0.1692  0.0602
 1834TIP3    H1 5466   6.465   2.924   3.237 -0.6875  0.5058 -1.0413
 1834TIP3    H2 5467   6.339   3.000   3.272 -0.4416  0.7932 -0.7796
 1835TIP3   OH2 5468   0.771   4.743   5.238 -0.4401 -0.0638 -0.0860
 1835TIP3    H1 5469   0.729   4.663   5.269 -0.3139 -0.3236 -0.5635
 1835TIP3    H2 5470   0.746   4.810   5.301 -1.5045 -0.2284 -0.3145
 1836TIP3   OH2 5471   1.720   6.100   3.469 -0.2944 -0.3470 -0.0400
 1836TIP3    H1 5472   1.696   6.162   3.400  2.8460  0.2112 -0.7773
 1836TIP3    H2 5473   1.673   6.020   3.447 -0.8428  0.3954 -1.7373
 1837TIP3   OH2 5474   2.497   5.446   2.096 -0.5909  0.0714  0.3590
 1837TIP3    H1 5475   2.426   5.389   2.064 -0.6682  0.3558  0.0123
 1837TIP3    H2 5476   2.495   5.521   2.036 -0.0013  0.0865  0.3574
 1838TIP3   OH2 5477   2.611   0.011   4.011 -0.1291 -0.3637  0.3232
 1838TIP3    H1 5478   2.646   0.024   4.099  0.3916 -0.5584  0.1450
 1838TIP3    H2 5479   2.546   0.080   4.001 -1.0507 -1.0536  1.3076
 1839TIP3   OH2 5480   5.025   2.578   0.654  0.4245  0.2002 -0.7842
 1839TIP3    H1 5481   5.059   2.496   0.690  1.3003  0.9453  0.1420
 1839TIP3    H2 5482   5.058   2.646   0.712 -0.3137  1.2256 -1.5124
 1840TIP3   OH2 5483   3.942   5.923   0.553 -0.2972  0.1049  0.4782
 1840TIP3    H1 5484   3.903   6.001   0.514  0.2831 -0.5486 -1.5926
 1840TIP3    H2 5485   3.872   5.882   0.603 -1.1300  0.9663  0.0386
 1841TIP3   OH2 5486   6.520   0.579   4.954 -0.6360 -0.0268 -0.6765
 1841TIP3    H1 5487   6.432   0.618   4.957 -1.2046 -1.2017 -1.1624
 1841TIP3    H2 5488   6.508   0.497   4.905  0.1399 -1.6571  1.6744
 1842TIP3   OH2 5489   0.744   0.447   0.111  0.2851 -0.4228 -0.0397
 1842TIP3    H1 5490   0.680   0.518   0.115  0.9063  0.0968  0.7924
 1842TIP3    H2 5491   0.828   0.490   0.096  0.6247 -0.9965  0.1690
 1843TIP3   OH2 5492   1.070   6.119   0.993  0.2565 -0.1478 -0.1578
 1843TIP3    H1 5493   1.095   6.207   1.019 -2.6510  0.5973  0.4419
 1843TIP3    H2 5494   1.149   6.067   1.006  1.6782  2.0808  0.7296
 1844TIP3   OH2 5495   3.297   1.174   2.072 -0.6917 -0.2839 -0.1842
 1844TIP3    H1 5496   3.283   1.140   2.160  0.8713  0.2530  0.3185
 1844TIP3    H2 5497   3.393   1.181   2.064 -0.8541  2.1042 -0.9488
 1845TIP3   OH2 5498   3.010   6.516   1.028  0.0226 -0.2636 -0.0114
 1845TIP3    H1 5499   3.079   6.523   1.095 -0.4827 -0.1483  0.5026
 1845TIP3    H2 5500   2.993   6.422   1.022 -0.4307 -0.2229  0.5454
 1846TIP3   OH2 5501   6.140   4.272   1.054  0.5956  0.5512  0.0329
 1846TIP3    H1 5502   6.052   4.310   1.050 -0.5575 -1.6736  1.8959
 1846TIP3    H2 5503   6.140   4.207   0.984 -0.9398 -2.4516  2.5859
 1847TIP3   OH2 5504   1.398   5.645   1.894 -0.3498  0.1314 -0.6787
 1847TIP3    H1 5505   1.376   5.642   1.801  0.2287 -0.4035 -0.8054
 1847TIP3    H2 5506   1.331   5.701   1.933 -0.2001  0.9216 -1.5313
 1848TIP3   OH2 5507   5.501   5.661   0.263  0.1480 -0.2610 -0.9257
 1848TIP3    H1 5508   5.552   5.683   0.185  1.4426 -0.8430 -0.2675
 1848TIP3    H2 5509   5.566   5.653   0.333 -0.8445 -1.0584 -0.0605
 1849TIP3   OH2 5510   5.119   0.498   5.542  0.0112  0.5648 -0.1328
 1849TIP3    H1 5511   5.111   0.546   5.625  0.4201  0.0022  0.2407
 1849TIP3    H2 5512   5.179   0.426   5.562 -0.2780  0.1345 -0.7902
 1850TIP3   OH2 5513   4.946   6.657   1.113 -0.1639  0.7179  0.1468
 1850TIP3    H1 5514   4.850   6.655   1.114 -0.1986 -0.7647 -1.1451
 1850TIP3    H2 5515   4.969   6.632   1.023  1.4470 -0.7363  0.9107
 1851TIP3   OH2 5516   4.921   4.707   4.277  0.4820 -0.0948 -0.2230
 1851TIP3    H1 5517   5.005   4.742   4.246  2.0406 -1.6017  2.0214
 1851TIP3    H2 5518   4.945   4.629   4.327 -2.1499  0.1813  1.6241
 1852TIP3   OH2 5519   0.281   0.167   5.389  0.3827  0.9655  0.3529
 1852TIP3    H1 5520   0.339   0.242   5.405 -0.4828  1.6348  0.4173
 1852TIP3    H2 5521   0.233   0.190   5.310  0.8605 -0.0049 -0.2443
 1853TIP3   OH2 5522   6.708   5.795   2.789 -0.3613  0.1516 -0.6327
 1853TIP3    H1 5523   6.687   5.875   2.742 -1.2402 -0.6127 -1.5894
 1853TIP3    H2 5524   6.746   5.737   2.722  0.0047 -0.3345 -0.0158
 1854TIP3   OH2 5525   5.516   4.759   1.073 -0.1236  0.3124 -0.5230
 1854TIP3    H1 5526   5.493   4.846   1.106 -2.6523 -0.3483 -0.3203
 1854TIP3    H2 5527   5.435   4.726   1.035  0.6068 -2.1887 -0.0871
 1855TIP3   OH2 5528   6.936   3.531   2.570 -0.0665  0.1270 -0.1194
 1855TIP3    H1 5529   6.872   3.549   2.639 -1.6601 -1.2670 -1.1429
 1855TIP3    H2 5530   6.914   3.593   2.501  1.0596  1.0309  0.3073
 1856TIP3   OH2 5531   5.795   0.971   2.455  0.4396  0.1407 -0.0343
 1856TIP3    H1 5532   5.739   1.021   2.396  0.7541  0.8601  0.2612
 1856TIP3    H2 5533   5.803   1.026   2.533  0.3080 -0.6394  0.5473
 1857TIP3   OH2 5534   6.761   6.075   4.719 -0.0654  0.3454  0.2988
 1857TIP3    H1 5535   6.695   6.064   4.651 -0.8857 -0.4520  1.2044
 1857TIP3    H2 5536   6.716   6.121   4.790 -0.2666 -1.8961  1.7281
 1858TIP3   OH2 5537   0.122   2.696   3.946 -0.7190 -0.1102  0.5029
 1858TIP3    H1 5538   0.117   2.746   3.864  1.2729 -2.0227 -0.8739
 1858TIP3    H2 5539   0.149   2.761   4.011  0.8629  0.8580 -1.0216
 1859TIP3   OH2 5540   7.047   3.033   0.362 -0.1584 -0.3239  0.6561
 1859TIP3    H1 5541   7.116   2.981   0.321 -1.4210 -0.6872 -1.1115
 1859TIP3    H2 5542   7.083   3.121   0.367 -0.3384  0.0050 -2.4138
 1860TIP3   OH2 5543   5.901   5.537   1.965  0.1556  0.3113 -0.3858
 1860TIP3    H1 5544   5.982   5.587   1.978  0.3222 -0.0036 -0.2075
 1860TIP3    H2 5545   5.832   5.604   1.962  0.2972  0.5089  0.5549
 1861TIP3   OH2 5546   2.997   4.735   1.456 -0.2103 -0.2964  0.3546
 1861TIP3    H1 5547   2.928   4.763   1.395 -0.0806 -0.2651  0.2216
 1861TIP3    H2 5548   3.057   4.810   1.460 -1.0252  0.3324  1.7265
 1862TIP3   OH2 5549   1.711   6.235   5.386  0.3762 -0.3137 -0.4331
 1862TIP3    H1 5550   1.784   6.180   5.412  1.0444  0.5179 -0.5025
 1862TIP3    H2 5551   1.654   6.177   5.335  0.0269 -1.4466  1.1927
 1863TIP3   OH2 5552   1.375   4.605   0.596 -0.1915 -0.5476  0.4474
 1863TIP3    H1 5553   1.425   4.642   0.523 -1.0508 -0.5914 -0.1795
 1863TIP3    H2 5554   1.363   4.679   0.656  3.4511 -1.2140  2.3127
 1864TIP3   OH2 5555   4.146   6.025   0.753  0.0141  0.3718  0.1282
 1864TIP3    H1 5556   4.083   5.990   0.690 -0.3425  0.2992  0.5166
 1864TIP3    H2 5557   4.225   5.973   0.740  0.0968  0.6682 -0.5749
 1865TIP3   OH2 5558   4.385   1.939   4.663 -0.1555 -0.3157 -0.2443
 1865TIP3    H1 5559   4.405   2.021   4.617 -0.2110 -0.5821 -0.7490
 1865TIP3    H2 5560   4.290   1.940   4.675 -0.2790 -0.7593 -1.1295
 1866TIP3   OH2 5561   4.988   5.068   2.314  0.0395 -0.8915  0.3861
 1866TIP3    H1 5562   4.929   5.121   2.369 -0.3958 -0.1275 -0.7894
 1866TIP3    H2 5563   5.053   5.130   2.282 -0.5234 -1.0030 -1.0734
 1867TIP3   OH2 5564   5.779   0.829   3.765  0.5138  0.0162 -0.0302
 1867TIP3    H1 5565   5.753   0.882   3.689  2.1624 -1.4650 -1.7162
 1867TIP3    H2 5566   5.862   0.867   3.793  1.6492 -1.4768 -1.1788
 1868TIP3   OH2 5567   0.208   3.690   2.695  0.9576 -0.2085 -0.1683
 1868TIP3    H1 5568   0.160   3.756   2.646  1.2180  0.4975  0.5016
 1868TIP3    H2 5569   0.236   3.626   2.629 -2.2527 -1.5522 -0.3964
 1869TIP3   OH2 5570   5.109   1.775   4.816  0.0494  0.3885  0.2535
 1869TIP3    H1 5571   5.178   1.841   4.819 -0.3668  0.8784 -0.5124
 1869TIP3    H2 5572   5.044   1.811   4.755  0.1557 -1.0485 -0.7622
 1870TIP3   OH2 5573   2.300   1.511   2.981 -0.1266  0.3379  0.0291
 1870TIP3    H1 5574   2.351   1.561   3.045 -0.7934  1.2978 -0.1764
 1870TIP3    H2 5575   2.226   1.477   3.031  0.5333 -0.8411  0.2667
 1871TIP3   OH2 5576   7.203   6.724   1.465  0.0274  0.0902  0.6043
 1871TIP3    H1 5577   7.127   6.742   1.410  0.5233 -1.2745 -0.5996
 1871TIP3    H2 5578   7.231   6.636   1.439  3.1048  1.2113 -0.2984
 1872TIP3   OH2 5579   1.668   2.229   3.038  0.2017  0.5338 -0.2641
 1872TIP3    H1 5580   1.644   2.278   2.960  0.0833  0.9655  0.0366
 1872TIP3    H2 5581   1.654   2.138   3.015  0.8793  0.6050 -0.9932
 1873TIP3   OH2 5582   3.626   3.528   2.474  0.3539  0.4387 -0.3289
 1873TIP3    H1 5583   3.639   3.610   2.522 -0.3473  0.6312 -0.4657
 1873TIP3    H2 5584   3.654   3.460   2.536  0.3756  0.7437 -0.0024
 1874TIP3   OH2 5585   2.282   3.660   3.248  0.3096 -0.0493 -0.6653
 1874TIP3    H1 5586   2.213   3.695   3.305 -0.3450 -0.6866 -1.0559
 1874TIP3    H2 5587   2.300   3.731   3.186 -0.6728 -0.2221 -1.1600
 1875TIP3   OH2 5588   6.014   2.912   3.843  0.0878 -0.2351 -0.1725
 1875TIP3    H1 5589   6.021   2.994   3.793  0.6507 -0.2206 -0.0819
 1875TIP3    H2 5590   6.066   2.928   3.922 -1.7530  0.1744  1.0256
 1876TIP3   OH2 5591   6.311   6.463   3.950 -0.0213  0.0561  0.3433
 1876TIP3    H1 5592   6.227   6.451   3.907  0.1500  1.7370 -0.5147
 1876TIP3    H2 5593   6.353   6.377   3.946 -1.5378 -0.7136  0.4825
 1877TIP3   OH2 5594   0.069   3.901   0.085  0.1480 -0.0532  0.3353
 1877TIP3    H1 5595   0.088   3.966   0.018  1.1926  0.2628  0.9114
 1877TIP3    H2 5596   0.059   3.952   0.166  0.5044 -0.5541  0.7046
 1878TIP3   OH2 5597   0.093   0.285   5.083  0.4960 -0.2779  0.0143
 1878TIP3    H1 5598   0.021   0.309   5.024 -0.2040 -0.7599  0.6547
 1878TIP3    H2 5599   0.069   0.199   5.117  0.5255  0.2872  1.5443
 1879TIP3   OH2 5600   6.087   4.171   2.339  0.1816 -0.1689  0.5015
 1879TIP3    H1 5601   6.020   4.238   2.351  0.4489  0.5247 -1.4388
 1879TIP3    H2 5602   6.054   4.118   2.266  0.1827 -1.9168  1.7213
 1880TIP3   OH2 5603   1.670   5.627   3.225 -0.0541 -0.8825  0.0892
 1880TIP3    H1 5604   1.706   5.715   3.237 -1.6898 -0.2965  1.1434
 1880TIP3    H2 5605   1.645   5.623   3.133  0.1533 -0.2935  0.0059
 1881TIP3   OH2 5606   3.267   3.437   0.775  0.1842 -0.2804  0.2864
 1881TIP3    H1 5607   3.272   3.457   0.681  0.2796  0.4841  0.4491
 1881TIP3    H2 5608   3.274   3.522   0.818  1.7112 -0.7651  1.0561
 1882TIP3   OH2 5609   3.360   2.030   5.455 -0.1383  0.8401 -0.3885
 1882TIP3    H1 5610   3.415   2.002   5.382  1.6699  2.9598  0.0514
 1882TIP3    H2 5611   3.410   2.005   5.533  0.1888  2.5983  0.0196
 1883TIP3   OH2 5612   1.666   1.038   3.321  0.4584  0.0256 -0.2943
 1883TIP3    H1 5613   1.708   0.955   3.343 -0.0745 -1.0708 -3.0676
 1883TIP3    H2 5614   1.737   1.094   3.291  0.6994  0.3276  0.7864
 1884TIP3   OH2 5615   5.377   0.378   1.852 -0.7022  0.1155  0.4025
 1884TIP3    H1 5616   5.333   0.410   1.773  0.1165  0.6600  0.1600
 1884TIP3    H2 5617   5.467   0.408   1.843 -0.5624  0.0388  1.4705
 1885TIP3   OH2 5618   6.001   4.521   5.759 -0.0924 -0.1374  0.0913
 1885TIP3    H1 5619   5.943   4.571   5.816  0.5669  1.5535 -0.6195
 1885TIP3    H2 5620   5.946   4.498   5.684 -0.3771 -0.3983  0.3763
 1886TIP3   OH2 5621   6.574   1.709   1.662  0.3975  0.7808 -0.4382
 1886TIP3    H1 5622   6.613   1.637   1.613  1.6823  1.1052  0.0689
 1886TIP3    H2 5623   6.594   1.689   1.754 -1.4917  0.4616 -0.0401
 1887TIP3   OH2 5624   3.438   1.034   3.760 -0.2558 -0.4506  0.3893
 1887TIP3    H1 5625   3.355   1.024   3.714  0.3654  1.6174 -1.3539
 1887TIP3    H2 5626   3.460   0.946   3.791 -2.8312 -1.1105  0.4943
 1888TIP3   OH2 5627   3.694   4.286   2.573 -0.4104 -0.1735  0.3473
 1888TIP3    H1 5628   3.757   4.282   2.644 -1.6898 -2.2198  1.4422
 1888TIP3    H2 5629   3.617   4.328   2.611 -1.4006 -2.0194  0.4732
 1889TIP3   OH2 5630   6.702   3.144   3.225  0.3614 -0.2076  0.0771
 1889TIP3    H1 5631   6.744   3.116   3.306  0.9184  1.2532  0.3167
 1889TIP3    H2 5632   6.749   3.096   3.156  0.5085 -0.7353  0.5343
 1890TIP3   OH2 5633   3.154   1.122   4.939  0.2908  0.1235 -0.3845
 1890TIP3    H1 5634   3.072   1.091   4.900 -0.4903 -0.0956  1.3257
 1890TIP3    H2 5635   3.134   1.209   4.971  0.1821 -0.5661  1.5327
 1891TIP3   OH2 5636   3.108   3.200   2.607  0.6855  0.2429 -0.3847
 1891TIP3    H1 5637   3.196   3.183   2.573  0.8902  0.6760 -0.0766
 1891TIP3    H2 5638   3.092   3.128   2.667  0.5964 -0.1505 -0.8685
 1892TIP3   OH2 5639   2.486   5.200   3.968 -0.1686 -0.7361 -0.1541
 1892TIP3    H1 5640   2.446   5.129   4.018  0.3938 -0.6921  0.3690
 1892TIP3    H2 5641   2.446   5.280   4.002  0.0094 -0.7266  0.0350
 1893TIP3   OH2 5642   2.343   0.947   1.902 -0.4972 -0.5411  0.0199
 1893TIP3    H1 5643   2.328   0.935   1.808 -0.6291  0.3858 -0.0950
 1893TIP3    H2 5644   2.340   0.859   1.939 -0.4885 -0.9149 -0.8385
 1894TIP3   OH2 5645   7.184   4.910   4.008 -0.0024 -0.0692  0.0632
 1894TIP3    H1 5646   7.245   4.954   4.067  2.0960 -1.0931 -1.2269
 1894TIP3    H2 5647   7.106   4.894   4.061  0.6120  1.7979  1.6150
 1895TIP3   OH2 5648   3.279   5.833   1.039  0.7004 -0.0167  0.2088
 1895TIP3    H1 5649   3.258   5.746   1.075  2.4938 -0.1211  1.1315
 1895TIP3    H2 5650   3.334   5.815   0.963  0.5373  0.3120  0.0114
 1896TIP3   OH2 5651   3.621   5.724   1.157 -1.7306 -0.5392 -0.2867
 1896TIP3    H1 5652   3.569   5.804   1.160 -0.5793  0.2812 -1.2766
 1896TIP3    H2 5653   3.641   5.712   1.064  1.5017  0.3026  0.1710
 1897TIP3   OH2 5654   4.323   6.732   0.303 -0.3986 -0.2442 -0.4887
 1897TIP3    H1 5655   4.390   6.690   0.250 -0.0541  0.3529 -0.5340
 1897TIP3    H2 5656   4.314   6.675   0.380 -0.0476 -0.4791 -0.6176
 1898TIP3   OH2 5657   5.353   4.686   5.459  0.1498 -0.2289 -0.2217
 1898TIP3    H1 5658   5.297   4.757   5.426  0.0896 -0.9139 -1.6619
 1898TIP3    H2 5659   5.417   4.730   5.515 -0.6164  0.8120 -0.1281
 1899TIP3   OH2 5660   1.107   0.650   0.820 -0.0979 -0.6551 -0.6233
 1899TIP3    H1 5661   1.168   0.723   0.833 -2.0512  1.0181 -0.4758
 1899TIP3    H2 5662   1.111   0.631   0.727 -1.8378  1.8039 -1.2807
 1900TIP3   OH2 5663   5.094   5.663   3.345 -0.6086 -0.4689 -0.0319
 1900TIP3    H1 5664   5.089   5.593   3.410 -0.6601 -0.4161  0.0218
 1900TIP3    H2 5665   5.011   5.710   3.355 -0.7042 -0.5866 -0.2787
 1901TIP3   OH2 5666   1.027   6.559   0.927 -0.4336  0.6011 -0.1195
 1901TIP3    H1 5667   1.013   6.503   0.851 -0.9047  0.3094  0.1792
 1901TIP3    H2 5668   0.998   6.646   0.898 -0.0978  0.6066 -0.4464
 1902TIP3   OH2 5669   2.141   0.983   4.252 -0.1032 -0.3702 -0.4248
 1902TIP3    H1 5670   2.087   0.927   4.197 -0.8905 -1.1486  1.0801
 1902TIP3    H2 5671   2.217   0.929   4.274 -0.7008 -0.7706  0.7515
 1903TIP3   OH2 5672   5.273   0.999   3.196  0.3859 -0.0244  0.0461
 1903TIP3    H1 5673   5.293   0.932   3.131  0.1377 -0.3297  0.2821
 1903TIP3    H2 5674   5.179   0.991   3.211  0.3732  0.3060  0.1552
 1904TIP3   OH2 5675   5.032   5.448   2.455 -0.6222  0.0846  0.1353
 1904TIP3    H1 5676   4.974   5.373   2.454 -0.1264 -0.5004 -3.7683
 1904TIP3    H2 5677   5.119   5.411   2.473 -0.7717  0.2080  1.1417
 1905TIP3   OH2 5678   5.804   1.557   0.319  0.2087  0.2718 -0.1413
 1905TIP3    H1 5679   5.872   1.625   0.318 -0.5264  1.0265  0.1390
 1905TIP3    H2 5680   5.732   1.595   0.369  0.2242 -1.1732  1.0471
 1906TIP3   OH2 5681   2.607   4.601   0.216  0.3130  0.7295 -0.1468
 1906TIP3    H1 5682   2.569   4.679   0.176  1.2246  0.7349 -1.0400
 1906TIP3    H2 5683   2.680   4.577   0.158  0.8973  0.0151  0.8508
 1907TIP3   OH2 5684   6.616   2.910   0.661 -0.0921 -0.0443 -0.1682
 1907TIP3    H1 5685   6.611   2.928   0.567  0.4483 -1.0836 -0.4141
 1907TIP3    H2 5686   6.698   2.860   0.671 -0.2563 -0.1309  0.8188
 1908TIP3   OH2 5687   6.278   1.823   4.216 -0.1900  0.4749 -0.1725
 1908TIP3    H1 5688   6.328   1.759   4.267  1.7242  0.0573 -2.3860
 1908TIP3    H2 5689   6.193   1.826   4.259  0.2804 -2.1114  1.1878
 1909TIP3   OH2 5690   4.281   3.817   5.490  0.2104  0.1522  0.2163
 1909TIP3    H1 5691   4.339   3.839   5.563 -1.6065 -0.1405  1.8167
 1909TIP3    H2 5692   4.203   3.781   5.531 -1.0452  0.3339 -1.8746
 1910TIP3   OH2 5693   0.392   4.146   2.974  0.0336 -0.1379  0.0128
 1910TIP3    H1 5694   0.299   4.130   2.959  0.2190 -0.7126 -0.5813
 1910TIP3    H2 5695   0.423   4.066   3.016  0.4044 -0.2373 -0.4441
 1911TIP3   OH2 5696   2.775   4.445   0.066  0.7027 -0.7364 -0.1017
 1911TIP3    H1 5697   2.718   4.370   0.084  1.1708 -1.2347 -0.6901
 1911TIP3    H2 5698   2.772   4.455  -0.029 -0.0095  0.5179  0.0298
 1912TIP3   OH2 5699   3.857   0.228   3.230 -0.2606  0.3580  0.0539
 1912TIP3    H1 5700   3.866   0.168   3.304 -0.3576  0.6968  0.3417
 1912TIP3    H2 5701   3.944   0.232   3.191 -0.2732 -0.0342 -0.0207
 1913TIP3   OH2 5702   0.180   5.846   1.501 -0.6921 -0.1736  0.4797
 1913TIP3    H1 5703   0.098   5.800   1.480 -0.0565 -0.6578 -1.0617
 1913TIP3    H2 5704   0.165   5.936   1.474 -0.1589 -0.6244 -1.4145
 1914TIP3   OH2 5705   6.854   5.078   0.383 -0.1565 -0.4363 -0.3044
 1914TIP3    H1 5706   6.930   5.059   0.327  0.5437 -0.1885  0.5354
 1914TIP3    H2 5707   6.782   5.031   0.342  0.4594 -0.7174 -1.1012
 1915TIP3   OH2 5708   4.394   3.201   1.958 -0.4666 -0.1707  0.0497
 1915TIP3    H1 5709   4.362   3.290   1.940 -0.9539 -0.4870 -0.7297
 1915TIP3    H2 5710   4.486   3.203   1.934 -0.2105  0.3944  1.0248
 1916TIP3   OH2 5711   3.976   5.627   0.278  0.0151  0.6123 -0.4969
 1916TIP3    H1 5712   3.906   5.654   0.218 -0.7881  0.9999  0.5814
 1916TIP3    H2 5713   4.020   5.708   0.303 -0.0457  0.5276 -0.1002
 1917TIP3   OH2 5714   1.836   6.722   3.439  0.3525 -0.4282 -0.1540
 1917TIP3    H1 5715   1.826   6.816   3.424 -0.0283 -0.6427 -1.3631
 1917TIP3    H2 5716   1.930   6.706   3.429  0.6048  0.0077  1.3123
 1918TIP3   OH2 5717   6.975   2.310   3.298  0.3893  0.0406  0.1305
 1918TIP3    H1 5718   6.892   2.263   3.291  0.5327 -0.2673  0.4833
 1918TIP3    H2 5719   6.999   2.303   3.391  1.7112 -1.4287 -0.2697
 1919TIP3   OH2 5720   3.178   0.719   3.706  0.1988  0.0655 -0.1714
 1919TIP3    H1 5721   3.168   0.709   3.611 -1.1742  0.2357 -0.0701
 1919TIP3    H2 5722   3.122   0.793   3.728 -0.5958 -0.8367  0.9528
 1920TIP3   OH2 5723   4.381   6.602   2.593  0.4274 -0.4938  0.4202
 1920TIP3    H1 5724   4.419   6.669   2.650 -0.8303 -0.7078  1.5542
 1920TIP3    H2 5725   4.455   6.549   2.565  1.4351  1.2703 -0.3936
 1921TIP3   OH2 5726   1.683   4.209   0.609  0.5585  0.4296  0.2055
 1921TIP3    H1 5727   1.650   4.159   0.534  2.2670  2.1164 -1.8232
 1921TIP3    H2 5728   1.709   4.294   0.572  0.8052  1.6369  2.8800
 1922TIP3   OH2 5729   4.564   5.264   4.272 -0.3073 -0.3004 -0.5979
 1922TIP3    H1 5730   4.543   5.309   4.190 -0.0092  0.8721 -0.0605
 1922TIP3    H2 5731   4.557   5.171   4.251 -0.2677 -0.0261 -1.9381
 1923TIP3   OH2 5732   3.746   6.160   1.327  0.1644 -0.7622  0.1059
 1923TIP3    H1 5733   3.670   6.136   1.380  0.7700  0.8630  1.8660
 1923TIP3    H2 5734   3.803   6.207   1.389  1.0434  1.0364 -1.9446
 1924TIP3   OH2 5735   4.510   1.901   5.415  1.0715  0.6649  0.0446
 1924TIP3    H1 5736   4.468   1.912   5.329 -0.2010  1.7917  0.7593
 1924TIP3    H2 5737   4.492   1.810   5.438 -2.7825  1.5071  1.1102
 1925TIP3   OH2 5738   2.394   4.242   3.988  0.0864 -0.5333 -0.2872
 1925TIP3    H1 5739   2.335   4.278   3.922 -0.8239  1.5583  1.5236
 1925TIP3    H2 5740   2.369   4.150   3.994 -0.1296 -0.6703 -2.4507
 1926TIP3   OH2 5741   5.469   3.519   0.514  0.3537 -0.1072  0.2711
 1926TIP3    H1 5742   5.395   3.553   0.564  0.0251  0.1010 -0.3500
 1926TIP3    H2 5743   5.434   3.443   0.468  0.5051  0.0326 -0.0793
 1927TIP3   OH2 5744   1.779   0.117   4.460 -0.3691 -1.0004 -0.2415
 1927TIP3    H1 5745   1.809   0.036   4.419 -1.5001 -1.9385  0.7211
 1927TIP3    H2 5746   1.819   0.116   4.547 -2.0993 -1.6348  0.5783
 1928TIP3   OH2 5747   3.153   6.006   0.679  0.3953  0.2243 -0.0968
 1928TIP3    H1 5748   3.191   5.918   0.685 -1.8951 -0.8307 -0.2659
 1928TIP3    H2 5749   3.203   6.048   0.609 -0.6644 -2.1783 -2.4857
 1929TIP3   OH2 5750   5.535   0.925   1.321  0.2066  0.3534  0.3755
 1929TIP3    H1 5751   5.576   0.923   1.408 -3.3102  0.9481  2.2529
 1929TIP3    H2 5752   5.496   0.839   1.311 -0.3092  0.6399 -0.1229
 1930TIP3   OH2 5753   0.522   4.879   2.428  0.2771  0.1730  0.2481
 1930TIP3    H1 5754   0.459   4.930   2.378 -1.6281 -2.3926 -0.1581
 1930TIP3    H2 5755   0.599   4.873   2.371 -0.0835  1.1746 -0.3670
 1931TIP3   OH2 5756   3.047   5.525   0.409 -0.4803  0.0669 -0.2798
 1931TIP3    H1 5757   3.064   5.613   0.375 -1.8592  0.4032 -0.1625
 1931TIP3    H2 5758   2.954   5.509   0.389 -0.2206 -1.4289 -0.4453
 1932TIP3   OH2 5759   1.123   1.268   4.930 -0.0374  0.2431  0.1155
 1932TIP3    H1 5760   1.190   1.236   4.990 -0.9281 -0.4543  0.7579
 1932TIP3    H2 5761   1.160   1.252   4.843  0.5031 -0.4327  0.4571
 1933TIP3   OH2 5762   5.321   2.269   0.117 -0.5703 -0.5564 -0.0810
 1933TIP3    H1 5763   5.278   2.198   0.069  2.0363 -1.6457 -1.0154
 1933TIP3    H2 5764   5.414   2.248   0.111  0.0790  0.9626  2.8751
 1934TIP3   OH2 5765   1.606   3.868   1.600  0.1443  0.4285  0.0391
 1934TIP3    H1 5766   1.627   3.853   1.692 -0.2619 -0.3129  0.0132
 1934TIP3    H2 5767   1.535   3.807   1.581  0.5348  0.2445 -0.8874
 1935TIP3   OH2 5768   2.699   2.672   0.334  0.5287 -0.0292  0.1919
 1935TIP3    H1 5769   2.669   2.727   0.407  1.4944  0.3335  0.3235
 1935TIP3    H2 5770   2.688   2.582   0.365 -1.9335  0.0149 -0.3544
 1936TIP3   OH2 5771   5.047   3.116   2.539  1.0889  0.1030  0.0212
 1936TIP3    H1 5772   5.070   3.169   2.463  0.1744 -0.1107 -0.4043
 1936TIP3    H2 5773   5.111   3.044   2.538 -0.0914 -0.9973 -1.6893
 1937TIP3   OH2 5774   0.605   2.889   4.359 -0.1769 -0.3432  0.8477
 1937TIP3    H1 5775   0.532   2.939   4.322 -0.1319 -0.7573  0.1799
 1937TIP3    H2 5776   0.589   2.799   4.329  0.8720 -0.3511  0.2766
 1938TIP3   OH2 5777   3.767   3.158   2.606  0.3255 -0.0655 -0.1215
 1938TIP3    H1 5778   3.709   3.083   2.601 -0.7691  0.7869 -0.7836
 1938TIP3    H2 5779   3.834   3.133   2.669 -0.4509 -1.2858  0.2502
 1939TIP3   OH2 5780   7.007   6.752   3.598 -0.1392 -0.6862 -0.0540
 1939TIP3    H1 5781   7.077   6.760   3.533  0.1356 -0.2849  0.2919
 1939TIP3    H2 5782   6.950   6.684   3.562  0.6195 -1.2837 -0.1599
 1940TIP3   OH2 5783   5.306   6.108   1.957 -0.0588  0.0802  0.2384
 1940TIP3    H1 5784   5.368   6.170   1.919 -0.6958 -0.0169 -1.0526
 1940TIP3    H2 5785   5.339   6.090   2.045  1.6011  0.2042 -0.3225
 1941TIP3   OH2 5786   4.265   5.213   5.263 -0.0675 -0.2970 -0.1915
 1941TIP3    H1 5787   4.297   5.280   5.323  0.0238 -0.4560 -0.0626
 1941TIP3    H2 5788   4.343   5.180   5.218 -0.0277 -0.7848  0.2276
 1942TIP3   OH2 5789   0.086   2.882   3.721  0.0926  0.1095 -0.2947
 1942TIP3    H1 5790   0.053   2.824   3.652 -0.0955  1.2484 -1.1938
 1942TIP3    H2 5791   0.180   2.891   3.701  0.3076 -0.5562  0.3587
 1943TIP3   OH2 5792   4.385   4.439   2.743  0.1242  0.0684  0.1287
 1943TIP3    H1 5793   4.458   4.431   2.682  0.9966 -1.1978  1.2831
 1943TIP3    H2 5794   4.315   4.387   2.704  0.3764 -0.0104 -0.2189
 1944TIP3   OH2 5795   3.869   6.092   3.400  0.3245  0.5911  0.2859
 1944TIP3    H1 5796   3.829   6.079   3.314  1.6773  0.7041 -0.3794
 1944TIP3    H2 5797   3.900   6.005   3.426 -1.5279  0.2215  1.4404
 1945TIP3   OH2 5798   1.508   5.048   3.621 -0.6339 -0.7038 -0.0899
 1945TIP3    H1 5799   1.498   5.098   3.540  0.8282 -0.0869  0.0895
 1945TIP3    H2 5800   1.588   4.997   3.608  0.6926  0.8124  1.6580
 1946TIP3   OH2 5801   4.673   2.760   2.716 -0.2147 -0.3030 -0.0782
 1946TIP3    H1 5802   4.755   2.724   2.750  1.3658  2.7004 -0.3900
 1946TIP3    H2 5803   4.697   2.799   2.632 -2.3033 -0.5537 -0.8519
 1947TIP3   OH2 5804   5.243   0.280   5.619 -0.5700 -0.0474 -0.5716
 1947TIP3    H1 5805   5.281   0.278   5.707 -2.2311  4.2340  0.4632
 1947TIP3    H2 5806   5.154   0.246   5.631 -1.2925  1.8815 -0.2066
 1948TIP3   OH2 5807   4.259   3.337   5.529 -0.0663 -0.1224  0.1748
 1948TIP3    H1 5808   4.269   3.296   5.443  0.3459  1.5543 -0.6121
 1948TIP3    H2 5809   4.283   3.268   5.591  0.9237 -0.9718 -1.0978
 1949TIP3   OH2 5810   0.937   1.326   2.490  1.0345  0.3949  0.2728
 1949TIP3    H1 5811   0.896   1.323   2.404 -1.0255 -0.3316  1.2112
 1949TIP3    H2 5812   1.015   1.272   2.482  0.3982 -0.3794 -0.9053
 1950TIP3   OH2 5813   3.701   4.144   0.210  0.6135  0.2322  0.2420
 1950TIP3    H1 5814   3.644   4.214   0.178  1.0813  0.0099 -1.1467
 1950TIP3    H2 5815   3.643   4.068   0.219  0.4768  0.2888 -0.1441
 1951TIP3   OH2 5816   7.019   2.859   3.173 -0.3277  0.3972 -0.0581
 1951TIP3    H1 5817   7.051   2.770   3.185  0.1012  0.7006  1.1093
 1951TIP3    H2 5818   7.090   2.905   3.128  0.0388  0.5121  0.6225
 1952TIP3   OH2 5819   2.251   2.282   3.090  0.2582 -0.3876 -0.0209
 1952TIP3    H1 5820   2.321   2.303   3.029  1.2811 -0.5001  1.0690
 1952TIP3    H2 5821   2.292   2.222   3.153 -0.4441  0.5358  1.3738
 1953TIP3   OH2 5822   5.187   2.922   2.162  0.0439 -0.2434 -0.2885
 1953TIP3    H1 5823   5.248   2.953   2.228 -3.4771  2.3893  2.0968
 1953TIP3    H2 5824   5.170   2.831   2.185  0.4047  0.0426  1.1770
 1954TIP3   OH2 5825   4.078   0.680   1.789  0.0326 -0.0680  0.6809
 1954TIP3    H1 5826   3.994   0.646   1.819 -0.2663 -0.3473 -0.4590
 1954TIP3    H2 5827   4.143   0.627   1.836 -0.4188 -0.2610  1.1016
 1955TIP3   OH2 5828   6.514   3.281   3.086 -0.4700 -0.0611 -0.1319
 1955TIP3    H1 5829   6.581   3.344   3.058 -1.2497  0.4191 -0.9681
 1955TIP3    H2 5830   6.559   3.226   3.150  0.0863  1.6933  1.0695
 1956TIP3   OH2 5831   4.205   3.367   3.006 -0.0522 -0.2660  0.0780
 1956TIP3    H1 5832   4.210   3.455   2.969 -0.0654  0.1325  1.0067
 1956TIP3    H2 5833   4.296   3.336   3.006 -0.2323 -0.9076 -1.7556
 1957TIP3   OH2 5834   2.795   3.120   0.661  0.7330  0.2890  0.7138
 1957TIP3    H1 5835   2.747   3.105   0.742  0.7231  0.0707  0.6668
 1957TIP3    H2 5836   2.878   3.074   0.672  1.1097  1.0084  0.9599
 1958TIP3   OH2 5837   2.425   1.839   2.140 -0.3540 -0.1586 -0.3316
 1958TIP3    H1 5838   2.443   1.815   2.231 -1.4556 -3.6200 -0.8802
 1958TIP3    H2 5839   2.365   1.914   2.146  1.2046  1.0266  1.6699
 1959TIP3   OH2 5840   6.682   2.440   0.764  0.3462  0.9617 -0.3774
 1959TIP3    H1 5841   6.698   2.464   0.672  0.6275  0.2214 -0.5260
 1959TIP3    H2 5842   6.611   2.498   0.792  0.5108  1.4523 -0.9498
 1960TIP3   OH2 5843   1.677   2.905   0.330  0.2530 -0.2217 -0.7669
 1960TIP3    H1 5844   1.653   2.857   0.251  1.0597 -0.6118 -0.7850
 1960TIP3    H2 5845   1.616   2.979   0.332  0.5949  0.1334 -2.0833
 1961TIP3   OH2 5846   3.515   5.405   3.629  0.3092  0.1489 -0.1206
 1961TIP3    H1 5847   3.467   5.444   3.702 -0.2759  1.1557 -1.0247
 1961TIP3    H2 5848   3.460   5.332   3.601  0.9466 -0.7871  0.9603
 1962TIP3   OH2 5849   3.716   0.963   1.723 -0.1527  0.1535 -0.4212
 1962TIP3    H1 5850   3.804   0.996   1.706 -0.8935  2.6583  0.0587
 1962TIP3    H2 5851   3.674   0.960   1.637  0.4394 -1.2395 -0.6741
 1963TIP3   OH2 5852   2.383   6.580   5.165  0.3439  0.1128 -0.0761
 1963TIP3    H1 5853   2.407   6.651   5.225  0.9833 -0.1975  0.0467
 1963TIP3    H2 5854   2.316   6.618   5.108  0.6455  0.7981  0.0199
 1964TIP3   OH2 5855   0.486   6.256   0.897  0.4030  0.2847  0.4965
 1964TIP3    H1 5856   0.566   6.295   0.862  0.6163  0.0821  0.7575
 1964TIP3    H2 5857   0.470   6.180   0.840 -0.6858  1.4053 -0.7884
 1965TIP3   OH2 5858   6.772   4.564   3.234  0.2494  0.0503  0.2326
 1965TIP3    H1 5859   6.866   4.570   3.248  0.1620  2.1324  0.2416
 1965TIP3    H2 5860   6.757   4.606   3.150 -0.4939 -2.0500 -0.7509
 1966TIP3   OH2 5861   6.194   1.019   2.401 -0.0258  0.2832 -0.3069
 1966TIP3    H1 5862   6.245   1.086   2.355  0.7534  0.2732  0.5275
 1966TIP3    H2 5863   6.224   0.936   2.363  0.2341  0.3054 -0.1500
 1967TIP3   OH2 5864   3.338   6.767   5.298  0.2078  0.0183 -0.0365
 1967TIP3    H1 5865   3.256   6.806   5.327  0.7058  1.4294 -0.4286
 1967TIP3    H2 5866   3.338   6.778   5.203 -0.1849 -2.1081 -0.3363
 1968TIP3   OH2 5867   2.495   0.144   1.750 -0.0096  0.2010  0.5527
 1968TIP3    H1 5868   2.535   0.057   1.755  1.6034  0.6638 -1.9958
 1968TIP3    H2 5869   2.561   0.202   1.789  0.1316  0.5501 -0.1938
 1969TIP3   OH2 5870   0.991   6.749   4.902  0.4526 -0.0180  0.0358
 1969TIP3    H1 5871   1.079   6.725   4.874 -0.0383 -1.3398 -0.4638
 1969TIP3    H2 5872   0.994   6.743   4.998  1.1602  0.9463  0.0870
 1970TIP3   OH2 5873   1.498   0.532   0.771 -0.1821  0.1725  0.4940
 1970TIP3    H1 5874   1.487   0.626   0.786 -0.8816  0.0078  1.0456
 1970TIP3    H2 5875   1.565   0.527   0.702 -1.5051  1.1458 -0.9445
 1971TIP3   OH2 5876   3.718   0.230   0.849 -0.1202  0.5432 -0.8785
 1971TIP3    H1 5877   3.685   0.289   0.917 -0.2528  1.4468 -1.7019
 1971TIP3    H2 5878   3.811   0.220   0.869 -0.3367  0.0975 -0.0645
 1972TIP3   OH2 5879   4.509   4.692   5.334 -0.0963 -0.2626  0.3603
 1972TIP3    H1 5880   4.479   4.609   5.370 -0.3942 -0.0709  0.5612
 1972TIP3    H2 5881   4.590   4.671   5.288 -1.0563 -1.0096 -1.0914
 1973TIP3   OH2 5882   5.183   3.610   0.613  0.4638  0.1063 -0.4464
 1973TIP3    H1 5883   5.109   3.661   0.646 -0.4601 -1.0819 -0.5908
 1973TIP3    H2 5884   5.146   3.556   0.544  1.4636 -0.5570 -0.4873
 1974TIP3   OH2 5885   4.334   6.316   5.742 -0.4080 -1.2342  0.1624
 1974TIP3    H1 5886   4.340   6.345   5.651 -0.7347  1.7143  0.9740
 1974TIP3    H2 5887   4.257   6.259   5.744 -1.6448  0.2868 -1.0872
 1975TIP3   OH2 5888   4.586   2.056   5.052  0.0613  0.3002 -0.1908
 1975TIP3    H1 5889   4.633   2.112   4.991 -0.3420  1.0748  0.1861
 1975TIP3    H2 5890   4.544   2.117   5.113  0.4460 -0.4436  0.8563
 1976TIP3   OH2 5891   6.267   2.744   4.287 -0.2727 -0.0702 -0.2944
 1976TIP3    H1 5892   6.336   2.686   4.320 -0.1206  0.1980 -0.1450
 1976TIP3    H2 5893   6.290   2.757   4.195 -0.1688 -0.0466 -0.2654
 1977TIP3   OH2 5894   0.662   3.121   0.468  0.3780 -0.7499 -0.0751
 1977TIP3    H1 5895   0.656   3.196   0.409  2.2824 -1.1269 -0.8120
 1977TIP3    H2 5896   0.728   3.147   0.533  0.3661 -1.4310  0.2220
 1978TIP3   OH2 5897   0.149   5.399   2.609 -0.6400  0.6829 -0.4331
 1978TIP3    H1 5898   0.133   5.306   2.627  0.0272  0.6639  0.1066
 1978TIP3    H2 5899   0.162   5.403   2.514  0.7434 -0.0107 -0.3012
 1979TIP3   OH2 5900   6.916   5.368   4.353  0.6642 -0.5551  0.3835
 1979TIP3    H1 5901   6.949   5.377   4.263 -0.4588 -1.3537 -0.1320
 1979TIP3    H2 5902   6.994   5.378   4.408  1.9700 -3.1522 -0.8004
 1980TIP3   OH2 5903   1.418   3.269   3.957 -0.1157  0.0114  0.3023
 1980TIP3    H1 5904   1.425   3.205   4.028  1.5462  0.1401  0.3003
 1980TIP3    H2 5905   1.341   3.241   3.907  0.7287 -2.2093  0.1032
 1981TIP3   OH2 5906   6.344   4.889   0.449 -0.1885  0.2148 -0.4242
 1981TIP3    H1 5907   6.278   4.897   0.518 -0.2267  0.2073 -0.4595
 1981TIP3    H2 5908   6.294   4.888   0.367 -0.3070 -1.5283 -0.3837
 1982TIP3   OH2 5909   1.773   4.791   5.843 -0.0717 -0.0457  0.1678
 1982TIP3    H1 5910   1.780   4.765   5.751  1.3551 -0.2745  0.3303
 1982TIP3    H2 5911   1.768   4.708   5.890 -0.0063  0.0594  0.3602
 1983TIP3   OH2 5912   3.384   3.699   3.717 -0.1979 -0.3449  1.0127
 1983TIP3    H1 5913   3.477   3.723   3.722 -0.4459  1.3994 -1.0498
 1983TIP3    H2 5914   3.382   3.623   3.659 -0.0841 -0.0307  0.5897
 1984TIP3   OH2 5915   4.756   2.283   1.503  0.1769  0.3655 -0.1363
 1984TIP3    H1 5916   4.728   2.374   1.506 -0.8802  0.0678  2.8207
 1984TIP3    H2 5917   4.851   2.287   1.514  0.1945  1.1313 -0.5405
 1985TIP3   OH2 5918   1.967   4.665   2.520  0.2713 -0.0060  0.2619
 1985TIP3    H1 5919   2.040   4.726   2.507  0.0381  0.8891  2.6587
 1985TIP3    H2 5920   2.004   4.580   2.497  1.6965  0.5866  0.2171
 1986TIP3   OH2 5921   2.760   1.185   5.449  0.0999 -0.5872 -0.0105
 1986TIP3    H1 5922   2.847   1.145   5.452  0.4558  0.1386 -0.5463
 1986TIP3    H2 5923   2.705   1.119   5.407  0.2243 -1.3330  0.9478
 1987TIP3   OH2 5924   0.440   5.797   2.216  0.5771 -0.1641 -0.3359
 1987TIP3    H1 5925   0.376   5.816   2.147 -1.6168 -1.1641  1.2836
 1987TIP3    H2 5926   0.473   5.883   2.242  0.7488  0.2944 -1.9535
 1988TIP3   OH2 5927   6.463   3.760   4.997  0.0720 -0.1910 -0.2635
 1988TIP3    H1 5928   6.469   3.692   4.929  0.5593  0.3324 -0.7541
 1988TIP3    H2 5929   6.394   3.818   4.966  0.3392  0.0840 -0.3535
 1989TIP3   OH2 5930   3.464   0.585   3.407  0.3172 -0.3579 -0.2854
 1989TIP3    H1 5931   3.368   0.584   3.409  0.3266 -0.6241 -0.0214
 1989TIP3    H2 5932   3.488   0.517   3.345  0.3169  0.2941 -1.0139
 1990TIP3   OH2 5933   0.432   3.990   0.961  1.0957  0.1043 -0.5369
 1990TIP3    H1 5934   0.501   3.992   1.027 -0.7159 -0.0453  1.4959
 1990TIP3    H2 5935   0.435   3.902   0.924  0.9650 -0.4653  0.7514
 1991TIP3   OH2 5936   4.181   2.187   2.882 -0.6987 -0.0138  0.1571
 1991TIP3    H1 5937   4.200   2.188   2.788 -0.4762 -0.1485  0.1995
 1991TIP3    H2 5938   4.240   2.120   2.917  1.0788  1.7889  0.7764
 1992TIP3   OH2 5939   4.410   0.882   2.832 -0.6009  0.1942  0.4494
 1992TIP3    H1 5940   4.407   0.920   2.744 -2.2380 -0.6201  0.1280
 1992TIP3    H2 5941   4.480   0.930   2.876 -0.4302  1.3125 -0.9785
 1993TIP3   OH2 5942   1.160   2.256   4.983  0.3426 -0.4682  0.3729
 1993TIP3    H1 5943   1.114   2.182   4.943  1.1595 -0.6664 -0.2374
 1993TIP3    H2 5944   1.237   2.216   5.025  0.6637  0.0036  0.2365
 1994TIP3   OH2 5945   3.924   2.286   2.843  0.3798  0.5827  0.2085
 1994TIP3    H1 5946   4.007   2.251   2.875 -0.4853 -1.4732  0.3440
 1994TIP3    H2 5947   3.943   2.315   2.754  1.3552  0.5908  0.4113
 1995TIP3   OH2 5948   4.946   4.074   2.594  0.2297  0.2032 -0.0673
 1995TIP3    H1 5949   4.874   4.083   2.656  2.1935 -2.8819  3.0151
 1995TIP3    H2 5950   5.015   4.131   2.628  0.1934  1.1435 -1.4935
 1996TIP3   OH2 5951   7.013   5.289   0.528 -0.2688  0.0136  0.2002
 1996TIP3    H1 5952   6.929   5.306   0.486 -1.8788  0.2504  3.2688
 1996TIP3    H2 5953   7.037   5.373   0.568  1.9839  0.2208 -1.3833
 1997TIP3   OH2 5954   1.764   3.053   4.916  0.3043  0.4904  0.3714
 1997TIP3    H1 5955   1.678   3.034   4.954  0.8630  1.6301  2.3068
 1997TIP3    H2 5956   1.826   3.005   4.970  0.9067 -0.7559 -1.3403
 1998TIP3   OH2 5957   5.415   4.901   1.331 -0.2578  0.3655  0.6981
 1998TIP3    H1 5958   5.473   4.872   1.401  0.4765 -0.2161 -0.1227
 1998TIP3    H2 5959   5.358   4.827   1.313  0.9809 -0.2944 -0.7468
 1999TIP3   OH2 5960   2.271   3.746   5.551 -0.0307  0.4806 -0.3146
 1999TIP3    H1 5961   2.199   3.722   5.494  0.2237  0.4220 -0.6153
 1999TIP3    H2 5962   2.242   3.722   5.639  0.4109 -1.3780 -0.6502
 2000TIP3   OH2 5963   7.104   6.156   3.079 -0.2499  0.0284 -0.3261
 2000TIP3    H1 5964   7.094   6.061   3.073 -1.0995  0.0827  0.1134
 2000TIP3    H2 5965   7.057   6.180   3.158 -0.1323  0.8302 -0.4956
 2001TIP3   OH2 5966   0.857   2.888   0.781 -0.0558  0.2837 -0.1432
 2001TIP3    H1 5967   0.800   2.812   0.789  0.6664 -0.0984  2.2402
 2001TIP3    H2 5968   0.798   2.962   0.770 -0.9226 -0.3176  0.3727
 2002TIP3   OH2 5969   0.576   1.065   1.804 -0.6222 -0.3256 -0.6321
 2002TIP3    H1 5970   0.560   1.158   1.821 -0.2417 -0.3432 -0.1423
 2002TIP3    H2 5971   0.495   1.033   1.764 -0.0170  0.6811 -2.7772
 2003TIP3   OH2 5972   4.399   6.322   0.420 -0.9026  0.3474 -0.5937
 2003TIP3    H1 5973   4.357   6.238   0.401 -0.4506 -0.0082 -0.0716
 2003TIP3    H2 5974   4.492   6.300   0.427 -0.5570  1.1814 -2.1672
 2004TIP3   OH2 5975   1.428   2.852   1.388  0.1301  0.3660  0.0301
 2004TIP3    H1 5976   1.480   2.854   1.308 -0.5438 -2.2678 -0.5532
 2004TIP3    H2 5977   1.350   2.802   1.365 -1.0862  1.3126  1.8135
 2005TIP3   OH2 5978   4.230   0.614   4.387  0.1368 -0.0729 -0.3201
 2005TIP3    H1 5979   4.272   0.532   4.412 -0.6923 -0.4338 -0.0881
 2005TIP3    H2 5980   4.137   0.601   4.407 -0.1595  0.5542 -1.2146
 2006TIP3   OH2 5981   6.163   4.856   5.213  0.1820 -0.1346  0.4427
 2006TIP3    H1 5982   6.096   4.847   5.281  1.2892  0.7542  1.7092
 2006TIP3    H2 5983   6.200   4.769   5.204  1.9351  0.1908  3.1160
 2007TIP3   OH2 5984   2.676   3.961   5.555  0.3315 -0.2937 -0.3202
 2007TIP3    H1 5985   2.585   3.933   5.555  0.3986 -0.5491  0.6001
 2007TIP3    H2 5986   2.712   3.926   5.637  1.7392 -1.7630 -1.4956
 2008TIP3   OH2 5987   2.280   6.639   1.589 -0.8575 -0.4596  0.4264
 2008TIP3    H1 5988   2.186   6.652   1.604 -0.6141  1.4100  0.6327
 2008TIP3    H2 5989   2.288   6.631   1.494 -1.1813 -0.0828  0.3635
 2009TIP3   OH2 5990   2.249   4.839   2.037 -0.4179 -0.0798 -0.3046
 2009TIP3    H1 5991   2.310   4.834   1.964 -1.2296  1.4561 -1.1233
 2009TIP3    H2 5992   2.304   4.855   2.114  0.3116 -0.1840 -0.8016
 2010TIP3   OH2 5993   3.387   1.040   5.459  0.0437 -0.7040 -0.1173
 2010TIP3    H1 5994   3.471   1.081   5.442 -1.0697  1.9514  0.2582
 2010TIP3    H2 5995   3.360   1.002   5.375  0.8506 -0.0928 -0.6590
 2011TIP3   OH2 5996   4.572   0.872   2.269  0.2577 -0.2264 -0.4945
 2011TIP3    H1 5997   4.565   0.966   2.248 -1.3453 -0.3266 -0.4969
 2011TIP3    H2 5998   4.666   0.855   2.268  0.5940  1.4239 -0.3243
 2012TIP3   OH2 5999   1.860   0.657   3.828  0.2926  0.4852 -0.0442
 2012TIP3    H1 6000   1.913   0.737   3.828 -0.2706  0.8699  0.7566
 2012TIP3    H2 6001   1.918   0.590   3.865  0.7135  0.5446 -0.5759
 2013TIP3   OH2 6002   3.004   6.477   2.769 -0.0575  0.2686 -0.3449
 2013TIP3    H1 6003   2.981   6.536   2.841 -1.6564  0.0809 -0.6665
 2013TIP3    H2 6004   3.079   6.426   2.802  0.1714  1.1965  0.6112
 2014TIP3   OH2 6005   1.352   1.104   4.148 -0.2899  0.1272  0.1312
 2014TIP3    H1 6006   1.443   1.112   4.121 -0.6072  0.3575 -0.9058
 2014TIP3    H2 6007   1.305   1.169   4.096 -1.1009 -0.2033  0.4246
 2015TIP3   OH2 6008   7.132   5.100   1.581  0.3268 -0.6160  0.7864
 2015TIP3    H1 6009   7.158   5.026   1.636 -1.2673 -2.0999 -0.3546
 2015TIP3    H2 6010   7.124   5.173   1.642  1.3487 -1.5053  2.0489
 2016TIP3   OH2 6011   4.408   1.381   0.622 -0.2422 -0.0208  0.5485
 2016TIP3    H1 6012   4.478   1.390   0.686 -0.6219 -0.8398  1.1013
 2016TIP3    H2 6013   4.378   1.291   0.631 -0.5408 -0.0501 -0.5488
 2017TIP3   OH2 6014   1.596   4.583   3.192  0.6505 -0.3220 -0.2100
 2017TIP3    H1 6015   1.679   4.630   3.199  0.8837 -0.9683  3.9718
 2017TIP3    H2 6016   1.530   4.649   3.213  0.2745 -0.3057 -1.3967
 2018TIP3   OH2 6017   3.576   4.028   1.732 -0.1677  0.2808  0.3063
 2018TIP3    H1 6018   3.559   3.956   1.672  0.0106 -0.3736  1.0132
 2018TIP3    H2 6019   3.495   4.037   1.782 -0.0841  0.3486  0.4314
 2019TIP3   OH2 6020   2.785   5.429   2.787 -0.1247  0.1061 -0.2220
 2019TIP3    H1 6021   2.812   5.460   2.874  2.9648 -2.8705  0.0727
 2019TIP3    H2 6022   2.701   5.387   2.802 -1.2262  2.3925  0.5700
 2020TIP3   OH2 6023   5.866   6.630   1.998  0.1098  0.4579  0.4017
 2020TIP3    H1 6024   5.871   6.721   2.028 -0.8887  0.1531  1.5637
 2020TIP3    H2 6025   5.871   6.578   2.078 -2.2744 -0.4061  0.0840
 2021TIP3   OH2 6026   3.875   4.436   0.547 -0.4889 -0.6896 -0.0833
 2021TIP3    H1 6027   3.813   4.363   0.537 -0.7054 -0.9529  2.4270
 2021TIP3    H2 6028   3.945   4.400   0.602 -1.0671  1.1647  2.0346
 2022TIP3   OH2 6029   6.701   4.843   1.746  0.1212  0.2923  0.2519
 2022TIP3    H1 6030   6.625   4.857   1.689 -0.9307 -1.0101  1.2708
 2022TIP3    H2 6031   6.674   4.879   1.830  2.1567  3.4270 -0.2953
 2023TIP3   OH2 6032   1.031   2.992   3.591  0.2367  0.2443  0.1226
 2023TIP3    H1 6033   1.073   2.983   3.505  1.7680  1.0098  0.7436
 2023TIP3    H2 6034   1.047   3.083   3.615 -0.2898  0.0729  1.1585
 2024TIP3   OH2 6035   3.038   1.658   3.688 -0.0652 -0.1556  0.0438
 2024TIP3    H1 6036   3.119   1.659   3.637 -0.1619 -1.4132 -0.1631
 2024TIP3    H2 6037   3.067   1.651   3.779  0.0667 -0.9351 -0.0506
 2025TIP3   OH2 6038   3.521   1.628   3.417  0.1992 -0.3107  0.1996
 2025TIP3    H1 6039   3.513   1.565   3.345  1.0223 -0.4473  0.2153
 2025TIP3    H2 6040   3.614   1.653   3.416 -0.6938  3.9283 -2.3961
 2026TIP3   OH2 6041   0.439   0.141   2.203 -0.0177 -0.2012 -0.2575
 2026TIP3    H1 6042   0.527   0.160   2.233 -0.5221  0.3393  0.9671
 2026TIP3    H2 6043   0.427   0.196   2.125  1.1162 -1.1787 -1.1636
 2027TIP3   OH2 6044   0.371   3.482   2.543  0.3805 -0.2543  0.6457
 2027TIP3    H1 6045   0.405   3.553   2.489 -1.4622 -0.2609 -0.6077
 2027TIP3    H2 6046   0.444   3.420   2.551  1.4300  0.8947  0.2166
 2028TIP3   OH2 6047   2.047   3.950   3.626  0.2951  0.2110 -0.3828
 2028TIP3    H1 6048   2.136   3.962   3.659  0.5239 -2.4555  0.2194
 2028TIP3    H2 6049   2.046   3.994   3.541  1.4104  2.3350  0.6226
 2029TIP3   OH2 6050   3.657   2.274   2.231  0.1321 -0.2959  0.7243
 2029TIP3    H1 6051   3.679   2.340   2.297  1.6352 -0.1844  0.1531
 2029TIP3    H2 6052   3.735   2.219   2.225  0.5725  0.4823 -1.8924
 2030TIP3   OH2 6053   4.720   3.972   3.406  0.3894 -0.3789  0.0619
 2030TIP3    H1 6054   4.737   4.043   3.468  1.6656  0.5132 -1.2148
 2030TIP3    H2 6055   4.659   3.914   3.451 -0.6814  1.5076  1.1735
 2031TIP3   OH2 6056   2.720   0.273   1.887 -0.0553  0.9881  0.5290
 2031TIP3    H1 6057   2.713   0.194   1.940  0.1031  1.5533  1.4104
 2031TIP3    H2 6058   2.810   0.303   1.900 -0.3095  1.6749  0.7460
 2032TIP3   OH2 6059   3.355   4.302   0.718  0.5150  0.0469 -0.0414
 2032TIP3    H1 6060   3.429   4.242   0.724  0.7337  0.1695 -1.2786
 2032TIP3    H2 6061   3.377   4.362   0.646 -1.9455 -1.6562 -2.4602
 2033TIP3   OH2 6062   1.892   5.061   2.223 -0.3898 -0.3129  0.1925
 2033TIP3    H1 6063   1.813   5.009   2.208 -0.8456  0.8537 -1.9766
 2033TIP3    H2 6064   1.944   5.010   2.285 -2.0004 -2.0133  0.2218
 2034TIP3   OH2 6065   1.953   1.416   0.300 -0.1495 -0.2534 -1.0126
 2034TIP3    H1 6066   1.865   1.420   0.262 -0.6331  1.6175  0.1805
 2034TIP3    H2 6067   2.004   1.479   0.250 -0.5395  1.4914  0.6610
 2035TIP3   OH2 6068   0.535   5.046   1.269  0.2728 -0.9644 -0.1812
 2035TIP3    H1 6069   0.539   5.040   1.365 -1.5466  0.9225  0.0688
 2035TIP3    H2 6070   0.594   5.118   1.246  1.3176 -1.9122 -0.6150
 2036TIP3   OH2 6071   0.190   1.079   0.854 -0.0978 -0.3697 -0.8200
 2036TIP3    H1 6072   0.245   1.003   0.874  1.6837  1.2219  0.7151
 2036TIP3    H2 6073   0.209   1.141   0.924 -2.1503  1.1913 -1.5536
 2037TIP3   OH2 6074   0.904   3.378   1.065 -0.5164  0.0793  0.3604
 2037TIP3    H1 6075   0.973   3.311   1.061  0.5091  0.9174  2.6376
 2037TIP3    H2 6076   0.835   3.344   1.008  1.5822 -0.9891 -1.7298
 2038TIP3   OH2 6077   0.884   3.712   2.598  0.3850  0.2736  0.0597
 2038TIP3    H1 6078   0.849   3.753   2.519 -0.6591  0.9788  0.8618
 2038TIP3    H2 6079   0.807   3.697   2.653  1.2173  0.9746  1.4760
 2039TIP3   OH2 6080   6.089   6.672   3.720  0.1281 -0.4221 -0.2999
 2039TIP3    H1 6081   6.040   6.754   3.720  0.3392 -0.2690  1.1813
 2039TIP3    H2 6082   6.171   6.693   3.676 -1.4006 -0.9117 -3.6735
 2040TIP3   OH2 6083   0.208   6.121   4.006  0.2128  0.4077  0.1844
 2040TIP3    H1 6084   0.236   6.030   4.018 -1.0060 -0.0241 -0.1116
 2040TIP3    H2 6085   0.247   6.168   4.080  0.4832 -0.4427  0.5953
 2041TIP3   OH2 6086   4.280   6.730   2.376 -0.5849  0.6988 -0.0408
 2041TIP3    H1 6087   4.284   6.658   2.439 -1.2675 -0.1821 -0.9679
 2041TIP3    H2 6088   4.284   6.809   2.430  3.5288  0.1192  0.8859
 2042TIP3   OH2 6089   1.327   2.592   2.957  0.3602 -0.4662  0.5871
 2042TIP3    H1 6090   1.245   2.578   2.910 -0.4011 -1.8296  2.2474
 2042TIP3    H2 6091   1.366   2.669   2.914 -0.8951 -0.8522 -1.3908
 2043TIP3   OH2 6092   5.149   6.499   5.695  0.3653 -0.0524  0.3537
 2043TIP3    H1 6093   5.107   6.421   5.658  1.2456  0.4879 -1.9773
 2043TIP3    H2 6094   5.087   6.570   5.678  0.9317  0.2609 -0.5000
 2044TIP3   OH2 6095   4.087   1.161   2.059  0.0145  0.1940 -0.1791
 2044TIP3    H1 6096   4.008   1.196   2.018  0.4921  0.5671 -0.7958
 2044TIP3    H2 6097   4.074   1.067   2.058 -0.0476  0.2074 -1.0529
 2045TIP3   OH2 6098   5.764   0.821   5.718  0.4083  0.2038 -1.0865
 2045TIP3    H1 6099   5.672   0.801   5.736  0.3780  0.3390 -1.0912
 2045TIP3    H2 6100   5.803   0.737   5.692  0.0915  0.3039 -1.9138
 2046TIP3   OH2 6101   5.006   4.061   0.691  0.5636  0.3790 -0.2094
 2046TIP3    H1 6102   5.008   4.004   0.615  2.3713 -0.2993  0.2964
 2046TIP3    H2 6103   5.065   4.019   0.754 -0.1149  1.4369  1.1870
 2047TIP3   OH2 6104   1.120   5.474   1.369 -0.1084 -0.3704  0.3785
 2047TIP3    H1 6105   1.088   5.465   1.280 -1.0724  2.3420  0.3705
 2047TIP3    H2 6106   1.207   5.513   1.360 -0.9596  1.7147  0.5808
 2048TIP3   OH2 6107   2.539   6.400   1.374 -0.1418 -0.3628  0.7606
 2048TIP3    H1 6108   2.472   6.334   1.355 -0.1701  0.1076 -0.9905
 2048TIP3    H2 6109   2.494   6.484   1.362  1.1434 -0.0018 -2.4477
 2049TIP3   OH2 6110   5.655   5.708   1.632 -0.3129 -0.0254  0.0066
 2049TIP3    H1 6111   5.662   5.734   1.540  0.5259 -2.7668 -0.8090
 2049TIP3    H2 6112   5.586   5.642   1.633  1.5653 -2.1104  0.7321
 2050TIP3   OH2 6113   6.419   5.651   2.123  0.2383 -0.4973 -0.4171
 2050TIP3    H1 6114   6.467   5.608   2.053  0.3886  1.1892 -1.3970
 2050TIP3    H2 6115   6.444   5.743   2.116 -0.9947 -0.0359  0.8326
 2051TIP3   OH2 6116   3.822   5.182   4.594 -0.2518  0.0363  0.1828
 2051TIP3    H1 6117   3.917   5.183   4.586 -0.3609  0.4916 -1.3310
 2051TIP3    H2 6118   3.801   5.261   4.643  0.1896 -0.4938  1.2540
 2052TIP3   OH2 6119   2.784   5.007   5.199 -0.3218 -0.0254  0.0385
 2052TIP3    H1 6120   2.702   5.052   5.179  0.1014  0.8755  0.2539
 2052TIP3    H2 6121   2.758   4.918   5.222 -1.2569  0.3052  0.3072
 2053TIP3   OH2 6122   3.890   1.668   0.423 -0.4840 -0.7169  0.4225
 2053TIP3    H1 6123   3.958   1.716   0.470 -2.1515  0.7048  1.4948
 2053TIP3    H2 6124   3.827   1.735   0.396 -0.1577 -1.5908 -2.9986
 2054TIP3   OH2 6125   1.677   5.153   1.887  0.5683 -0.0730  0.6375
 2054TIP3    H1 6126   1.626   5.076   1.913 -1.3142  1.2483  1.0602
 2054TIP3    H2 6127   1.611   5.218   1.864  2.1216  1.1510 -0.5680
 2055TIP3   OH2 6128   6.339   1.879   2.501 -0.4089 -0.2034 -0.1083
 2055TIP3    H1 6129   6.316   1.964   2.540  0.8329  0.8710 -1.5729
 2055TIP3    H2 6130   6.428   1.863   2.531  0.6726  0.7608 -2.4897
 2056TIP3   OH2 6131   6.079   2.394   3.759 -0.1948 -0.0077  0.1758
 2056TIP3    H1 6132   6.003   2.367   3.708  0.1167  0.2720 -0.4481
 2056TIP3    H2 6133   6.058   2.368   3.849 -1.3269  0.6819  0.1308
 2057TIP3   OH2 6134   4.712   2.984   5.204 -0.0227  0.3071  0.0453
 2057TIP3    H1 6135   4.685   2.965   5.294 -0.2457  0.5887  0.0390
 2057TIP3    H2 6136   4.680   2.910   5.153 -1.0539  0.7636 -0.0097
 2058TIP3   OH2 6137   1.074   2.228   2.111  0.2155 -0.3477 -0.0618
 2058TIP3    H1 6138   1.045   2.153   2.058 -0.6760 -0.4299  0.5245
 2058TIP3    H2 6139   1.052   2.203   2.201 -0.7448  0.9224  0.0670
 2059TIP3   OH2 6140   2.743   1.902   4.789  0.4799 -0.3212  0.4281
 2059TIP3    H1 6141   2.777   1.848   4.861 -2.1885 -0.2221  1.9151
 2059TIP3    H2 6142   2.686   1.843   4.739  0.0662  0.3054  0.1364
 2060TIP3   OH2 6143   1.047   0.102   1.821  0.0922  0.2570 -0.2725
 2060TIP3    H1 6144   1.080   0.192   1.826 -1.4365  0.9590 -1.8085
 2060TIP3    H2 6145   1.126   0.047   1.823  1.2301  1.7387 -1.6491
 2061TIP3   OH2 6146   5.295   2.273   1.814  0.6698 -0.3899  0.1307
 2061TIP3    H1 6147   5.381   2.316   1.804  0.6862 -0.7357 -1.6108
 2061TIP3    H2 6148   5.233   2.336   1.778  0.4118 -0.8519 -0.2406
 2062TIP3   OH2 6149   2.834   4.135   2.821  0.1653  0.3876 -0.6305
 2062TIP3    H1 6150   2.878   4.058   2.784  1.2686  1.0567 -0.7374
 2062TIP3    H2 6151   2.836   4.200   2.750 -0.7811  0.5280 -0.5499
 2063TIP3   OH2 6152   2.748   0.974   2.263 -0.1251  0.0538 -0.3943
 2063TIP3    H1 6153   2.820   0.957   2.202 -0.3506 -0.2387 -0.5803
 2063TIP3    H2 6154   2.712   1.058   2.235 -1.2951 -0.8351 -1.7305
 2064TIP3   OH2 6155   4.788   4.488   2.755  0.4988  0.4302 -0.3356
 2064TIP3    H1 6156   4.708   4.493   2.703  0.1051  0.8019  0.2906
 2064TIP3    H2 6157   4.779   4.408   2.807 -1.0849  2.1537  2.2702
 2065TIP3   OH2 6158   2.086   6.643   3.436 -0.5247  0.2655 -0.5171
 2065TIP3    H1 6159   2.040   6.563   3.412 -2.6040  0.6030  1.9201
 2065TIP3    H2 6160   2.083   6.645   3.531  0.7767  2.5297 -0.4518
 2066TIP3   OH2 6161   1.588   5.984   2.039  0.5132 -0.0042  0.2356
 2066TIP3    H1 6162   1.605   5.894   2.013  2.4005 -0.0586  1.4964
 2066TIP3    H2 6163   1.626   6.037   1.968  0.6413 -0.1956  0.1618
 2067TIP3   OH2 6164   3.105   5.746   4.701  0.0943 -0.2286  0.1506
 2067TIP3    H1 6165   3.023   5.789   4.678 -0.9348 -0.6480  2.7699
 2067TIP3    H2 6166   3.100   5.732   4.795  3.2341 -0.1957  0.4322
 2068TIP3   OH2 6167   1.397   6.605   2.432  0.0351  0.5258  0.8915
 2068TIP3    H1 6168   1.388   6.511   2.448 -1.5691  0.8348  2.0631
 2068TIP3    H2 6169   1.310   6.633   2.404  0.6901  1.5407 -0.2600
 2069TIP3   OH2 6170   3.620   1.091   4.644 -0.3744  0.4740  0.3644
 2069TIP3    H1 6171   3.661   1.126   4.723 -2.6362  1.5617  1.1179
 2069TIP3    H2 6172   3.604   0.999   4.663  0.4819  0.3563  0.5547
 2070TIP3   OH2 6173   1.977   1.689   3.521 -0.6077 -0.6183 -0.0354
 2070TIP3    H1 6174   1.996   1.759   3.460  1.2777 -1.5246 -0.5729
 2070TIP3    H2 6175   2.011   1.720   3.605 -0.6945 -0.4719 -0.0560
 2071TIP3   OH2 6176   7.019   6.745   0.336 -0.1707 -0.1193  0.0212
 2071TIP3    H1 6177   7.086   6.678   0.322 -1.0670 -0.9297 -0.5147
 2071TIP3    H2 6178   7.056   6.802   0.404  0.8852 -0.7685  0.0212
 2072TIP3   OH2 6179   2.081   5.079   3.499  0.0077  0.5055 -0.2217
 2072TIP3    H1 6180   2.037   5.072   3.584 -0.6570 -1.7215 -0.6961
 2072TIP3    H2 6181   2.171   5.103   3.521 -0.5436  1.6558  0.9840
 2073TIP3   OH2 6182   4.930   4.039   3.983  0.3032  0.3086  0.4851
 2073TIP3    H1 6183   5.007   4.088   4.010  0.8115 -0.5107  0.5425
 2073TIP3    H2 6184   4.944   3.951   4.017  0.0088 -0.2202 -0.7142
 2074TIP3   OH2 6185   3.307   5.810   3.537  0.0206 -0.2321  0.2568
 2074TIP3    H1 6186   3.388   5.763   3.515 -0.0966 -0.4580  0.3082
 2074TIP3    H2 6187   3.328   5.860   3.616  0.4438  0.5765 -0.3476
 2075TIP3   OH2 6188   3.331   6.103   2.523  0.0153  0.3445 -0.9729
 2075TIP3    H1 6189   3.265   6.036   2.506  0.9565 -1.4026  1.5230
 2075TIP3    H2 6190   3.283   6.172   2.570 -0.5374  0.3392 -1.5235
 2076TIP3   OH2 6191   1.605   4.469   1.981  0.1800  0.0759 -0.4049
 2076TIP3    H1 6192   1.601   4.415   1.903 -1.1741  1.4645 -1.3634
 2076TIP3    H2 6193   1.698   4.474   2.003  0.3857 -2.3352 -0.4225
 2077TIP3   OH2 6194   2.913   5.570   1.378  0.9224  0.3430  0.3228
 2077TIP3    H1 6195   2.944   5.523   1.301 -0.0877  0.7069 -0.3249
 2077TIP3    H2 6196   2.873   5.650   1.344 -0.8193 -0.1500  1.0620
 2078TIP3   OH2 6197   0.170   3.159   2.459  0.0119 -0.2107  0.6323
 2078TIP3    H1 6198   0.225   3.080   2.463  1.0088  0.4211 -0.1059
 2078TIP3    H2 6199   0.228   3.230   2.487 -0.4731  0.4503 -0.0089
 2079TIP3   OH2 6200   4.248   0.411   3.919 -0.1627 -0.2384  0.1046
 2079TIP3    H1 6201   4.273   0.433   3.830 -2.3066 -1.2271 -0.8188
 2079TIP3    H2 6202   4.233   0.495   3.962  1.4544  0.2654 -0.2358
 2080TIP3   OH2 6203   6.290   5.866   5.275  1.0632 -0.1267 -0.1346
 2080TIP3    H1 6204   6.249   5.796   5.224 -0.2109  0.8104 -0.4392
 2080TIP3    H2 6205   6.293   5.831   5.365 -0.3626 -0.2639 -0.1152
 2081TIP3   OH2 6206   2.609   0.422   1.603 -0.1172 -0.1859 -0.3148
 2081TIP3    H1 6207   2.525   0.410   1.648 -0.7894  1.5802 -1.0144
 2081TIP3    H2 6208   2.590   0.482   1.531  1.8470  0.7159 -0.1590
 2082TIP3   OH2 6209   4.933   6.037   2.661  0.1004  0.4264 -0.0846
 2082TIP3    H1 6210   5.020   6.038   2.622  0.2538 -1.4548  0.1181
 2082TIP3    H2 6211   4.940   5.973   2.733 -1.7083 -0.6182 -0.7805
 2083TIP3   OH2 6212   1.321   3.743   3.740 -0.0221  0.0018 -0.0936
 2083TIP3    H1 6213   1.381   3.806   3.700  0.0802 -0.7104 -1.1364
 2083TIP3    H2 6214   1.246   3.795   3.767  0.7769  0.8119  0.6444
 2084TIP3   OH2 6215   2.488   2.484   0.957  0.3306 -0.5336 -0.0176
 2084TIP3    H1 6216   2.420   2.544   0.988 -0.6218 -1.5509 -0.0567
 2084TIP3    H2 6217   2.494   2.417   1.025  0.2466 -1.2421 -0.6954
 2085TIP3   OH2 6218   4.131   3.404   5.169 -0.3384 -0.3379  0.2315
 2085TIP3    H1 6219   4.061   3.391   5.233  0.3380  0.3800  1.1311
 2085TIP3    H2 6220   4.207   3.360   5.206  0.9682  2.7838  1.5807
 2086TIP3   OH2 6221   3.704   0.075   1.444  0.3532  0.1563 -0.2158
 2086TIP3    H1 6222   3.631   0.075   1.506 -0.5478  0.7102 -1.2425
 2086TIP3    H2 6223   3.664   0.096   1.359  1.7204  0.5626 -0.7922
 2087TIP3   OH2 6224   4.835   0.816   2.992  0.2248  0.1134  0.2115
 2087TIP3    H1 6225   4.768   0.799   3.060  0.0160 -0.8655 -0.2197
 2087TIP3    H2 6226   4.885   0.890   3.026 -1.7878  1.6439  0.0300
 2088TIP3   OH2 6227   1.978   5.214   0.510 -0.0135  0.1013 -0.0589
 2088TIP3    H1 6228   1.954   5.265   0.433 -2.3572 -1.3759 -0.3835
 2088TIP3    H2 6229   2.061   5.173   0.486  0.1999  1.0677 -1.0733
 2089TIP3   OH2 6230   3.110   3.931   3.053 -0.2602  0.4959 -0.5200
 2089TIP3    H1 6231   3.112   3.843   3.016  0.8928 -0.5795  1.9537
 2089TIP3    H2 6232   3.151   3.986   2.986  1.3387 -1.2769 -1.0685
 2090TIP3   OH2 6233   3.699   5.032   0.887 -0.0620  0.6306  0.2841
 2090TIP3    H1 6234   3.787   5.044   0.922  1.7438 -0.4204 -3.4724
 2090TIP3    H2 6235   3.687   5.106   0.827 -1.0183 -0.1420 -0.5124
 2091TIP3   OH2 6236   0.068   5.867   0.488  0.3277 -0.3929  0.3310
 2091TIP3    H1 6237   0.053   5.911   0.572  0.3304 -0.7299  0.5096
 2091TIP3    H2 6238   0.007   5.909   0.428 -1.4533 -1.8177  1.0687
 2092TIP3   OH2 6239   3.568   4.858   0.326 -0.4036  0.1670  0.2946
 2092TIP3    H1 6240   3.647   4.907   0.303 -2.5703  3.2705 -1.4069
 2092TIP3    H2 6241   3.542   4.892   0.411  0.1746 -1.0293  0.9672
 2093TIP3   OH2 6242   4.130   6.036   1.986  0.4183 -0.3998 -0.0846
 2093TIP3    H1 6243   4.102   5.945   2.000  1.0532 -0.6159 -0.1683
 2093TIP3    H2 6244   4.225   6.034   1.999  0.5760  0.0535 -1.0758
 2094TIP3   OH2 6245   3.872   5.643   1.201  0.0330 -0.0355 -0.2845
 2094TIP3    H1 6246   3.778   5.660   1.203 -0.4055 -2.0504 -0.6325
 2094TIP3    H2 6247   3.913   5.728   1.186 -1.6661  1.0188  0.7367
 2095TIP3   OH2 6248   0.780   1.401   0.092  0.1056  0.0736 -0.5680
 2095TIP3    H1 6249   0.692   1.439   0.097  0.6627  1.2902  0.5308
 2095TIP3    H2 6250   0.839   1.476   0.094  1.2419 -0.7926  1.0096
 2096TIP3   OH2 6251   4.434   3.877   2.803 -0.2765  0.1342  0.6645
 2096TIP3    H1 6252   4.361   3.898   2.860 -1.7045 -0.5845 -0.8288
 2096TIP3    H2 6253   4.402   3.897   2.715  1.6666  0.7092  0.0293
 2097TIP3   OH2 6254   5.224   0.469   2.080  0.2930  0.2811 -0.1369
 2097TIP3    H1 6255   5.298   0.503   2.130  0.7906 -1.9402  0.7682
 2097TIP3    H2 6256   5.263   0.435   2.000  0.2618 -0.7073  0.2495
 2098TIP3   OH2 6257   5.753   2.893   5.163 -0.3112 -0.1176  0.2203
 2098TIP3    H1 6258   5.714   2.980   5.153 -0.6341 -0.2992 -0.1020
 2098TIP3    H2 6259   5.828   2.894   5.104 -0.1931  0.0124  0.3705
 2099TIP3   OH2 6260   3.782   0.717   5.336  0.4986  0.4031 -0.0427
 2099TIP3    H1 6261   3.691   0.689   5.346  0.8757 -0.4478  1.2157
 2099TIP3    H2 6262   3.798   0.711   5.242 -0.8792  1.0258 -0.3440
 2100TIP3   OH2 6263   6.693   2.585   0.478 -0.5118  0.5164 -0.0722
 2100TIP3    H1 6264   6.772   2.567   0.428  0.1842  0.2498  1.1016
 2100TIP3    H2 6265   6.625   2.597   0.411  0.5159  0.8089 -1.0963
 2101TIP3   OH2 6266   3.154   4.688   2.232 -0.7987 -0.0053 -0.0466
 2101TIP3    H1 6267   3.230   4.685   2.289 -1.5139  0.6318  0.9636
 2101TIP3    H2 6268   3.159   4.608   2.180 -1.0959 -1.5323  2.1759
 2102TIP3   OH2 6269   5.443   3.357   0.980 -0.2632  0.1503  0.1983
 2102TIP3    H1 6270   5.361   3.357   1.030 -2.4947  0.8761 -3.1160
 2102TIP3    H2 6271   5.415   3.347   0.888  3.5166 -1.4796 -0.9901
 2103TIP3   OH2 6272   4.632   2.963   0.686  0.1005  0.0004 -0.3871
 2103TIP3    H1 6273   4.571   2.890   0.700 -0.5884  0.6679  0.1389
 2103TIP3    H2 6274   4.582   3.041   0.709  1.0714  0.5821 -0.2056
 2104TIP3   OH2 6275   4.866   4.359   0.879  0.3022 -0.2536  0.4873
 2104TIP3    H1 6276   4.851   4.273   0.920  0.4776 -0.4087  0.2304
 2104TIP3    H2 6277   4.779   4.394   0.865  0.2390 -0.0511  1.3005
 2105TIP3   OH2 6278   0.296   0.346   0.973 -0.6102  0.0126  0.0954
 2105TIP3    H1 6279   0.247   0.282   1.025  2.2921 -1.3163  1.3960
 2105TIP3    H2 6280   0.311   0.302   0.890  1.7823 -1.3549  1.1484
 2106TIP3   OH2 6281   0.163   6.197   2.217  0.1986 -0.4261 -0.0580
 2106TIP3    H1 6282   0.198   6.286   2.210 -1.0795  0.1218  0.1803
 2106TIP3    H2 6283   0.074   6.209   2.252  0.1465 -1.8248  0.3594
 2107TIP3   OH2 6284   4.725   0.962   1.695 -0.0897 -0.3722 -0.2448
 2107TIP3    H1 6285   4.644   0.934   1.652  0.1147 -0.6540 -0.4508
 2107TIP3    H2 6286   4.736   0.901   1.768 -0.2424 -0.1221 -0.0116
 2108TIP3   OH2 6287   1.307   6.085   4.066 -0.3765 -0.3410 -0.1661
 2108TIP3    H1 6288   1.244   6.132   4.012  0.5265 -0.8150 -1.6938
 2108TIP3    H2 6289   1.392   6.120   4.040  0.0628 -0.0009  1.5609
 2109TIP3   OH2 6290   0.186   5.957   4.398  0.1370 -0.5470  0.2669
 2109TIP3    H1 6291   0.225   6.017   4.334  1.0429 -0.9502  0.4296
 2109TIP3    H2 6292   0.226   5.983   4.482 -0.3778 -0.5938  0.5277
 2110TIP3   OH2 6293   5.073   0.430   3.037 -0.5564 -0.8768  0.1645
 2110TIP3    H1 6294   4.978   0.429   3.027 -0.4451 -0.3102 -1.1128
 2110TIP3    H2 6295   5.095   0.522   3.052 -0.3162 -1.1783  1.7292
 2111TIP3   OH2 6296   4.694   1.948   2.449 -0.0995  0.3192 -0.1800
 2111TIP3    H1 6297   4.620   1.910   2.402  0.5054 -1.2668  0.0719
 2111TIP3    H2 6298   4.754   1.875   2.462  0.7151  1.1779  1.1733
 2112TIP3   OH2 6299   3.596   3.368   2.188  0.1903 -0.2485 -0.0399
 2112TIP3    H1 6300   3.507   3.335   2.179 -0.3313  1.0546  0.0317
 2112TIP3    H2 6301   3.647   3.293   2.217 -0.2237 -1.8517 -3.1131
 2113TIP3   OH2 6302   6.296   2.269   3.631 -0.0696 -0.0942  0.0518
 2113TIP3    H1 6303   6.232   2.337   3.653  0.8736  0.3633  1.5806
 2113TIP3    H2 6304   6.338   2.301   3.551  0.5235  1.3033  0.8693
 2114TIP3   OH2 6305   4.003   1.427   3.962 -0.1540  0.1825  0.7171
 2114TIP3    H1 6306   4.057   1.506   3.971 -0.5846  1.0143 -2.5972
 2114TIP3    H2 6307   3.927   1.443   4.018  0.2169  1.7183  0.8240
 2115TIP3   OH2 6308   7.165   3.444   1.317  0.4774 -0.1838  0.0796
 2115TIP3    H1 6309   7.090   3.425   1.374  0.5585  0.2349  0.3328
 2115TIP3    H2 6310   7.241   3.439   1.375  0.7230 -1.3248 -0.3315
 2116TIP3   OH2 6311   4.296   4.519   0.753  0.3026 -0.7355 -0.3026
 2116TIP3    H1 6312   4.321   4.607   0.727 -1.1281 -0.5746 -1.1916
 2116TIP3    H2 6313   4.337   4.462   0.688  0.7041 -0.7044 -0.0861
 2117TIP3   OH2 6314   1.285   2.103   3.510  0.6090 -0.0466 -0.3427
 2117TIP3    H1 6315   1.315   2.177   3.457  0.3032 -0.4507 -1.0798
 2117TIP3    H2 6316   1.320   2.026   3.466 -0.9363 -0.4922 -0.8513
 2118TIP3   OH2 6317   5.591   2.222   0.063  0.5410  0.1650  0.8743
 2118TIP3    H1 6318   5.558   2.250  -0.022  0.4373  1.4180  1.3049
 2118TIP3    H2 6319   5.684   2.245   0.062  1.2102 -2.3376  0.0866
 2119TIP3   OH2 6320   1.718   1.060   3.013 -0.7195  0.1064  0.1946
 2119TIP3    H1 6321   1.622   1.065   3.014 -0.6434  2.2005  0.1234
 2119TIP3    H2 6322   1.741   1.064   2.920 -0.5313  0.8069  0.2672
 2120TIP3   OH2 6323   2.374   4.664   3.458 -0.1997 -0.2151 -0.4436
 2120TIP3    H1 6324   2.290   4.623   3.478  0.1020 -0.9200 -0.5967
 2120TIP3    H2 6325   2.416   4.675   3.544 -0.4349  0.1107 -0.3701
 2121TIP3   OH2 6326   1.832   1.802   2.530 -0.4018  0.1970 -0.1625
 2121TIP3    H1 6327   1.806   1.884   2.572  0.0431  0.7229 -0.8944
 2121TIP3    H2 6328   1.842   1.825   2.437 -1.8148 -1.0300 -0.6557
 2122TIP3   OH2 6329   2.599   1.432   4.563 -0.0326  0.2829  0.2651
 2122TIP3    H1 6330   2.591   1.457   4.471  0.1557 -2.3565 -0.5214
 2122TIP3    H2 6331   2.597   1.516   4.610 -0.2715  1.6923 -2.0946
 2123TIP3   OH2 6332   6.068   0.643   1.977 -0.3267 -0.2738  0.2269
 2123TIP3    H1 6333   6.008   0.645   2.052 -2.1430  0.4837 -1.1343
 2123TIP3    H2 6334   6.124   0.720   1.990 -1.5001  0.6343  0.2053
 2124TIP3   OH2 6335   1.782   0.753   0.110 -0.8662  0.1959  0.1035
 2124TIP3    H1 6336   1.842   0.739   0.037 -0.6222 -1.7388  0.6247
 2124TIP3    H2 6337   1.762   0.847   0.107  0.6854  0.5263 -1.2264
 2125TIP3   OH2 6338   3.505   1.189   2.482  0.5586  0.0030  0.2589
 2125TIP3    H1 6339   3.548   1.250   2.422 -0.3850  1.1927  0.7514
 2125TIP3    H2 6340   3.543   1.209   2.568  0.3550 -0.2150  0.4002
 2126TIP3   OH2 6341   2.148   2.416   5.018 -0.0439 -0.0708  0.8171
 2126TIP3    H1 6342   2.161   2.439   4.926 -2.5442  0.0357  0.4193
 2126TIP3    H2 6343   2.169   2.495   5.066 -0.5023  0.4650  0.1567
 2127TIP3   OH2 6344   3.848   1.635   5.155  0.5669 -0.2754 -0.2544
 2127TIP3    H1 6345   3.779   1.630   5.221  0.4150 -0.0495 -0.3931
 2127TIP3    H2 6346   3.820   1.707   5.098  1.7789  0.9909  0.6770
 2128TIP3   OH2 6347   2.082   1.482   3.140 -0.8256  0.1481 -0.2971
 2128TIP3    H1 6348   2.131   1.456   3.218  0.2887  1.2527 -0.5850
 2128TIP3    H2 6349   2.002   1.521   3.175 -1.0367 -0.7352  0.2304
 2129TIP3   OH2 6350   1.121   0.149   2.424  0.2452 -0.2415  0.3358
 2129TIP3    H1 6351   1.059   0.198   2.369  0.0707 -0.2224  0.5498
 2129TIP3    H2 6352   1.128   0.201   2.504 -1.5189 -1.5698  1.4427
 2130TIP3   OH2 6353   5.168   6.470   4.106 -0.2157 -0.3902 -0.2524
 2130TIP3    H1 6354   5.104   6.402   4.085 -0.7557  0.1938 -0.5284
 2130TIP3    H2 6355   5.129   6.519   4.178  0.1679 -0.3582 -0.0622
 2131TIP3   OH2 6356   5.917   2.911   1.325  0.0408 -0.0436 -0.4737
 2131TIP3    H1 6357   5.825   2.891   1.310  0.1522 -0.1982 -0.9516
 2131TIP3    H2 6358   5.945   2.958   1.246  0.8685 -1.6739 -1.1940
 2132TIP3   OH2 6359   4.381   0.914   1.003 -0.3056 -0.6358 -0.3323
 2132TIP3    H1 6360   4.311   0.863   0.963  1.2834 -3.8687  0.6952
 2132TIP3    H2 6361   4.354   0.924   1.094 -0.4870  0.1952 -0.4689
 2133TIP3   OH2 6362   1.502   1.198   0.887  0.1109 -0.1602  0.3733
 2133TIP3    H1 6363   1.486   1.281   0.842  1.4060  0.1680  0.4544
 2133TIP3    H2 6364   1.484   1.131   0.822  2.7056  0.3254 -0.9806
 2134TIP3   OH2 6365   1.878   0.810   2.550  0.1396 -0.2065 -0.1244
 2134TIP3    H1 6366   1.908   0.870   2.482 -0.0071 -1.0201 -0.9365
 2134TIP3    H2 6367   1.881   0.723   2.509  1.6018 -0.9464  1.4312
 2135TIP3   OH2 6368   1.898   2.278   3.809 -0.2926 -0.4264  0.3787
 2135TIP3    H1 6369   1.886   2.244   3.898  1.5514 -0.6488  0.5945
 2135TIP3    H2 6370   1.930   2.203   3.759  0.4403  0.1314 -0.0026
 2136TIP3   OH2 6371   5.478   5.190   3.824 -0.4628  0.6570  0.8808
 2136TIP3    H1 6372   5.545   5.256   3.837  1.0686 -0.6484 -0.0237
 2136TIP3    H2 6373   5.430   5.187   3.907 -0.4368  2.6919  1.0153
 2137TIP3   OH2 6374   2.462   5.543   5.624  0.4053  0.4394 -0.1715
 2137TIP3    H1 6375   2.472   5.593   5.705 -0.6723  1.1324 -0.4556
 2137TIP3    H2 6376   2.395   5.478   5.644  0.4582  0.3183 -0.3836
 2138TIP3   OH2 6377   0.620   1.417   2.850 -0.1922 -0.0559  0.0402
 2138TIP3    H1 6378   0.639   1.325   2.831  0.9460  0.0543  0.5296
 2138TIP3    H2 6379   0.702   1.463   2.830 -0.6714  0.8149  0.0306
 2139TIP3   OH2 6380   2.609   6.667   5.536 -0.3057 -0.5245  1.0742
 2139TIP3    H1 6381   2.518   6.654   5.508 -0.0103  0.3482 -0.4459
 2139TIP3    H2 6382   2.654   6.587   5.511 -0.2644 -0.1612 -0.0716
 2140TIP3   OH2 6383   4.658   5.470   5.640 -0.0506 -0.1445  0.3219
 2140TIP3    H1 6384   4.609   5.536   5.688  0.1284 -0.6950  1.3013
 2140TIP3    H2 6385   4.719   5.520   5.585 -1.6604  0.5362 -0.8935
 2141TIP3   OH2 6386   5.962   2.341   1.824  0.7207  0.2649 -0.1622
 2141TIP3    H1 6387   5.955   2.429   1.861 -0.6362 -0.3329  1.1078
 2141TIP3    H2 6388   6.053   2.316   1.840  0.8206  1.0129  0.4943
 2142TIP3   OH2 6389   6.835   6.803   2.338 -0.5015 -0.3153  0.2052
 2142TIP3    H1 6390   6.920   6.842   2.316 -0.9768  0.4565 -0.2988
 2142TIP3    H2 6391   6.855   6.711   2.356  0.3734 -0.2599 -0.4063
 2143TIP3   OH2 6392   6.160   2.955   2.481  0.0094 -0.4533  0.0020
 2143TIP3    H1 6393   6.182   2.862   2.482 -0.1492 -0.5524  2.5648
 2143TIP3    H2 6394   6.235   2.998   2.523 -0.4909  0.4069  0.0391
 2144TIP3   OH2 6395   2.004   6.493   3.030 -0.1266  0.0688  0.1994
 2144TIP3    H1 6396   1.911   6.496   3.054 -0.8528 -2.6905 -1.7705
 2144TIP3    H2 6397   2.005   6.521   2.938  1.5474  3.3164  1.0743
 2145TIP3   OH2 6398   2.923   3.643   0.660  0.2266 -0.5076 -0.3333
 2145TIP3    H1 6399   2.902   3.563   0.708  1.4855  0.1363  1.3969
 2145TIP3    H2 6400   2.983   3.691   0.718  1.2324  0.6822 -2.2427
 2146TIP3   OH2 6401   5.135   3.376   1.137 -0.5450  0.9737  0.1345
 2146TIP3    H1 6402   5.090   3.297   1.108 -1.3297  1.0321  1.1162
 2146TIP3    H2 6403   5.099   3.446   1.081  0.7149  0.5522 -1.2566
 2147TIP3   OH2 6404   7.115   6.554   4.944  0.3140  0.2812  0.3030
 2147TIP3    H1 6405   7.173   6.619   4.984 -1.0902  0.7174  1.7075
 2147TIP3    H2 6406   7.027   6.580   4.970 -0.5055 -0.6733 -1.3330
 2148TIP3   OH2 6407   2.253   2.240   4.553  0.1675 -0.2214  0.5447
 2148TIP3    H1 6408   2.295   2.157   4.530  1.0886  0.5841 -0.8689
 2148TIP3    H2 6409   2.243   2.285   4.470 -0.3197  1.0891  1.2882
 2149TIP3   OH2 6410   2.953   2.247   3.757  0.0544 -0.2269  0.2689
 2149TIP3    H1 6411   2.923   2.293   3.680  0.8022 -0.3861 -0.1309
 2149TIP3    H2 6412   2.967   2.157   3.728 -0.8599 -0.5881  0.9021
 2150TIP3   OH2 6413   1.974   5.906   0.640 -0.1670 -0.2288  0.2793
 2150TIP3    H1 6414   1.945   5.848   0.710 -1.5746  1.4345  1.1380
 2150TIP3    H2 6415   2.034   5.967   0.682  1.1405 -0.8671 -0.5737
 2151TIP3   OH2 6416   1.678   4.587   1.140 -0.2662 -0.1979 -0.4475
 2151TIP3    H1 6417   1.657   4.536   1.062 -0.8496  1.1311 -1.1895
 2151TIP3    H2 6418   1.634   4.541   1.211 -2.7759  0.5017 -1.4367
 2152TIP3   OH2 6419   1.748   5.783   1.063 -0.0385  0.5396  0.3225
 2152TIP3    H1 6420   1.766   5.693   1.091  0.7393  0.1393 -1.3259
 2152TIP3    H2 6421   1.813   5.836   1.108  0.0866  0.1598  0.5965
 2153TIP3   OH2 6422   6.258   2.850   3.482  0.1198  0.3634  0.3639
 2153TIP3    H1 6423   6.242   2.782   3.548 -1.2363  0.6864  0.4057
 2153TIP3    H2 6424   6.228   2.931   3.524  1.7451  1.0256  0.3314
 2154TIP3   OH2 6425   4.158   2.798   2.262 -0.6247 -0.3311  0.0010
 2154TIP3    H1 6426   4.192   2.753   2.185  1.5737  0.3664  0.5077
 2154TIP3    H2 6427   4.162   2.891   2.240  0.9528 -0.0551  1.2375
 2155TIP3   OH2 6428   6.022   2.705   5.577 -0.0016 -0.2178  0.2107
 2155TIP3    H1 6429   5.932   2.673   5.577  0.0607 -0.4820 -1.6073
 2155TIP3    H2 6430   6.013   2.801   5.578 -0.3538 -0.2234 -0.8525
 2156TIP3   OH2 6431   1.594   5.705   4.338  0.0380 -0.0441  0.4200
 2156TIP3    H1 6432   1.617   5.612   4.341  0.2429 -0.1912 -2.6187
 2156TIP3    H2 6433   1.500   5.707   4.356 -0.6042 -1.2658 -2.2754
 2157TIP3   OH2 6434   2.564   5.266   2.883 -0.2247 -0.2046  0.5136
 2157TIP3    H1 6435   2.531   5.187   2.842  0.6659  0.0702 -0.7989
 2157TIP3    H2 6436   2.498   5.333   2.863  1.2933  0.5196 -2.7319
 2158TIP3   OH2 6437   1.302   3.668   3.300 -0.4913 -0.8410  0.1058
 2158TIP3    H1 6438   1.281   3.694   3.210  0.4681 -2.1394 -0.5393
 2158TIP3    H2 6439   1.222   3.630   3.334 -1.1723  0.6163  0.1908
 2159TIP3   OH2 6440   0.513   1.774   0.305 -0.2831 -0.3751  0.0426
 2159TIP3    H1 6441   0.542   1.783   0.396 -0.9028  2.3359  0.0490
 2159TIP3    H2 6442   0.439   1.834   0.298 -0.2416 -0.5268 -2.2689
 2160TIP3   OH2 6443   0.880   0.417   1.960  0.3141 -0.0811 -0.4999
 2160TIP3    H1 6444   0.786   0.420   1.942  0.4132 -0.0915 -1.0139
 2160TIP3    H2 6445   0.922   0.452   1.881  0.7468 -0.1363 -0.3002
 2161TIP3   OH2 6446   4.447   5.039   4.496  0.5382 -0.3926 -0.7185
 2161TIP3    H1 6447   4.442   4.959   4.444  0.1218  0.8525 -2.7143
 2161TIP3    H2 6448   4.368   5.088   4.472  0.5118  0.4023  0.8509
 2162TIP3   OH2 6449   0.751   5.663   5.693  0.2204  0.1147  0.6470
 2162TIP3    H1 6450   0.800   5.634   5.616  2.2591 -0.1400  1.9715
 2162TIP3    H2 6451   0.713   5.747   5.666 -0.7537 -0.8740 -1.2485
 2163TIP3   OH2 6452   2.269   5.586   4.786 -0.1552  0.2979  0.0203
 2163TIP3    H1 6453   2.192   5.639   4.806 -0.7177  0.8891 -3.2246
 2163TIP3    H2 6454   2.343   5.642   4.810 -0.7014  0.3341  1.7214
 2164TIP3   OH2 6455   0.780   2.240   2.505 -0.1046 -0.0161  0.1442
 2164TIP3    H1 6456   0.776   2.253   2.599 -1.0240 -1.6368  0.3646
 2164TIP3    H2 6457   0.690   2.217   2.480  0.2732 -0.3492 -0.9915
 2165TIP3   OH2 6458   1.790   0.352   2.151  0.1238 -0.5589 -0.2936
 2165TIP3    H1 6459   1.715   0.294   2.135 -0.0629 -0.6861  0.9272
 2165TIP3    H2 6460   1.757   0.414   2.216  0.7951 -0.0282 -0.4595
 2166TIP3   OH2 6461   1.843   0.896   4.440  0.1407  0.1402  0.5220
 2166TIP3    H1 6462   1.907   0.838   4.481  0.0562 -0.2676  0.0933
 2166TIP3    H2 6463   1.764   0.843   4.433  0.8133 -0.7088 -2.3856
 2167TIP3   OH2 6464   1.692   5.075   1.590 -0.6506 -0.2716 -0.1757
 2167TIP3    H1 6465   1.772   5.068   1.538 -1.6542 -0.3849 -1.7712
 2167TIP3    H2 6466   1.696   5.001   1.651  1.8371  1.3612  1.8847
 2168TIP3   OH2 6467   4.739   1.121   0.088 -0.6088 -0.0100 -0.2169
 2168TIP3    H1 6468   4.646   1.133   0.072 -0.3489  0.9883 -1.1339
 2168TIP3    H2 6469   4.781   1.142   0.004  0.4644 -0.0042  0.2964
 2169TIP3   OH2 6470   5.700   5.054   2.405  0.4779 -0.2940 -0.5001
 2169TIP3    H1 6471   5.788   5.061   2.369  0.3199 -0.5440 -0.9422
 2169TIP3    H2 6472   5.706   5.094   2.492  0.7470  0.7450 -0.9866
 2170TIP3   OH2 6473   6.519   3.040   2.899  0.4046 -0.5457 -0.1490
 2170TIP3    H1 6474   6.612   3.020   2.887  0.1556 -0.9971 -1.5783
 2170TIP3    H2 6475   6.518   3.131   2.929  1.2740  0.0371 -1.7466
 2171TIP3   OH2 6476   4.677   6.665   4.037 -0.1868 -0.6383 -0.0122
 2171TIP3    H1 6477   4.741   6.680   4.107  0.5780 -0.1781 -0.7880
 2171TIP3    H2 6478   4.728   6.623   3.968 -0.6910 -0.1427 -0.6971
 2172TIP3   OH2 6479   6.509   5.257   0.932  0.1382  0.0059 -0.1875
 2172TIP3    H1 6480   6.551   5.343   0.928 -0.1727  0.1528 -0.4134
 2172TIP3    H2 6481   6.450   5.262   1.007 -0.1875  0.1381 -0.4478
 2173TIP3   OH2 6482   3.792   4.620   5.414  0.1724  0.1304 -0.4764
 2173TIP3    H1 6483   3.866   4.624   5.353  1.3022 -1.3122  0.6807
 2173TIP3    H2 6484   3.724   4.673   5.374  1.7162  1.2227 -1.7823
 2174TIP3   OH2 6485   5.559   2.866   0.169  0.0318  0.1955  0.0377
 2174TIP3    H1 6486   5.550   2.944   0.115  0.3531 -0.4355 -0.9717
 2174TIP3    H2 6487   5.469   2.844   0.195 -0.1165  0.5817 -0.1367
 2175TIP3   OH2 6488   3.133   0.433   1.547  0.4756  0.8224 -0.0162
 2175TIP3    H1 6489   3.047   0.422   1.589  0.2186  0.0114 -0.7389
 2175TIP3    H2 6490   3.137   0.527   1.527  0.2317  1.0682  1.0034
 2176TIP3   OH2 6491   5.540   0.607   5.798 -0.2604  0.3657 -0.1473
 2176TIP3    H1 6492   5.514   0.593   5.707 -0.3662  0.0506 -0.0718
 2176TIP3    H2 6493   5.600   0.535   5.817 -3.2114 -1.9713  1.2026
 2177TIP3   OH2 6494   5.051   2.251   0.547 -0.5213  0.1783  0.0251
 2177TIP3    H1 6495   4.967   2.212   0.521 -0.1937 -0.7279  0.3117
 2177TIP3    H2 6496   5.079   2.200   0.623  0.7818 -0.1931 -0.6795
 2178TIP3   OH2 6497   4.700   3.553   4.513  0.1551 -0.6960  0.2591
 2178TIP3    H1 6498   4.705   3.582   4.421  0.9124  0.6242  0.6785
 2178TIP3    H2 6499   4.790   3.532   4.536 -0.1266 -1.6399  0.5317
 2179TIP3   OH2 6500   0.728   4.884   5.515  0.3078 -0.1764 -0.5004
 2179TIP3    H1 6501   0.656   4.878   5.578  1.6724  1.8639  1.4303
 2179TIP3    H2 6502   0.804   4.852   5.564  1.0103 -0.7991 -1.9597
 2180TIP3   OH2 6503   2.549   0.239   0.368 -0.3251 -0.2574 -0.4497
 2180TIP3    H1 6504   2.494   0.274   0.298  0.8713  0.5038 -1.0349
 2180TIP3    H2 6505   2.544   0.144   0.356 -1.1551 -0.1861 -0.7566
 2181TIP3   OH2 6506   2.165   4.222   1.497 -0.4978  0.5010  0.1064
 2181TIP3    H1 6507   2.160   4.205   1.403 -0.3636  2.5183 -0.3193
 2181TIP3    H2 6508   2.258   4.238   1.514 -0.4297 -0.4715  0.7231
 2182TIP3   OH2 6509   4.308   4.807   1.677  0.0281  0.9804  0.0875
 2182TIP3    H1 6510   4.351   4.735   1.630 -0.6854  0.2358  0.5615
 2182TIP3    H2 6511   4.269   4.861   1.608  0.8285  1.0951 -0.2899
 2183TIP3   OH2 6512   5.183   4.287   4.989  0.1578  0.0323  0.1012
 2183TIP3    H1 6513   5.150   4.351   4.927 -0.8224  1.9935  2.4573
 2183TIP3    H2 6514   5.171   4.202   4.946 -0.5526  1.2536 -2.2575
 2184TIP3   OH2 6515   2.104   3.957   0.310 -0.3718  0.1495 -0.6063
 2184TIP3    H1 6516   2.120   4.002   0.227  2.5697  0.6352  0.1112
 2184TIP3    H2 6517   2.188   3.917   0.332 -0.9448  0.3335  2.3011
 2185TIP3   OH2 6518   6.307   4.106   2.739  0.1406  0.3577  0.4170
 2185TIP3    H1 6519   6.350   4.186   2.711 -0.7175  0.2902 -1.2231
 2185TIP3    H2 6520   6.262   4.074   2.661 -0.4016 -1.1626  1.2999
 2186TIP3   OH2 6521   6.770   4.819   5.737 -0.5261  0.5348  0.6031
 2186TIP3    H1 6522   6.806   4.774   5.813  1.8063  0.6839 -0.3345
 2186TIP3    H2 6523   6.693   4.767   5.712  0.4815 -1.3300  1.2016
 2187TIP3   OH2 6524   5.232   4.426   3.433  0.6493 -0.3931  0.2192
 2187TIP3    H1 6525   5.229   4.330   3.439  1.1743 -0.4269  0.0185
 2187TIP3    H2 6526   5.258   4.455   3.520 -2.1250 -0.2617  1.0945
 2188TIP3   OH2 6527   5.954   3.147   4.439 -0.0337 -0.3895  0.5837
 2188TIP3    H1 6528   5.882   3.090   4.412 -0.6639  0.0281  1.3283
 2188TIP3    H2 6529   5.993   3.104   4.515  0.3256 -0.4737  0.3548
 2189TIP3   OH2 6530   4.132   0.738   3.359  0.0091 -0.0228  0.1466
 2189TIP3    H1 6531   4.098   0.763   3.273  1.5548  1.4338 -0.0888
 2189TIP3    H2 6532   4.065   0.769   3.420  1.3903  4.2086 -0.1995
 2190TIP3   OH2 6533   6.016   3.550   3.471 -0.5892  0.0822 -0.9260
 2190TIP3    H1 6534   5.943   3.491   3.492  0.7604 -1.1533  0.6168
 2190TIP3    H2 6535   6.031   3.538   3.378 -0.1670 -2.3441 -0.6063
 2191TIP3   OH2 6536   3.066   6.063   4.554  0.2629  0.3624 -0.1699
 2191TIP3    H1 6537   2.980   6.080   4.591  0.2095 -1.0538  0.4221
 2191TIP3    H2 6538   3.128   6.095   4.620  0.1667 -1.6214  0.9615
 2192TIP3   OH2 6539   5.551   2.373   1.722 -0.1758  0.0992 -0.1525
 2192TIP3    H1 6540   5.535   2.440   1.654 -2.1402 -0.5481 -0.3899
 2192TIP3    H2 6541   5.561   2.292   1.673  1.1606  0.0320  0.2038
 2193TIP3   OH2 6542   1.355   3.143   3.681 -0.1001 -0.3931 -0.3202
 2193TIP3    H1 6543   1.363   3.050   3.660  0.7373  0.2975 -3.6392
 2193TIP3    H2 6544   1.444   3.172   3.699 -0.5338 -0.4627  2.2073
 2194TIP3   OH2 6545   2.469   6.295   3.555 -0.2715  0.6255 -0.1736
 2194TIP3    H1 6546   2.506   6.258   3.474 -1.7742 -2.0076  0.2450
 2194TIP3    H2 6547   2.522   6.258   3.625  0.6027  2.3814  0.1527
 2195TIP3   OH2 6548   3.541   0.364   4.264 -0.0751  0.8443 -0.2330
 2195TIP3    H1 6549   3.480   0.429   4.228 -1.9505 -1.4589 -1.4798
 2195TIP3    H2 6550   3.493   0.325   4.338  0.6101  0.1796 -0.1315
 2196TIP3   OH2 6551   2.919   5.007   1.939  0.1402  0.3728  0.2741
 2196TIP3    H1 6552   2.946   4.924   1.899 -1.1919  0.9321 -1.9965
 2196TIP3    H2 6553   2.977   5.072   1.898 -1.4594  1.0000 -1.1171
 2197TIP3   OH2 6554   4.205   2.743   5.408 -0.2661  0.5629 -0.2195
 2197TIP3    H1 6555   4.123   2.697   5.422  0.0888  0.1212  0.4049
 2197TIP3    H2 6556   4.273   2.677   5.420  0.3062  1.4234  1.7074
 2198TIP3   OH2 6557   5.475   5.254   1.852  0.3691  0.2616  0.5321
 2198TIP3    H1 6558   5.560   5.231   1.814  0.2916  0.1672  0.4143
 2198TIP3    H2 6559   5.488   5.246   1.946 -0.3007 -2.5922  0.4496
 2199TIP3   OH2 6560   7.061   3.715   4.889  0.1288 -0.3486 -0.0299
 2199TIP3    H1 6561   7.055   3.662   4.809  1.1429  0.5776 -0.7526
 2199TIP3    H2 6562   7.131   3.778   4.870 -1.8636  2.1075  0.2712
 2200TIP3   OH2 6563   1.759   1.898   3.550  0.3855  0.2110  0.2329
 2200TIP3    H1 6564   1.757   1.852   3.634  0.5089 -0.0150  0.1122
 2200TIP3    H2 6565   1.800   1.837   3.490  1.3218  0.7896  0.2591
 2201TIP3   OH2 6566   2.459   5.507   1.801 -0.2910  0.1353  0.0262
 2201TIP3    H1 6567   2.499   5.555   1.728  0.2296  0.2521  0.3815
 2201TIP3    H2 6568   2.533   5.476   1.852 -0.6592  0.8953  1.0581
 2202TIP3   OH2 6569   3.718   4.881   2.486  0.4437 -0.1219  0.2026
 2202TIP3    H1 6570   3.749   4.972   2.484 -0.9301  0.3773 -0.0527
 2202TIP3    H2 6571   3.676   4.868   2.400 -0.2699 -0.6460  0.6164
 2203TIP3   OH2 6572   6.258   2.961   4.839  0.2928 -0.6995 -0.6819
 2203TIP3    H1 6573   6.244   3.022   4.767  2.3482  0.2194 -0.4019
 2203TIP3    H2 6574   6.284   2.879   4.797  0.3093 -0.5286 -1.0093
 2204TIP3   OH2 6575   5.239   5.306   2.555  0.3369  0.1830  0.5376
 2204TIP3    H1 6576   5.197   5.222   2.540 -1.7187  1.1390  0.6267
 2204TIP3    H2 6577   5.280   5.297   2.641  0.5321 -0.8548  0.3512
 2205TIP3   OH2 6578   6.773   0.003   3.048  0.2389 -0.0031  0.7623
 2205TIP3    H1 6579   6.737  -0.001   2.959 -1.7054  0.7291  1.4711
 2205TIP3    H2 6580   6.812   0.090   3.054  0.1430  0.0435  0.7120
 2206TIP3   OH2 6581   1.086   5.004   0.720  0.0597  0.2136  0.5171
 2206TIP3    H1 6582   1.082   5.022   0.626 -0.1296 -0.8401  0.3161
 2206TIP3    H2 6583   1.136   5.077   0.756 -1.0021  1.3511 -0.2105
 2207TIP3   OH2 6584   2.069   6.083   1.386 -0.3271  0.2248  0.0567
 2207TIP3    H1 6585   2.107   6.009   1.338 -1.2124 -0.4521  0.3627
 2207TIP3    H2 6586   2.129   6.155   1.369  0.2977 -0.4317 -0.6658
 2208TIP3   OH2 6587   0.004   0.128   3.311 -0.1468  0.4862  0.3399
 2208TIP3    H1 6588   0.012   0.144   3.405 -0.4186  0.2671  0.4019
 2208TIP3    H2 6589   0.027   0.212   3.271  1.3406  0.2007  0.5355
 2209TIP3   OH2 6590   6.103   3.749   1.167  0.3174 -0.4740 -0.3522
 2209TIP3    H1 6591   6.025   3.803   1.178  1.2320  0.8921 -0.2908
 2209TIP3    H2 6592   6.070   3.663   1.141 -1.1289  0.7428 -2.9925
 2210TIP3   OH2 6593   2.529   2.101   2.255  0.2341 -0.5954 -0.8481
 2210TIP3    H1 6594   2.569   2.062   2.178  0.2816  0.6038 -1.4505
 2210TIP3    H2 6595   2.503   2.189   2.227  0.0256 -0.2321  0.4255
 2211TIP3   OH2 6596   4.682   2.037   0.035 -0.4868 -0.4257 -0.0783
 2211TIP3    H1 6597   4.632   2.116   0.019  1.3426  1.6912  3.4235
 2211TIP3    H2 6598   4.737   2.027  -0.043  0.0067  2.4480 -0.1943
 2212TIP3   OH2 6599   1.368   0.593   4.583 -0.2466  0.2624 -0.0134
 2212TIP3    H1 6600   1.352   0.501   4.602  0.7739 -0.1870 -1.2169
 2212TIP3    H2 6601   1.455   0.610   4.619  0.1930  0.3447 -1.0773
 2213TIP3   OH2 6602   1.877   1.455   2.832  0.0965  0.1102 -0.2454
 2213TIP3    H1 6603   1.836   1.416   2.909  0.1445  0.6040  0.0323
 2213TIP3    H2 6604   1.967   1.472   2.859  0.3520 -0.5063 -0.6903
 2214TIP3   OH2 6605   3.442   3.382   5.003  0.5332  0.1032  0.4793
 2214TIP3    H1 6606   3.398   3.403   5.086 -2.6703 -0.0456 -1.0100
 2214TIP3    H2 6607   3.473   3.293   5.014 -0.2706 -0.0902  1.3802
 2215TIP3   OH2 6608   1.485   2.971   5.496 -0.2583 -0.2943 -0.6479
 2215TIP3    H1 6609   1.566   3.009   5.461 -0.4794  0.1877 -0.6406
 2215TIP3    H2 6610   1.429   2.958   5.420  0.7164 -2.9785 -1.0537
 2216TIP3   OH2 6611   1.976   2.684   3.572 -0.2739 -0.3643  0.2794
 2216TIP3    H1 6612   1.925   2.604   3.558  0.7845 -0.8254 -1.1235
 2216TIP3    H2 6613   1.950   2.742   3.501  0.6675 -0.3626 -0.0781
 2217TIP3   OH2 6614   6.436   5.727   0.122 -0.4535 -0.5445  0.0528
 2217TIP3    H1 6615   6.460   5.803   0.176 -1.3875 -0.3821  0.2557
 2217TIP3    H2 6616   6.520   5.692   0.092 -0.0345  1.7994 -1.7944
 2218TIP3   OH2 6617   1.919   5.901   5.564 -0.8744  0.4449  0.3236
 2218TIP3    H1 6618   2.011   5.875   5.569 -0.6883  1.3244  1.7218
 2218TIP3    H2 6619   1.904   5.918   5.471  0.1722 -0.4076 -0.0129
 2219TIP3   OH2 6620   6.467   5.825   2.390  0.0139 -0.3681 -0.4980
 2219TIP3    H1 6621   6.504   5.737   2.383  1.7558  0.2860 -0.0710
 2219TIP3    H2 6622   6.532   5.882   2.349 -0.8631  0.7804 -0.3528
 2220TIP3   OH2 6623   3.967   4.209   3.309 -0.1701 -0.2299 -0.5496
 2220TIP3    H1 6624   3.937   4.166   3.389  0.3653  0.2862 -0.0597
 2220TIP3    H2 6625   4.056   4.177   3.296  0.6582  1.4875  0.4355
 2221TIP3   OH2 6626   0.144   6.361   1.233  0.3381 -0.5959 -0.2724
 2221TIP3    H1 6627   0.136   6.265   1.232 -1.6419 -0.4933  0.7273
 2221TIP3    H2 6628   0.203   6.381   1.160 -0.4458 -2.4715 -1.4855
 2222TIP3   OH2 6629   2.313   6.324   0.193  0.5573  0.9250 -0.1665
 2222TIP3    H1 6630   2.248   6.366   0.249 -0.4266 -0.4460 -0.2183
 2222TIP3    H2 6631   2.265   6.252   0.151  1.6377  1.0441 -1.6624
 2223TIP3   OH2 6632   1.491   6.268   1.144 -0.0859 -0.4904 -0.2404
 2223TIP3    H1 6633   1.432   6.206   1.187  0.6004 -1.1747 -0.2695
 2223TIP3    H2 6634   1.436   6.313   1.080 -0.4812 -1.4522 -0.5970
 2224TIP3   OH2 6635   3.325   2.459   2.342 -0.0481 -0.0924  0.4899
 2224TIP3    H1 6636   3.259   2.401   2.382 -1.4404  1.5283  0.6499
 2224TIP3    H2 6637   3.275   2.511   2.279  0.9410  1.6933  1.1388
 2225TIP3   OH2 6638   0.182   5.684   3.611 -0.5924 -0.1267 -0.2788
 2225TIP3    H1 6639   0.175   5.639   3.695 -0.7147 -1.3856 -0.9308
 2225TIP3    H2 6640   0.227   5.766   3.631  0.3596 -0.8923  0.8492
 2226TIP3   OH2 6641   2.307   0.782   4.253 -0.3895 -0.1036  0.0842
 2226TIP3    H1 6642   2.297   0.693   4.286  0.7076 -0.4315 -0.3972
 2226TIP3    H2 6643   2.388   0.779   4.202 -1.1666  0.7701 -1.2691
 2227TIP3   OH2 6644   7.007   3.967   4.361  0.3630 -0.3362 -0.1051
 2227TIP3    H1 6645   7.013   4.001   4.272  1.4305 -1.5867 -0.5477
 2227TIP3    H2 6646   7.092   3.988   4.400  1.1465 -2.5426 -0.4622
 2228TIP3   OH2 6647   3.838   2.671   3.601 -0.6108  0.5047 -0.3901
 2228TIP3    H1 6648   3.847   2.610   3.674  1.0243  0.8920 -0.2170
 2228TIP3    H2 6649   3.894   2.634   3.532 -1.4532  0.5981 -1.1380
 2229TIP3   OH2 6650   5.680   4.988   2.783 -0.1874 -0.8772 -0.3769
 2229TIP3    H1 6651   5.680   5.066   2.727 -0.0208  0.1745  1.0504
 2229TIP3    H2 6652   5.768   4.985   2.820 -0.4916 -1.1890  0.3367
 2230TIP3   OH2 6653   1.582   6.072   3.936 -0.1096 -0.2111 -0.3080
 2230TIP3    H1 6654   1.659   6.064   3.992 -0.6736  0.8286  0.6639
 2230TIP3    H2 6655   1.550   5.983   3.926  0.9852 -0.6084 -0.3947
 2231TIP3   OH2 6656   1.769   6.548   1.952  0.2189 -0.2396 -0.2880
 2231TIP3    H1 6657   1.747   6.499   1.873 -1.2454  0.4613 -0.3424
 2231TIP3    H2 6658   1.694   6.535   2.010  1.5863 -1.3777  1.3496
 2232TIP3   OH2 6659   1.181   0.916   3.382  0.6453 -0.3111 -0.2057
 2232TIP3    H1 6660   1.248   0.965   3.333  1.2183  0.6145  1.4388
 2232TIP3    H2 6661   1.220   0.830   3.398  0.5437 -0.5414 -1.1343
 2233TIP3   OH2 6662   2.077   1.685   5.657  0.3287  0.2597  0.1677
 2233TIP3    H1 6663   2.100   1.645   5.740 -0.3088 -0.3053  0.0852
 2233TIP3    H2 6664   2.044   1.772   5.680 -3.7780 -1.2983  1.0097
 2234TIP3   OH2 6665   6.674   0.585   1.192  1.2559  0.9679  0.1277
 2234TIP3    H1 6666   6.584   0.559   1.174  1.6899 -2.3147  1.9231
 2234TIP3    H2 6667   6.671   0.622   1.280  1.7649 -0.2414  0.6787
 2235TIP3   OH2 6668   6.324   4.479   1.616  0.0999  0.3601  0.0289
 2235TIP3    H1 6669   6.307   4.562   1.661 -0.6537 -0.1702  0.7672
 2235TIP3    H2 6670   6.404   4.494   1.567  1.2144  0.8529  1.8842
 2236TIP3   OH2 6671   4.097   6.644   0.036 -0.0154 -0.0601  0.2402
 2236TIP3    H1 6672   4.081   6.726   0.082 -1.7415  0.0463 -0.4683
 2236TIP3    H2 6673   4.124   6.583   0.105 -2.8458 -0.0112  1.5625
 2237TIP3   OH2 6674   4.934   5.890   1.520 -0.3339 -0.3867 -0.1090
 2237TIP3    H1 6675   5.008   5.831   1.536 -0.1670 -0.1010  0.1834
 2237TIP3    H2 6676   4.928   5.895   1.425 -0.6104 -1.1983 -0.1432
 2238TIP3   OH2 6677   2.442   4.893   2.216 -0.3147 -0.7766 -0.2317
 2238TIP3    H1 6678   2.416   4.924   2.303 -1.7707 -1.2852 -0.4476
 2238TIP3    H2 6679   2.527   4.933   2.200 -1.4564  1.9982  0.0714
 2239TIP3   OH2 6680   0.955   6.409   5.163 -0.3522  0.1912 -0.3959
 2239TIP3    H1 6681   0.929   6.501   5.161 -1.3466 -0.0693 -0.0129
 2239TIP3    H2 6682   0.883   6.364   5.208  1.2632 -0.4009  1.7920
 2240TIP3   OH2 6683   3.390   6.228   1.666 -0.3155  0.1948  0.2604
 2240TIP3    H1 6684   3.322   6.285   1.704  0.0829  1.2183 -0.5171
 2240TIP3    H2 6685   3.471   6.277   1.677 -0.0221 -0.0233 -0.8275
 2241TIP3   OH2 6686   3.410   5.205   4.143 -0.1843  0.1743 -0.4283
 2241TIP3    H1 6687   3.464   5.184   4.219 -0.5931 -1.5714 -0.5792
 2241TIP3    H2 6688   3.459   5.172   4.068 -0.8874 -0.3460 -0.6734
 2242TIP3   OH2 6689   5.744   1.086   4.495 -0.2077  0.3183 -0.8195
 2242TIP3    H1 6690   5.764   1.036   4.574 -1.1200 -0.7916 -1.2522
 2242TIP3    H2 6691   5.655   1.120   4.509 -0.3871  0.0925 -1.3617
 2243TIP3   OH2 6692   6.477   1.484   2.998 -0.5508  0.2157 -0.1408
 2243TIP3    H1 6693   6.388   1.478   2.964 -1.4319  0.8289  1.8640
 2243TIP3    H2 6694   6.500   1.577   2.988  0.1645 -0.0765 -1.3124
 2244TIP3   OH2 6695   2.854   2.689   5.551 -0.2248 -0.1575  0.0017
 2244TIP3    H1 6696   2.799   2.622   5.511 -0.4884  0.5103 -0.8016
 2244TIP3    H2 6697   2.912   2.717   5.481 -0.6789  1.0237  0.0641
 2245TIP3   OH2 6698   2.534   4.716   0.967 -0.2627  0.0795  0.4370
 2245TIP3    H1 6699   2.494   4.641   0.922  0.9288 -0.5070  0.3016
 2245TIP3    H2 6700   2.476   4.790   0.947 -0.8074 -0.5647 -0.4540
 2246TIP3   OH2 6701   6.072   2.994   5.567 -0.3650  0.1425  0.0597
 2246TIP3    H1 6702   6.043   3.073   5.613 -1.3709  0.3216 -0.8207
 2246TIP3    H2 6703   6.000   2.975   5.506  0.2419 -0.9663 -0.3350
 2247TIP3   OH2 6704   6.118   2.768   0.588  0.0278  0.8959 -0.0818
 2247TIP3    H1 6705   6.078   2.852   0.566  1.8662  1.7035 -0.5274
 2247TIP3    H2 6706   6.210   2.777   0.560  0.5663 -0.8129  0.9989
 2248TIP3   OH2 6707   3.873   0.296   4.742 -0.8401  0.3567 -0.0662
 2248TIP3    H1 6708   3.857   0.281   4.649  1.2844 -1.1191 -0.2420
 2248TIP3    H2 6709   3.937   0.367   4.745 -0.1368 -0.2730  0.2005
 2249TIP3   OH2 6710   3.625   3.680   2.948  0.1394 -0.4703 -0.9308
 2249TIP3    H1 6711   3.652   3.605   3.000 -1.8768 -1.1655 -0.8080
 2249TIP3    H2 6712   3.529   3.676   2.947  0.0433  0.8488 -2.7613
 2250TIP3   OH2 6713   5.569   6.651   2.172  0.3151 -0.8315 -0.5527
 2250TIP3    H1 6714   5.569   6.658   2.267  3.5060 -2.5914 -0.2877
 2250TIP3    H2 6715   5.646   6.700   2.144 -0.5591 -0.3594 -2.2589
 2251TIP3   OH2 6716   0.183   2.901   4.838  0.5086  0.2229 -0.5560
 2251TIP3    H1 6717   0.099   2.861   4.859  0.5254  0.3243 -0.2993
 2251TIP3    H2 6718   0.201   2.961   4.910  0.8409  0.1415 -0.5652
 2252TIP3   OH2 6719   7.048   0.922   2.469  0.1266  0.4055  0.3574
 2252TIP3    H1 6720   7.080   1.001   2.426  2.0162 -0.8093 -0.6317
 2252TIP3    H2 6721   7.123   0.889   2.519 -0.2334 -1.3470 -0.1819
 2253TIP3   OH2 6722   5.057   2.008   2.675 -0.1796 -0.3686  0.1882
 2253TIP3    H1 6723   5.059   2.004   2.771 -1.0471  0.7446  0.2682
 2253TIP3    H2 6724   5.048   2.101   2.655 -2.0446 -0.7222 -0.9059
 2254TIP3   OH2 6725   2.071   1.603   2.328 -0.4701 -0.0196 -0.0610
 2254TIP3    H1 6726   2.103   1.567   2.411 -1.3093  0.0904  0.3249
 2254TIP3    H2 6727   2.146   1.597   2.268  0.5091  0.9314  1.0109
 2255TIP3   OH2 6728   0.444  -0.011   4.359 -0.3191  0.0747 -0.0871
 2255TIP3    H1 6729   0.454   0.040   4.439 -0.4769 -0.3554  0.2116
 2255TIP3    H2 6730   0.524   0.007   4.309  0.5077 -0.8603  0.8599
 2256TIP3   OH2 6731   0.794   3.842   1.951 -0.4525 -0.1263  0.0913
 2256TIP3    H1 6732   0.719   3.810   1.901 -0.0243  0.4041 -0.9173
 2256TIP3    H2 6733   0.864   3.779   1.931 -0.6217 -0.6320  1.0448
 2257TIP3   OH2 6734   1.296   2.072   1.699  0.7773 -0.0230  0.0217
 2257TIP3    H1 6735   1.205   2.091   1.673  1.6721  2.3620 -1.8152
 2257TIP3    H2 6736   1.348   2.102   1.625  3.0764 -2.1543  0.6453
 2258TIP3   OH2 6737   0.888   1.975   5.825  0.3851 -0.2885  0.4535
 2258TIP3    H1 6738   0.821   2.034   5.860 -1.5312 -1.8091 -0.4464
 2258TIP3    H2 6739   0.954   2.032   5.786 -0.9153  1.2454  0.4335
 2259TIP3   OH2 6740   5.960   5.256   5.850  0.0974  0.1248 -0.3116
 2259TIP3    H1 6741   5.875   5.286   5.817  0.5408  0.0702 -1.5403
 2259TIP3    H2 6742   5.992   5.195   5.784  0.8490 -0.2870  0.4079
 2260TIP3   OH2 6743   7.030   1.968   0.293 -0.6069 -0.2902 -0.1194
 2260TIP3    H1 6744   6.957   1.933   0.241 -1.8106 -1.0327  1.9089
 2260TIP3    H2 6745   7.052   2.051   0.252 -2.0553 -0.4362 -1.2794
 2261TIP3   OH2 6746   0.983   2.645   1.179  0.3778 -0.4502 -0.1305
 2261TIP3    H1 6747   0.985   2.593   1.099 -0.5840 -0.1896 -0.3331
 2261TIP3    H2 6748   0.901   2.694   1.174  0.7081  0.2046  0.6144
 2262TIP3   OH2 6749   1.841   0.206   3.970 -0.0624 -0.0125 -0.1582
 2262TIP3    H1 6750   1.779   0.205   4.043 -1.2866  0.4534 -1.1573
 2262TIP3    H2 6751   1.897   0.130   3.985 -0.3353  0.0458  1.2267
 2263TIP3   OH2 6752   4.050   3.676   1.544  0.3152 -0.2306  0.1383
 2263TIP3    H1 6753   4.049   3.592   1.591 -1.1765  0.0183  0.6135
 2263TIP3    H2 6754   3.964   3.681   1.502  0.3128  1.1404  0.2534
 2264TIP3   OH2 6755   5.662   6.124   3.256 -0.7254  0.7413  0.4138
 2264TIP3    H1 6756   5.605   6.132   3.180  0.2730 -0.5607 -0.5110
 2264TIP3    H2 6757   5.664   6.030   3.275 -0.6078  0.9990  1.7883
 2265TIP3   OH2 6758   0.315   6.263   1.730 -0.5535 -0.2794  0.0892
 2265TIP3    H1 6759   0.221   6.282   1.729 -0.3251  1.1980  1.8764
 2265TIP3    H2 6760   0.334   6.239   1.820  1.2126  2.1252  0.4623
 2266TIP3   OH2 6761   2.488   0.317   2.656 -0.6406 -0.0687 -0.4890
 2266TIP3    H1 6762   2.549   0.295   2.586 -0.2372  0.9968 -0.4850
 2266TIP3    H2 6763   2.513   0.261   2.729  1.3310  1.3655  0.0184
 2267TIP3   OH2 6764   6.839   2.754   4.664 -0.0327 -0.1498 -0.4368
 2267TIP3    H1 6765   6.880   2.683   4.615  0.4539 -0.3988  0.3185
 2267TIP3    H2 6766   6.849   2.831   4.609  1.1709 -0.2734 -0.4129
 2268TIP3   OH2 6767   1.157   0.136   3.747  0.2945  0.5998  0.3828
 2268TIP3    H1 6768   1.235   0.178   3.783  0.8728 -0.5838  0.5598
 2268TIP3    H2 6769   1.092   0.143   3.817  0.4302  1.0501  0.4690
 2269TIP3   OH2 6770   5.563   4.187   4.096  0.8326  0.0934 -0.4626
 2269TIP3    H1 6771   5.630   4.249   4.123 -0.1030  1.1502 -0.5044
 2269TIP3    H2 6772   5.555   4.126   4.169  1.2074  0.4906 -0.0894
 2270TIP3   OH2 6773   4.716   0.856   5.775  0.7947 -0.0983  0.3180
 2270TIP3    H1 6774   4.686   0.903   5.697  0.1168  1.5274  1.4916
 2270TIP3    H2 6775   4.637   0.813   5.808  0.5972  0.8913  1.1928
 2271TIP3   OH2 6776   5.931   3.516   2.974  0.4424 -0.1986  0.1038
 2271TIP3    H1 6777   5.959   3.571   2.900 -0.7927  2.7534  1.6670
 2271TIP3    H2 6778   5.912   3.431   2.934  1.4387  0.7522 -2.6794
 2272TIP3   OH2 6779   2.389   3.994   5.518 -0.1216 -0.5567 -0.3928
 2272TIP3    H1 6780   2.325   4.027   5.581 -0.8031  0.1183 -1.4155
 2272TIP3    H2 6781   2.382   3.899   5.524  0.1840 -0.5196  0.8965
 2273TIP3   OH2 6782   5.785   0.501   1.016 -0.0320  0.4874  0.5512
 2273TIP3    H1 6783   5.853   0.467   1.074 -0.7531  1.1514  1.8245
 2273TIP3    H2 6784   5.814   0.589   0.994  1.5508 -0.6269 -2.2915
 2274TIP3   OH2 6785   2.337   0.663   4.582 -0.3911 -0.2017  0.2951
 2274TIP3    H1 6786   2.430   0.685   4.585 -0.6244  0.7866  0.8628
 2274TIP3    H2 6787   2.325   0.622   4.497  0.4775  0.0837  0.0193
 2275TIP3   OH2 6788   2.233   1.961   1.445 -0.1073  0.4334  0.1098
 2275TIP3    H1 6789   2.163   1.945   1.382 -1.0052 -2.2710  1.6317
 2275TIP3    H2 6790   2.190   2.001   1.520  0.5951  1.7358 -0.1515
 2276TIP3   OH2 6791   5.233   1.757   1.512  0.4476  0.3548  0.2612
 2276TIP3    H1 6792   5.301   1.790   1.453  2.1953 -0.9696  1.4371
 2276TIP3    H2 6793   5.184   1.693   1.459  0.4806  0.8950 -0.4297
 2277TIP3   OH2 6794   5.644   5.295   4.899  0.2368  0.0857  0.6396
 2277TIP3    H1 6795   5.578   5.226   4.901 -0.4961  0.7772  1.1127
 2277TIP3    H2 6796   5.704   5.274   4.971  0.3134 -0.3275  0.4581
 2278TIP3   OH2 6797   5.224   2.041   4.592 -0.1302  0.0591 -0.1338
 2278TIP3    H1 6798   5.239   2.091   4.512 -0.0525 -0.2659 -0.3206
 2278TIP3    H2 6799   5.167   1.969   4.566  0.1356 -0.2159  0.0451
 2279TIP3   OH2 6800   2.847   5.802   3.812 -0.3801  0.2532  0.2193
 2279TIP3    H1 6801   2.874   5.846   3.893  1.1150 -0.3891  0.0956
 2279TIP3    H2 6802   2.898   5.721   3.811 -0.8835 -0.0658 -1.0425
 2280TIP3   OH2 6803   2.211   0.534   3.704  0.1706  0.6074  0.0224
 2280TIP3    H1 6804   2.136   0.500   3.752  0.5129  0.0789  0.1969
 2280TIP3    H2 6805   2.185   0.529   3.612  0.1116  0.1089  0.0594
 2281TIP3   OH2 6806   2.152   3.450   5.676  0.2875 -0.4039 -0.0330
 2281TIP3    H1 6807   2.109   3.469   5.593  0.0276 -1.5172 -0.1650
 2281TIP3    H2 6808   2.088   3.472   5.743  1.7019  4.0967  0.1722
 2282TIP3   OH2 6809   3.298   2.307   1.846 -0.0429 -0.3677  0.2762
 2282TIP3    H1 6810   3.360   2.343   1.909 -0.2431  1.1386 -0.3422
 2282TIP3    H2 6811   3.264   2.228   1.887  1.0616 -0.3098  1.3268
 2283TIP3   OH2 6812   5.781   4.724   2.973 -0.1100  0.3806 -0.0233
 2283TIP3    H1 6813   5.793   4.782   2.898  1.1318 -0.6237 -0.6243
 2283TIP3    H2 6814   5.736   4.648   2.937  0.8165 -0.2652  0.1616
 2284TIP3   OH2 6815   5.673   6.352   0.310  0.0646 -0.4237  0.2267
 2284TIP3    H1 6816   5.604   6.317   0.254 -1.7038 -0.4585  2.2686
 2284TIP3    H2 6817   5.664   6.447   0.303  0.1434 -0.4283  0.0800
 2285TIP3   OH2 6818   6.701   1.464   2.789 -0.4130  0.5783  0.3179
 2285TIP3    H1 6819   6.613   1.501   2.787 -0.8830 -0.5221  0.1017
 2285TIP3    H2 6820   6.756   1.530   2.745 -1.2817  0.8595 -0.3628
 2286TIP3   OH2 6821   6.567   2.042   1.623  0.0921 -0.0235 -0.1926
 2286TIP3    H1 6822   6.579   2.133   1.650 -1.7292  0.4184 -0.6932
 2286TIP3    H2 6823   6.515   2.004   1.694  1.4726 -0.9014  0.3714
 2287TIP3   OH2 6824   4.923   6.458   3.522 -0.0829 -0.3250  0.1678
 2287TIP3    H1 6825   5.017   6.465   3.540  0.0940  1.0947 -1.1310
 2287TIP3    H2 6826   4.891   6.548   3.527 -1.1641 -0.6531 -0.5310
 2288TIP3   OH2 6827   6.850   4.648   3.824  0.3182 -0.6431 -0.5344
 2288TIP3    H1 6828   6.806   4.643   3.909  1.5501  1.6432  0.3123
 2288TIP3    H2 6829   6.781   4.626   3.761 -0.6200 -2.4721  0.9869
 2289TIP3   OH2 6830   0.111   1.814   2.942  0.2740 -0.0742 -0.5406
 2289TIP3    H1 6831   0.201   1.787   2.927  0.7266  1.0439  0.0444
 2289TIP3    H2 6832   0.117   1.880   3.011 -0.8510  0.9309 -1.3636
 2290TIP3   OH2 6833   6.901   5.281   2.272 -0.5893 -0.1541 -0.1807
 2290TIP3    H1 6834   6.956   5.358   2.283 -0.4596 -0.3168  0.3594
 2290TIP3    H2 6835   6.926   5.245   2.186  0.3409 -0.3719  0.1638
 2291TIP3   OH2 6836   2.598   4.130   4.752 -0.3662 -0.2551  0.1184
 2291TIP3    H1 6837   2.540   4.057   4.775  1.0511 -1.8912 -1.1765
 2291TIP3    H2 6838   2.624   4.112   4.661  2.9462 -0.2557  0.9042
 2292TIP3   OH2 6839   2.556   3.905   4.085  0.0593 -0.1592 -0.0308
 2292TIP3    H1 6840   2.564   3.839   4.016  0.8679  0.4745 -0.5664
 2292TIP3    H2 6841   2.607   3.870   4.158  1.2748  0.2677 -0.6438
 2293TIP3   OH2 6842   0.312   3.361   4.327 -0.2795 -0.0478  0.4637
 2293TIP3    H1 6843   0.263   3.315   4.259 -0.0722  0.0873  0.2213
 2293TIP3    H2 6844   0.310   3.302   4.402 -0.1786 -0.3743  0.2131
 2294TIP3   OH2 6845   2.827   6.591   2.974 -0.4065 -0.2799 -0.1695
 2294TIP3    H1 6846   2.842   6.598   3.068  1.0055 -1.9862 -0.2273
 2294TIP3    H2 6847   2.863   6.673   2.938  0.7870 -0.4507  0.5983
 2295TIP3   OH2 6848   5.672   6.166   4.964 -0.5608 -0.6249 -0.8208
 2295TIP3    H1 6849   5.719   6.188   5.045  0.1391 -1.7445 -0.8909
 2295TIP3    H2 6850   5.589   6.213   4.971  0.3536  1.0329 -0.4527
 2296TIP3   OH2 6851   4.984   0.814   2.560 -0.6710  0.0288 -0.7319
 2296TIP3    H1 6852   5.019   0.903   2.553  2.9155 -1.2021 -0.2016
 2296TIP3    H2 6853   5.044   0.760   2.508  0.1185 -2.7523  2.7073
 2297TIP3   OH2 6854   0.964   1.010   4.987 -0.0519  0.2900  0.0078
 2297TIP3    H1 6855   0.986   1.078   5.051 -1.9205  1.1900 -0.2441
 2297TIP3    H2 6856   1.030   1.021   4.917 -0.1997  1.7116  0.0730
 2298TIP3   OH2 6857   7.177   3.940   5.821 -0.3368  0.0903  0.2221
 2298TIP3    H1 6858   7.175   3.944   5.725 -0.0721  0.9348  0.2494
 2298TIP3    H2 6859   7.094   3.978   5.848  0.3222  1.4656  0.3671
 2299TIP3   OH2 6860   2.675   2.064   4.126  0.2546 -0.0101  0.2591
 2299TIP3    H1 6861   2.712   1.990   4.175  0.6979 -0.2144 -0.3584
 2299TIP3    H2 6862   2.720   2.061   4.042  0.3669  1.0433  0.2649
 2300TIP3   OH2 6863   5.518   0.644   1.559 -0.0777  0.2154 -0.3814
 2300TIP3    H1 6864   5.443   0.643   1.619  0.3468 -0.6673  0.1576
 2300TIP3    H2 6865   5.529   0.553   1.532  0.5355  0.3996 -0.7823
 2301TIP3   OH2 6866   5.240   2.047   5.746  0.2533 -0.1179 -0.2072
 2301TIP3    H1 6867   5.325   2.010   5.723  1.4944  1.5940  1.3264
 2301TIP3    H2 6868   5.200   2.071   5.662  1.7013 -0.0965 -0.9163
 2302TIP3   OH2 6869   7.176   4.919   1.773  0.2662  0.1380  0.2619
 2302TIP3    H1 6870   7.088   4.907   1.808  0.8631 -0.9733  1.4912
 2302TIP3    H2 6871   7.217   4.983   1.832 -0.0920  1.6189 -1.0503
 2303TIP3   OH2 6872   0.089   0.567   4.667  0.0970 -0.4831  0.3678
 2303TIP3    H1 6873   0.117   0.572   4.576  0.3309 -1.5837  0.3700
 2303TIP3    H2 6874   0.046   0.481   4.674 -1.9987  0.5180  0.7217
 2304TIP3   OH2 6875   0.414   6.519   2.848 -0.1001 -0.4070  0.0723
 2304TIP3    H1 6876   0.357   6.500   2.922  0.8263  0.4623  1.0647
 2304TIP3    H2 6877   0.416   6.615   2.844  0.3332 -0.4405 -0.7013
 2305TIP3   OH2 6878   5.660   6.597   3.427  0.2975 -0.2368 -0.2345
 2305TIP3    H1 6879   5.565   6.605   3.441  0.1554 -1.1331 -0.6614
 2305TIP3    H2 6880   5.691   6.550   3.504  0.6108  1.1542  0.5368
 2306TIP3   OH2 6881   1.866   4.438   4.245 -0.5305 -0.0429  0.0721
 2306TIP3    H1 6882   1.865   4.513   4.185 -1.1499  0.1735  0.3468
 2306TIP3    H2 6883   1.885   4.363   4.189  0.4654  0.3585 -0.1520
 2307TIP3   OH2 6884   3.364   6.369   5.750 -0.2361  0.4008  0.0331
 2307TIP3    H1 6885   3.344   6.441   5.811 -0.8949  1.7359 -1.6635
 2307TIP3    H2 6886   3.452   6.389   5.719 -0.6812  0.8947 -0.9524
 2308TIP3   OH2 6887   5.858   5.413   2.540 -0.5223  0.1901 -0.2795
 2308TIP3    H1 6888   5.842   5.445   2.629  0.0958  0.2548 -0.1855
 2308TIP3    H2 6889   5.879   5.492   2.490 -1.8047  0.2754 -0.7130
 2309TIP3   OH2 6890   0.881   3.973   5.157  0.1502 -0.2954 -0.5315
 2309TIP3    H1 6891   0.816   3.909   5.127 -0.1409 -0.1216 -0.2723
 2309TIP3    H2 6892   0.927   3.999   5.077 -0.7360  0.2930 -0.8677
 2310TIP3   OH2 6893   6.565   1.826   3.467 -0.7445  0.3828  0.2200
 2310TIP3    H1 6894   6.543   1.737   3.494 -2.3172  0.3543 -1.0011
 2310TIP3    H2 6895   6.661   1.827   3.464 -0.7011 -1.4090 -0.1719
 2311TIP3   OH2 6896   1.403   5.127   0.615 -0.1613 -0.2015 -0.2294
 2311TIP3    H1 6897   1.412   5.212   0.571 -0.5531  0.7575  1.4491
 2311TIP3    H2 6898   1.350   5.146   0.692  1.3606 -1.5925  1.2261
 2312TIP3   OH2 6899   6.868   1.699   1.685  0.2261 -0.3111  0.5268
 2312TIP3    H1 6900   6.815   1.759   1.632 -1.4125 -0.9204  1.4094
 2312TIP3    H2 6901   6.909   1.640   1.622  1.2718  1.2236 -0.3017
 2313TIP3   OH2 6902   6.367   1.566   1.441  0.0293  0.1136 -0.5106
 2313TIP3    H1 6903   6.421   1.645   1.433  0.6880  0.0607  2.3678
 2313TIP3    H2 6904   6.279   1.594   1.415  0.1430  1.9735  0.8981
 2314TIP3   OH2 6905   7.100   3.692   0.888 -0.3875  0.0975  0.1477
 2314TIP3    H1 6906   7.015   3.683   0.845 -0.1261 -2.4761  0.0405
 2314TIP3    H2 6907   7.160   3.713   0.817 -0.7295  0.8970  0.0757
 2315TIP3   OH2 6908   3.613   1.387   3.232  0.0323  0.1857  0.0836
 2315TIP3    H1 6909   3.656   1.428   3.157  1.6830 -1.8394 -0.1594
 2315TIP3    H2 6910   3.684   1.369   3.294 -1.3644  2.5094  2.5917
 2316TIP3   OH2 6911   4.564   1.796   2.979  0.1283  0.0935  0.6113
 2316TIP3    H1 6912   4.652   1.766   3.002  0.4904  1.1652  0.6709
 2316TIP3    H2 6913   4.518   1.716   2.954  0.9646 -0.5517  1.0571
 2317TIP3   OH2 6914   6.232   5.304   0.440 -0.1146  0.0267 -0.0792
 2317TIP3    H1 6915   6.165   5.347   0.492 -1.0134 -2.0647  0.6073
 2317TIP3    H2 6916   6.185   5.237   0.390  1.1486  0.0474 -1.3962
 2318TIP3   OH2 6917   3.285   0.751   3.140 -0.0204 -0.3449  0.5727
 2318TIP3    H1 6918   3.218   0.725   3.204 -0.3598  0.1776  0.4349
 2318TIP3    H2 6919   3.316   0.668   3.103 -0.4124 -0.6059  0.8147
 2319TIP3   OH2 6920   6.451   2.909   3.741 -0.3689 -0.4615 -0.2907
 2319TIP3    H1 6921   6.463   2.815   3.730 -0.8876 -0.6984  0.9507
 2319TIP3    H2 6922   6.536   2.942   3.770  0.0270 -0.4064 -1.4832
 2320TIP3   OH2 6923   4.718   6.315   2.511 -0.0665  0.1950  0.2639
 2320TIP3    H1 6924   4.720   6.405   2.545 -1.5471  0.5866 -0.5912
 2320TIP3    H2 6925   4.701   6.261   2.588  1.8792  0.5026  0.9666
 2321TIP3   OH2 6926   3.498   0.685   1.608 -0.4161 -0.3388 -0.2817
 2321TIP3    H1 6927   3.414   0.641   1.591 -0.3713 -1.5095  2.0673
 2321TIP3    H2 6928   3.473   0.772   1.638 -0.6627  0.0802 -1.6378
 2322TIP3   OH2 6929   2.458   4.660   3.716 -0.4136 -0.1395 -0.4558
 2322TIP3    H1 6930   2.503   4.579   3.741  0.8907  0.9273  0.8096
 2322TIP3    H2 6931   2.370   4.651   3.753  0.2550 -0.2914  1.1821
 2323TIP3   OH2 6932   1.867   6.395   3.868 -0.3175 -0.7042  0.4573
 2323TIP3    H1 6933   1.813   6.357   3.799 -1.0699  0.2677  0.4950
 2323TIP3    H2 6934   1.814   6.466   3.904  0.3776 -0.6980  1.5165
 2324TIP3   OH2 6935   6.102   3.821   0.615 -0.3385  0.0545  1.2436
 2324TIP3    H1 6936   6.114   3.743   0.560 -0.2713  1.0299 -0.1546
 2324TIP3    H2 6937   6.191   3.847   0.639 -0.2233  0.9301 -0.0704
 2325TIP3   OH2 6938   0.664   6.521   1.838 -0.4516  0.1432  0.2945
 2325TIP3    H1 6939   0.611   6.505   1.760  2.1787  0.5103 -1.7368
 2325TIP3    H2 6940   0.681   6.615   1.835 -1.0088  0.3119  1.8457
 2326TIP3   OH2 6941   7.006   1.348   0.704 -0.6478 -0.0963  0.0641
 2326TIP3    H1 6942   7.030   1.439   0.721 -0.0385 -0.4093  1.0202
 2326TIP3    H2 6943   6.911   1.344   0.720 -0.7120  0.4115 -0.1938
 2327TIP3   OH2 6944   1.652   2.094   3.744  0.4061  0.3736 -0.5451
 2327TIP3    H1 6945   1.717   2.163   3.733 -0.8410  1.5875 -0.5810
 2327TIP3    H2 6946   1.695   2.016   3.710  1.4717  1.3438 -1.5470
 2328TIP3   OH2 6947   6.554   3.159   1.311 -0.0986 -0.1675  0.0585
 2328TIP3    H1 6948   6.543   3.170   1.216 -0.6231  2.1808  0.3476
 2328TIP3    H2 6949   6.644   3.188   1.328 -0.1314 -0.2225  0.3282
 2329TIP3   OH2 6950   2.235   0.272   2.961 -0.2723  1.0657  0.4110
 2329TIP3    H1 6951   2.221   0.348   2.905 -3.9385 -0.3351 -0.8575
 2329TIP3    H2 6952   2.305   0.223   2.919 -0.6628  1.7399 -1.0777
 2330TIP3   OH2 6953   2.195   5.045   0.177  0.5441 -0.2565  0.6847
 2330TIP3    H1 6954   2.246   5.019   0.101  0.6871 -1.5928  1.2052
 2330TIP3    H2 6955   2.256   5.096   0.231  1.1724 -1.3604  1.0333
 2331TIP3   OH2 6956   0.933   0.963   1.132 -0.0848  0.1148  0.3020
 2331TIP3    H1 6957   0.929   0.959   1.227  0.3552  2.7183  0.4995
 2331TIP3    H2 6958   0.944   0.872   1.104  0.5782 -0.6151  2.7566
 2332TIP3   OH2 6959   5.771   5.575   5.554  0.5988  0.3781  0.3772
 2332TIP3    H1 6960   5.837   5.631   5.512 -1.6050  1.9342 -1.2211
 2332TIP3    H2 6961   5.702   5.635   5.580 -0.8410 -1.3627  0.7440
 2333TIP3   OH2 6962   4.271   2.097   0.774 -0.2922 -0.4671 -0.7130
 2333TIP3    H1 6963   4.296   2.188   0.755  1.8321 -0.8109  0.1187
 2333TIP3    H2 6964   4.348   2.046   0.749 -0.5245 -1.7652  1.0670
 2334TIP3   OH2 6965   1.507   4.413   0.213  0.1350  0.3246  0.0917
 2334TIP3    H1 6966   1.455   4.337   0.239  1.2162 -0.2236  0.7165
 2334TIP3    H2 6967   1.443   4.484   0.204 -0.9391 -0.7278 -0.8713
 2335TIP3   OH2 6968   2.531   0.386   2.099  0.4581 -0.3593  0.3029
 2335TIP3    H1 6969   2.454   0.370   2.045  0.6539 -0.0005 -0.0844
 2335TIP3    H2 6970   2.602   0.399   2.037  0.6403  0.2972  0.6362
 2336TIP3   OH2 6971   3.044   3.640   3.001  0.1222  0.1221 -0.1067
 2336TIP3    H1 6972   3.086   3.638   2.915  0.3803 -1.4360  0.0172
 2336TIP3    H2 6973   2.955   3.671   2.984 -0.5174 -2.0914 -1.3191
 2337TIP3   OH2 6974   2.730   1.440   0.619 -0.6793 -0.3023 -0.2453
 2337TIP3    H1 6975   2.748   1.424   0.712  0.0798 -0.7761 -0.4629
 2337TIP3    H2 6976   2.662   1.508   0.619  1.6663  2.2199  0.6313
 2338TIP3   OH2 6977   3.341   5.082   0.753  0.4407  0.0104  0.0699
 2338TIP3    H1 6978   3.332   5.161   0.807 -1.5772  0.3342 -0.6566
 2338TIP3    H2 6979   3.426   5.092   0.710  0.9627  0.9504  1.2645
 2339TIP3   OH2 6980   1.919   4.091   4.366  0.5681 -0.8847  0.2560
 2339TIP3    H1 6981   1.939   4.088   4.273  0.7008  3.1979 -0.0393
 2339TIP3    H2 6982   1.825   4.079   4.372  0.3319  0.3731 -0.6385
 2340TIP3   OH2 6983   1.915   1.929   1.030  0.1168  0.1640  0.6879
 2340TIP3    H1 6984   1.821   1.925   1.051 -0.3410 -1.8317 -1.2826
 2340TIP3    H2 6985   1.918   1.960   0.940  1.2120 -1.1508  0.2294
 2341TIP3   OH2 6986   6.795   6.211   2.283  0.6763 -0.2780  0.7309
 2341TIP3    H1 6987   6.875   6.159   2.274  1.1965  0.8338 -2.2567
 2341TIP3    H2 6988   6.732   6.169   2.225 -0.6418 -0.5637  2.3077
 2342TIP3   OH2 6989   5.476   4.595   2.973  0.6533 -0.2482  0.0586
 2342TIP3    H1 6990   5.455   4.578   3.065  0.4495 -0.7582 -0.0772
 2342TIP3    H2 6991   5.436   4.680   2.955 -1.4323 -1.2227 -0.2079
 2343TIP3   OH2 6992   4.375   3.814   0.456 -0.1963 -0.3837  0.3746
 2343TIP3    H1 6993   4.402   3.864   0.379 -3.6635 -1.8466 -2.0534
 2343TIP3    H2 6994   4.431   3.737   0.455  0.1976 -0.0988 -0.3184
 2344TIP3   OH2 6995   0.040   6.671   4.465  0.0118 -0.8018 -0.3851
 2344TIP3    H1 6996   0.009   6.603   4.524 -1.1697 -0.9368 -1.1164
 2344TIP3    H2 6997  -0.021   6.744   4.478  0.2347 -0.5293 -0.8241
 2345TIP3   OH2 6998   5.795   1.465   2.064  0.2240 -0.6358 -0.5713
 2345TIP3    H1 6999   5.805   1.536   2.000  0.5226  2.5999  2.7130
 2345TIP3    H2 7000   5.702   1.463   2.084  0.2059 -1.2291 -0.7097
 2346TIP3   OH2 7001   1.168   5.642   3.110  0.1468  0.0304 -0.0991
 2346TIP3    H1 7002   1.153   5.664   3.202  0.9632  3.1082 -0.6039
 2346TIP3    H2 7003   1.254   5.677   3.090  0.0654 -0.7428 -2.0049
 2347TIP3   OH2 7004   6.414   1.624   4.353 -0.0008  0.5370  0.5373
 2347TIP3    H1 7005   6.438   1.611   4.444  1.7020  1.5168  0.2663
 2347TIP3    H2 7006   6.492   1.600   4.304 -1.2230 -1.0279 -0.7780
 2348TIP3   OH2 7007   5.398   0.802   4.598  0.2656 -0.0902  0.1994
 2348TIP3    H1 7008   5.304   0.815   4.603  0.3442  0.4129  0.4740
 2348TIP3    H2 7009   5.432   0.885   4.564  0.6284 -0.1771  0.3364
 2349TIP3   OH2 7010   0.916   6.742   3.420  0.0455  0.2312 -0.2073
 2349TIP3    H1 7011   0.987   6.783   3.370  0.1436 -0.2442 -0.4633
 2349TIP3    H2 7012   0.840   6.798   3.402  0.6179  1.5045  1.1063
 2350TIP3   OH2 7013   3.278   2.394   3.204  0.4643 -0.0154  0.1141
 2350TIP3    H1 7014   3.297   2.442   3.123  0.2274 -0.3483 -0.1416
 2350TIP3    H2 7015   3.286   2.302   3.180  0.2756 -0.1205  0.4396
 2351TIP3   OH2 7016   4.427   3.624   2.435 -0.1381 -1.0160 -0.3352
 2351TIP3    H1 7017   4.475   3.570   2.372  1.9629 -0.8192  0.9684
 2351TIP3    H2 7018   4.436   3.576   2.518 -0.6405 -0.0352  0.3065
 2352TIP3   OH2 7019   6.747   5.135   4.424  0.1236  0.5113  0.7530
 2352TIP3    H1 7020   6.803   5.210   4.402 -1.6520  1.3086 -1.4986
 2352TIP3    H2 7021   6.671   5.174   4.467 -1.2564  0.2060 -1.2719
 2353TIP3   OH2 7022   3.966   2.661   5.416 -0.1718 -0.7054 -0.3674
 2353TIP3    H1 7023   3.926   2.744   5.445  0.0703 -1.5017  2.4835
 2353TIP3    H2 7024   3.901   2.595   5.437  0.0888 -1.4087 -1.6450
 2354TIP3   OH2 7025   2.325   4.074   5.251 -0.0657  0.1889 -0.4547
 2354TIP3    H1 7026   2.242   4.120   5.246  0.2515  1.1886  1.9849
 2354TIP3    H2 7027   2.324   4.031   5.336  1.3352 -1.0032 -0.9914
 2355TIP3   OH2 7028   4.764   6.751   0.075  0.5129 -0.5664 -0.7825
 2355TIP3    H1 7029   4.848   6.707   0.091  0.4296 -0.9135 -1.2824
 2355TIP3    H2 7030   4.720   6.696   0.010 -0.0444 -0.3117 -0.6296
 2356TIP3   OH2 7031   3.834   5.676   4.761  0.5419  0.5499 -0.3342
 2356TIP3    H1 7032   3.774   5.626   4.706 -0.9916  0.2110  1.5315
 2356TIP3    H2 7033   3.788   5.758   4.780  0.8515  0.4925  0.7531
 2357TIP3   OH2 7034   2.303   1.866   3.392 -0.5521 -0.3478  0.0711
 2357TIP3    H1 7035   2.339   1.791   3.346 -0.2560 -0.3688  0.3307
 2357TIP3    H2 7036   2.355   1.871   3.473  0.6352  1.1876 -0.7241
 2358TIP3   OH2 7037   4.498   3.149   1.582 -0.0383  0.0023 -0.2931
 2358TIP3    H1 7038   4.573   3.205   1.598 -0.7319  0.3883  2.0320
 2358TIP3    H2 7039   4.424   3.197   1.621 -1.0150 -1.5363 -0.1796
 2359TIP3   OH2 7040   3.633   4.813   5.305 -0.0416  0.2678 -0.0070
 2359TIP3    H1 7041   3.654   4.906   5.316  1.8728 -0.1221 -0.0108
 2359TIP3    H2 7042   3.599   4.806   5.216  0.8849  0.8050 -0.4185
 2360TIP3   OH2 7043   6.724   3.205   4.732 -0.4303  0.4853 -0.3757
 2360TIP3    H1 7044   6.753   3.208   4.824 -0.3431  2.0781 -0.4324
 2360TIP3    H2 7045   6.769   3.278   4.691  0.1792 -0.7041 -1.9143
 2361TIP3   OH2 7046   6.525   5.946   0.243 -0.1179  0.4131  0.4292
 2361TIP3    H1 7047   6.611   5.904   0.234 -0.8134 -0.7030 -1.8113
 2361TIP3    H2 7048   6.544   6.030   0.285  1.9277 -0.1819  0.8431
 2362TIP3   OH2 7049   2.603   4.325   2.289 -0.3466  0.7516 -0.0723
 2362TIP3    H1 7050   2.621   4.416   2.313  1.2283  0.3334  0.4203
 2362TIP3    H2 7051   2.688   4.288   2.269 -0.8022 -0.9742  0.9620
 2363TIP3   OH2 7052   1.105   3.141   2.123 -0.3256  0.3808 -0.2663
 2363TIP3    H1 7053   1.036   3.168   2.061 -0.5586 -1.8545 -1.0739
 2363TIP3    H2 7054   1.058   3.096   2.193  0.2650 -1.3380 -0.9183
 2364TIP3   OH2 7055   3.830   4.299   0.913 -0.0244 -0.0425 -0.6253
 2364TIP3    H1 7056   3.828   4.393   0.927 -3.4599  0.4034 -2.9532
 2364TIP3    H2 7057   3.876   4.288   0.830 -0.1758 -0.3510 -0.6704
 2365TIP3   OH2 7058   0.483   3.582   4.263  0.2528 -0.2834  0.3924
 2365TIP3    H1 7059   0.431   3.508   4.293  0.5684  0.1149  1.9882
 2365TIP3    H2 7060   0.443   3.658   4.306  1.0649  0.2386  0.2353
 2366TIP3   OH2 7061   0.079   2.566   0.483 -0.0625 -0.1556 -0.6643
 2366TIP3    H1 7062   0.005   2.533   0.533  2.3412 -2.9583  1.4047
 2366TIP3    H2 7063   0.110   2.489   0.434  0.1048  1.5370 -3.4372
 2367TIP3   OH2 7064   5.704   2.023   1.396 -0.4022  0.0405  0.2091
 2367TIP3    H1 7065   5.638   2.008   1.329 -0.7234 -1.1366  0.7599
 2367TIP3    H2 7066   5.755   1.943   1.399  1.1507  0.9651 -0.2689
 2368TIP3   OH2 7067   1.257   3.986   2.354 -0.4251  0.5078  0.1207
 2368TIP3    H1 7068   1.335   4.039   2.370  0.5738 -0.8073 -0.2040
 2368TIP3    H2 7069   1.190   4.024   2.411  1.1851  0.0461  2.4976
 2369TIP3   OH2 7070   0.870   2.942   4.198  0.4928  0.3540  0.4783
 2369TIP3    H1 7071   0.823   2.860   4.210  0.8918  0.0378 -0.0737
 2369TIP3    H2 7072   0.909   2.961   4.284  1.2530 -0.5725  0.3546
 2370TIP3   OH2 7073   1.201   0.358   2.654  0.1186  0.3768  0.0867
 2370TIP3    H1 7074   1.122   0.387   2.609  0.3498 -0.7957 -1.1360
 2370TIP3    H2 7075   1.209   0.417   2.729 -1.0630  1.4836 -0.6192
 2371TIP3   OH2 7076   5.147   1.421   3.560  0.3276 -0.2911 -0.5803
 2371TIP3    H1 7077   5.213   1.353   3.569  0.5080  0.0702  1.5456
 2371TIP3    H2 7078   5.090   1.409   3.636 -1.4291  0.0888 -1.7794
 2372TIP3   OH2 7079   5.746   6.335   3.917  0.3982  0.1725 -0.4152
 2372TIP3    H1 7080   5.737   6.415   3.969  0.7802 -1.0853  1.7008
 2372TIP3    H2 7081   5.658   6.317   3.884 -0.2071  0.1535  1.1514
 2373TIP3   OH2 7082   4.493   5.778   0.531 -0.0898  0.1872 -0.4005
 2373TIP3    H1 7083   4.578   5.758   0.493 -0.4853 -0.8926 -0.7553
 2373TIP3    H2 7084   4.438   5.703   0.508 -0.6555  0.0181  1.3496
 2374TIP3   OH2 7085   2.410   2.563   0.384  0.2286  0.1507 -0.6445
 2374TIP3    H1 7086   2.500   2.537   0.403  0.2364  0.9766  0.5645
 2374TIP3    H2 7087   2.360   2.533   0.460 -0.4434  0.1482 -1.0772
 2375TIP3   OH2 7088   5.548   0.872   5.099 -0.2786  0.4680  0.6511
 2375TIP3    H1 7089   5.470   0.923   5.121 -0.4297  0.5514 -0.0467
 2375TIP3    H2 7090   5.517   0.809   5.034 -0.1648 -0.7254  1.7114
 2376TIP3   OH2 7091   1.294   2.263   2.278 -0.5885  0.4841 -0.3566
 2376TIP3    H1 7092   1.346   2.183   2.276 -1.5828 -0.1823 -0.3661
 2376TIP3    H2 7093   1.203   2.233   2.289 -1.0263  1.5867 -0.7761
 2377TIP3   OH2 7094   0.338   0.621   0.759 -0.0645  0.2776  0.0407
 2377TIP3    H1 7095   0.428   0.617   0.791  0.2701 -0.5140 -0.9518
 2377TIP3    H2 7096   0.301   0.536   0.782 -0.0494 -0.0142 -0.9938
 2378TIP3   OH2 7097   2.805   1.796   3.590 -0.1352 -0.3059  0.6021
 2378TIP3    H1 7098   2.743   1.726   3.571 -0.0287 -0.1290 -0.4264
 2378TIP3    H2 7099   2.875   1.753   3.640 -0.5780 -0.7062  0.8869
 2379TIP3   OH2 7100   4.141   2.925   1.470 -0.4340 -1.4140 -0.0878
 2379TIP3    H1 7101   4.159   3.015   1.444 -2.2454 -0.4350  1.7404
 2379TIP3    H2 7102   4.169   2.920   1.561 -1.4358 -2.3229  0.1957
 2380TIP3   OH2 7103   5.782   1.413   0.820  0.1927 -0.2159  0.3748
 2380TIP3    H1 7104   5.714   1.456   0.769 -0.1053  1.0166  1.7445
 2380TIP3    H2 7105   5.864   1.451   0.789 -0.0986  1.8994  1.9649
 2381TIP3   OH2 7106   1.914   6.059   2.253 -0.2618 -0.0160 -0.1893
 2381TIP3    H1 7107   1.903   6.152   2.232 -0.1597 -0.1351 -0.7983
 2381TIP3    H2 7108   2.005   6.053   2.284 -0.6166  0.2746  0.9482
 2382TIP3   OH2 7109   1.148   2.304   0.527 -0.0442  0.2143  0.0672
 2382TIP3    H1 7110   1.113   2.368   0.464  0.0512 -1.0183 -1.2955
 2382TIP3    H2 7111   1.142   2.220   0.481  0.2258 -0.7018  1.6565
 2383TIP3   OH2 7112   4.398   0.582   0.302 -0.5056 -0.9564  0.2422
 2383TIP3    H1 7113   4.472   0.617   0.352 -1.2868  0.4791  0.4300
 2383TIP3    H2 7114   4.354   0.659   0.267 -2.5085 -1.7296  0.9400
 2384TIP3   OH2 7115   5.528   6.114   1.046 -0.3420 -0.2689  0.2983
 2384TIP3    H1 7116   5.504   6.167   0.969  0.1324  0.3031  0.5386
 2384TIP3    H2 7117   5.457   6.129   1.108 -0.4878 -0.3577  0.1548
 2385TIP3   OH2 7118   6.881   1.201   4.991  0.0923  0.0598 -0.2249
 2385TIP3    H1 7119   6.909   1.179   4.903  2.1770  0.0511  0.3778
 2385TIP3    H2 7120   6.907   1.125   5.044 -2.5896 -0.6663  0.2080
 2386TIP3   OH2 7121   0.069   0.832   4.744  0.0341  0.5162 -0.4886
 2386TIP3    H1 7122   0.063   0.736   4.735  4.0945 -0.0335  0.7764
 2386TIP3    H2 7123  -0.018   0.858   4.775 -1.1427 -2.7847 -0.6118
 2387TIP3   OH2 7124   4.121   4.404   2.913  0.3489 -0.3742  0.0323
 2387TIP3    H1 7125   4.181   4.330   2.906  1.7047  0.5378  1.5052
 2387TIP3    H2 7126   4.109   4.433   2.822  0.1510 -2.0569 -0.5276
 2388TIP3   OH2 7127   3.181   5.421   4.995  0.0618 -0.1771  0.3238
 2388TIP3    H1 7128   3.229   5.405   5.077 -1.3372  1.5945  1.5642
 2388TIP3    H2 7129   3.182   5.516   4.985 -2.6638 -0.1004  0.1186
 2389TIP3   OH2 7130   2.952   0.697   2.264  0.1130  0.1693  0.7149
 2389TIP3    H1 7131   3.036   0.698   2.311  0.8492  0.0913 -0.5571
 2389TIP3    H2 7132   2.941   0.786   2.233  0.3961 -0.1294 -0.2623
 2390TIP3   OH2 7133   5.710   0.871   2.164 -0.2082  0.0249 -0.1398
 2390TIP3    H1 7134   5.686   0.938   2.228 -0.4462 -0.1921 -0.0022
 2390TIP3    H2 7135   5.760   0.918   2.098  0.8626  0.1001  0.6812
 2391TIP3   OH2 7136   3.786   3.458   1.911  0.1662  0.2610 -0.0772
 2391TIP3    H1 7137   3.734   3.450   1.831 -0.2325 -0.1629  0.2162
 2391TIP3    H2 7138   3.720   3.464   1.981  0.5069 -0.7622  0.3462
 2392TIP3   OH2 7139   6.048   1.345   2.706  0.0643 -0.6994  0.3321
 2392TIP3    H1 7140   6.029   1.430   2.666  0.4171 -0.1377  1.3161
 2392TIP3    H2 7141   6.012   1.281   2.645 -1.6343  0.1979  0.3381
 2393TIP3   OH2 7142   1.244   2.198   0.975  0.1917  0.0845 -0.1475
 2393TIP3    H1 7143   1.170   2.207   0.915 -2.9756 -1.2271  3.1629
 2393TIP3    H2 7144   1.286   2.116   0.951 -0.8719 -0.3015 -0.7343
 2394TIP3   OH2 7145   6.830   6.592   4.861  0.2610  0.1853  0.1746
 2394TIP3    H1 7146   6.827   6.653   4.935  0.0377 -0.0612  0.3712
 2394TIP3    H2 7147   6.747   6.544   4.867  1.2391 -1.4676  1.1380
 2395TIP3   OH2 7148   4.911   0.337   2.561 -0.1754  0.2459  0.5665
 2395TIP3    H1 7149   4.825   0.352   2.601  0.4205 -0.8290  2.3615
 2395TIP3    H2 7150   4.971   0.391   2.612  0.1230  1.8302 -1.3533
 2396TIP3   OH2 7151   0.024   6.281   5.682  0.0731 -0.1033  0.2369
 2396TIP3    H1 7152   0.035   6.373   5.705 -0.2719  0.6877 -2.4965
 2396TIP3    H2 7153   0.078   6.268   5.604 -0.2150 -2.1269  0.2988
 2397TIP3   OH2 7154   5.084   5.594   3.844  0.3041  0.3357  0.4843
 2397TIP3    H1 7155   4.992   5.567   3.842  0.2877  0.3919 -1.7290
 2397TIP3    H2 7156   5.133   5.512   3.850  0.1715 -0.2098 -3.4394
 2398TIP3   OH2 7157   1.970   5.036   4.999  0.1093 -0.3240  0.0732
 2398TIP3    H1 7158   2.014   5.077   5.073 -0.4322 -1.5858  1.1382
 2398TIP3    H2 7159   1.909   4.974   5.039 -1.2378 -0.0160 -1.4066
 2399TIP3   OH2 7160   4.176   1.085   0.397  0.5205  0.2309  0.2033
 2399TIP3    H1 7161   4.137   1.077   0.485  1.1733  0.3049  0.5060
 2399TIP3    H2 7162   4.101   1.092   0.338  0.0073 -1.8216  0.5389
 2400TIP3   OH2 7163   6.775   3.540   1.302 -0.7271 -0.1529 -0.7825
 2400TIP3    H1 7164   6.706   3.605   1.313 -0.7705  0.1136 -2.4004
 2400TIP3    H2 7165   6.840   3.584   1.248 -0.3896 -1.1882 -1.2290
 2401TIP3   OH2 7166   6.855   1.640   2.637  0.4596 -0.0425 -0.0327
 2401TIP3    H1 7167   6.929   1.590   2.671  0.2420 -1.1614 -1.1618
 2401TIP3    H2 7168   6.891   1.727   2.619  1.9360 -1.0268 -2.1419
 2402TIP3   OH2 7169   6.671   4.383   1.151 -0.1250  0.2120 -0.2804
 2402TIP3    H1 7170   6.702   4.471   1.170  1.0750 -0.2876  0.1732
 2402TIP3    H2 7171   6.697   4.331   1.227  1.3029 -1.0183 -1.5474
 2403TIP3   OH2 7172   2.632   6.390   3.949  0.4265  0.1319  0.5994
 2403TIP3    H1 7173   2.656   6.482   3.937 -0.6480  0.1852 -1.6101
 2403TIP3    H2 7174   2.544   6.383   3.912  0.2910 -1.7070  1.1597
 2404TIP3   OH2 7175   5.200   5.271   4.500 -0.8171 -0.4646  1.1865
 2404TIP3    H1 7176   5.276   5.247   4.553 -0.8306 -3.9827 -0.1338
 2404TIP3    H2 7177   5.236   5.326   4.430 -0.2164  1.1841  2.7246
 2405TIP3   OH2 7178   1.685   3.536   1.040 -0.0324  0.1035 -0.2374
 2405TIP3    H1 7179   1.692   3.489   0.957 -0.7804  0.6667 -0.6316
 2405TIP3    H2 7180   1.591   3.545   1.055  0.0881  0.0214  0.6722
 2406TIP3   OH2 7181   5.805   4.126   4.821  0.2526 -0.8392  0.1181
 2406TIP3    H1 7182   5.734   4.174   4.865  0.2251  0.4941 -1.3029
 2406TIP3    H2 7183   5.775   4.035   4.821 -0.6878 -0.5527  1.0245
 2407TIP3   OH2 7184   1.462   0.968   2.671 -0.7007  0.5302  0.6641
 2407TIP3    H1 7185   1.396   1.027   2.707 -1.2361 -0.2479  0.9917
 2407TIP3    H2 7186   1.436   0.955   2.580  0.1357  1.7739  0.2175
 2408TIP3   OH2 7187   5.764   6.444   3.649  0.3567  0.0811 -0.2515
 2408TIP3    H1 7188   5.740   6.397   3.728  0.9563 -0.2419 -0.2502
 2408TIP3    H2 7189   5.786   6.375   3.586 -2.0235  0.2529 -1.3657
 2409TIP3   OH2 7190   3.632   6.741   5.195  0.8348 -0.0190 -0.3450
 2409TIP3    H1 7191   3.697   6.787   5.248  0.8217 -1.6518  1.1757
 2409TIP3    H2 7192   3.549   6.760   5.238  0.5086  0.6053 -1.2323
 2410TIP3   OH2 7193   3.272   1.496   4.834  0.7052 -0.3247  0.8890
 2410TIP3    H1 7194   3.320   1.415   4.854  0.0853 -1.1371 -0.7601
 2410TIP3    H2 7195   3.328   1.543   4.773 -0.0622 -0.7335 -0.1467
 2411TIP3   OH2 7196   3.349   6.305   2.008  0.5257  0.4090 -0.4699
 2411TIP3    H1 7197   3.397   6.222   2.002 -0.7919 -0.4568  0.3084
 2411TIP3    H2 7198   3.279   6.297   1.943  0.2806  0.8251 -0.2634
 2412TIP3   OH2 7199   3.658   1.287   0.714  0.0160  0.2319 -0.7393
 2412TIP3    H1 7200   3.589   1.229   0.683 -0.2034  0.4744 -0.7146
 2412TIP3    H2 7201   3.723   1.287   0.645 -0.6044  1.0009 -1.3524
 2413TIP3   OH2 7202   0.747   2.811   4.622  0.4028  0.5366  0.5950
 2413TIP3    H1 7203   0.828   2.798   4.573  1.0647  1.4428  1.3907
 2413TIP3    H2 7204   0.753   2.751   4.696 -0.5073 -0.6954 -0.3046
 2414TIP3   OH2 7205   0.513   1.669   3.138 -0.2605 -0.3258 -0.6949
 2414TIP3    H1 7206   0.540   1.654   3.229  1.6346  2.4010 -0.6760
 2414TIP3    H2 7207   0.471   1.588   3.112 -0.5291 -1.3624  2.4900
 2415TIP3   OH2 7208   2.535   2.714   1.253 -0.0729 -0.2812  0.2349
 2415TIP3    H1 7209   2.583   2.635   1.228 -0.9739 -1.2773  1.4925
 2415TIP3    H2 7210   2.569   2.735   1.340 -0.1351  0.4879  0.0744
 2416TIP3   OH2 7211   4.113   2.790   3.731  0.2383 -0.2195  0.3799
 2416TIP3    H1 7212   4.028   2.821   3.700  0.8638  1.6911  0.4676
 2416TIP3    H2 7213   4.142   2.856   3.793  1.6916 -0.9689  0.5365
 2417TIP3   OH2 7214   1.114   5.097   3.328 -0.1954  0.0290 -0.0774
 2417TIP3    H1 7215   1.082   5.103   3.418  0.8703  0.7730  0.2842
 2417TIP3    H2 7216   1.070   5.021   3.291 -1.1831  0.1325  0.8510
 2418TIP3   OH2 7217   4.238   4.261   4.182 -0.1717 -0.3076 -0.0866
 2418TIP3    H1 7218   4.301   4.283   4.114 -1.4732  1.7687 -0.7156
 2418TIP3    H2 7219   4.284   4.200   4.238  2.5319  1.3739 -0.2925
 2419TIP3   OH2 7220   6.013   5.384   4.515 -0.1648  0.3552 -0.1654
 2419TIP3    H1 7221   6.009   5.330   4.594 -1.4565  0.7663  0.0704
 2419TIP3    H2 7222   5.981   5.327   4.445  0.3341  0.2114 -0.2862
 2420TIP3   OH2 7223   0.709   3.478   5.250 -0.5840 -0.5709  0.0388
 2420TIP3    H1 7224   0.801   3.505   5.249 -0.5052 -0.8554 -0.2386
 2420TIP3    H2 7225   0.690   3.453   5.160 -0.6312 -1.5419  0.3092
 2421TIP3   OH2 7226   2.696   2.475   1.179  0.5247  0.0885 -0.5460
 2421TIP3    H1 7227   2.651   2.392   1.195  1.8009 -0.3657  0.8705
 2421TIP3    H2 7228   2.778   2.469   1.228 -0.0858  2.8510  1.0515
 2422TIP3   OH2 7229   2.326   0.453   5.712  0.3188 -0.8563 -0.2922
 2422TIP3    H1 7230   2.361   0.437   5.625 -1.0816 -3.0968 -0.5107
 2422TIP3    H2 7231   2.402   0.446   5.770  1.6363  2.4785 -1.3480
 2423TIP3   OH2 7232   4.503   3.775   3.559  0.4299  0.2875 -0.1859
 2423TIP3    H1 7233   4.448   3.742   3.489  0.1675  0.3049  0.0132
 2423TIP3    H2 7234   4.557   3.700   3.584  0.6060  0.3113 -0.4805
 2424TIP3   OH2 7235   3.872   2.222   5.597 -0.1360 -0.1316  0.1146
 2424TIP3    H1 7236   3.855   2.210   5.690 -0.1465 -1.2875 -0.0238
 2424TIP3    H2 7237   3.947   2.165   5.579 -0.6320 -0.5327 -0.7341
 2425TIP3   OH2 7238   0.446   1.688   5.500  0.0714  0.2488  0.3397
 2425TIP3    H1 7239   0.417   1.777   5.478  0.5124  0.6470  1.3423
 2425TIP3    H2 7240   0.445   1.642   5.416 -1.4651  0.8108  0.0057
 2426TIP3   OH2 7241   1.223   1.602   4.652 -0.4006 -0.3729 -0.1064
 2426TIP3    H1 7242   1.189   1.623   4.566  0.3458 -0.8974 -0.5466
 2426TIP3    H2 7243   1.175   1.659   4.712 -1.0297 -0.1084 -0.8477
 2427TIP3   OH2 7244   5.371   6.058   5.710  0.1416 -0.2060  0.1091
 2427TIP3    H1 7245   5.341   6.056   5.801  1.8620 -0.2781  0.7002
 2427TIP3    H2 7246   5.460   6.093   5.714  0.0293  0.3992 -1.6241
 2428TIP3   OH2 7247   2.358   3.404   3.021  0.4799 -0.0104 -0.0608
 2428TIP3    H1 7248   2.292   3.442   2.963  0.3665  0.1268  0.1563
 2428TIP3    H2 7249   2.435   3.460   3.008  0.0383  0.8707  0.9319
 2429TIP3   OH2 7250   3.564   4.679   2.606  0.1801 -0.3907  0.2077
 2429TIP3    H1 7251   3.604   4.761   2.577  2.2092 -1.3050  0.2533
 2429TIP3    H2 7252   3.638   4.624   2.631 -1.2312 -1.4637  2.2912
 2430TIP3   OH2 7253   4.952   6.460   0.759 -0.2570  0.4599 -0.2941
 2430TIP3    H1 7254   5.022   6.491   0.701 -0.2148 -2.1498 -1.7922
 2430TIP3    H2 7255   4.998   6.422   0.834 -0.1831  0.7940 -0.1663
 2431TIP3   OH2 7256   0.212   1.539   2.614 -0.5919  0.3211 -0.3995
 2431TIP3    H1 7257   0.306   1.547   2.600 -0.2093 -2.0440  0.2601
 2431TIP3    H2 7258   0.199   1.560   2.707 -0.6527  0.2573 -0.3929
 2432TIP3   OH2 7259   2.138   1.921   5.427  0.4077  0.1328 -1.1187
 2432TIP3    H1 7260   2.101   1.965   5.503  1.6671  0.8568 -0.8938
 2432TIP3    H2 7261   2.067   1.920   5.363 -0.3427  0.4595 -0.3070
 2433TIP3   OH2 7262   3.597   2.461   1.272  0.2845  0.3897  0.3863
 2433TIP3    H1 7263   3.638   2.388   1.319  1.0571  0.7783  0.3353
 2433TIP3    H2 7264   3.669   2.502   1.224 -0.6096 -0.4754 -1.8070
 2434TIP3   OH2 7265   6.363   0.545   3.134 -0.1060  0.1349 -0.3942
 2434TIP3    H1 7266   6.320   0.489   3.198  0.5139 -0.4052 -0.4327
 2434TIP3    H2 7267   6.317   0.628   3.139  0.2431  0.2670  1.1057
 2435TIP3   OH2 7268   1.070   4.974   3.914 -0.4891 -0.0498  0.0311
 2435TIP3    H1 7269   1.102   4.901   3.861  2.6927  0.7662  0.6619
 2435TIP3    H2 7270   1.007   5.019   3.857 -0.5978 -1.7690 -1.3013
 2436TIP3   OH2 7271   1.504   4.279   0.813  0.2686 -0.0517 -0.1334
 2436TIP3    H1 7272   1.428   4.316   0.769 -0.3943 -0.9897  0.1933
 2436TIP3    H2 7273   1.508   4.188   0.783  0.8311 -0.2123  0.3980
 2437TIP3   OH2 7274   1.384   6.612   5.870 -0.6685 -0.2429  0.0881
 2437TIP3    H1 7275   1.334   6.678   5.822  1.5198  1.1084 -0.5151
 2437TIP3    H2 7276   1.409   6.548   5.804 -2.0028 -1.2222  0.4961
 2438TIP3   OH2 7277   1.047   1.412   0.365 -0.2340  0.6642 -0.1969
 2438TIP3    H1 7278   1.118   1.348   0.352 -0.2544  0.8156 -1.0552
 2438TIP3    H2 7279   1.074   1.488   0.314 -0.6225  1.0321  0.1449
 2439TIP3   OH2 7280   7.077   2.456   0.614 -0.6597  0.4711 -0.3489
 2439TIP3    H1 7281   7.104   2.438   0.704 -0.3903 -0.8869 -0.6789
 2439TIP3    H2 7282   7.023   2.381   0.590 -0.5076  0.6882 -1.4134
 2440TIP3   OH2 7283   4.086   2.086   2.313 -0.6648  0.2251  0.0850
 2440TIP3    H1 7284   4.016   2.052   2.368  0.3648 -0.6129  0.9048
 2440TIP3    H2 7285   4.159   2.102   2.373  0.1738  0.1700 -0.8898
 2441TIP3   OH2 7286   1.047   2.327   0.762  0.4506 -0.0102  0.2351
 2441TIP3    H1 7287   1.088   2.331   0.675 -1.7620  2.0187 -0.8101
 2441TIP3    H2 7288   0.984   2.255   0.756  0.5213 -0.0768  0.2831
 2442TIP3   OH2 7289   1.627   0.311   4.140  0.4265 -0.0873  0.1748
 2442TIP3    H1 7290   1.556   0.312   4.204  0.2800 -0.5979  0.0236
 2442TIP3    H2 7291   1.598   0.371   4.071 -0.6562 -1.5800 -0.7260
 2443TIP3   OH2 7292   2.391   4.569   5.387 -0.1671  0.0060 -0.4333
 2443TIP3    H1 7293   2.438   4.615   5.456 -1.1316  0.5868 -0.1411
 2443TIP3    H2 7294   2.377   4.635   5.319 -1.0599 -0.0003 -0.2649
 2444TIP3   OH2 7295   4.933   0.836   0.487  0.7644  0.2880 -0.4065
 2444TIP3    H1 7296   4.960   0.906   0.546 -0.8943 -0.9002  1.8881
 2444TIP3    H2 7297   4.842   0.856   0.466  0.8203 -0.2402 -1.1779
 2445TIP3   OH2 7298   5.973   0.010   2.747  0.4120  0.2513  0.4449
 2445TIP3    H1 7299   5.966   0.030   2.840  2.6633 -0.1695  0.7675
 2445TIP3    H2 7300   6.049   0.062   2.717  0.2600 -0.2790 -0.9519
 2446TIP3   OH2 7301   5.797   1.647   3.549 -0.5157 -0.3029 -0.7510
 2446TIP3    H1 7302   5.857   1.600   3.606 -0.2104 -0.9044 -1.5557
 2446TIP3    H2 7303   5.716   1.653   3.599 -0.4464 -1.3905 -0.4960
 2447TIP3   OH2 7304   2.221   5.196   5.402 -0.1886  0.4450 -0.2346
 2447TIP3    H1 7305   2.169   5.203   5.482  1.3702  2.1565  0.7332
 2447TIP3    H2 7306   2.284   5.126   5.421  0.9907  1.6678  0.6264
 2448TIP3   OH2 7307   5.920   5.701   1.510 -0.0155 -0.0658  0.4186
 2448TIP3    H1 7308   5.860   5.639   1.552  0.4840 -0.9421 -0.1345
 2448TIP3    H2 7309   5.874   5.729   1.431  0.1187 -0.3960  0.2237
 2449TIP3   OH2 7310   2.747   0.189   4.735 -0.6934 -0.1877  0.2229
 2449TIP3    H1 7311   2.783   0.268   4.693 -1.3900 -0.4310 -0.8900
 2449TIP3    H2 7312   2.773   0.117   4.677 -2.7623 -0.3913 -0.5439
 2450TIP3   OH2 7313   0.344   1.023   3.761  0.1566  0.3192 -0.0378
 2450TIP3    H1 7314   0.400   1.098   3.777 -0.3360  1.1813 -2.1234
 2450TIP3    H2 7315   0.399   0.947   3.782  1.4306  1.1870 -0.1560
 2451TIP3   OH2 7316   5.089   4.985   1.774  0.2740 -0.5499 -0.2238
 2451TIP3    H1 7317   5.108   5.079   1.773 -0.2398 -0.4343 -1.3083
 2451TIP3    H2 7318   5.150   4.948   1.710  0.6099 -0.9861  0.3479
 2452TIP3   OH2 7319   2.200   2.470   1.732 -0.0755 -0.3694  0.7370
 2452TIP3    H1 7320   2.199   2.548   1.788 -2.6745 -0.1221  0.4610
 2452TIP3    H2 7321   2.205   2.397   1.793  2.2463 -0.0456  1.0053
 2453TIP3   OH2 7322   5.616   6.045   0.003 -0.1182  0.4591  0.2942
 2453TIP3    H1 7323   5.545   6.063  -0.058 -1.0649  1.2338  1.5554
 2453TIP3    H2 7324   5.588   6.087   0.085  1.7359  0.6648  0.8678
 2454TIP3   OH2 7325   3.540   1.389   5.470  0.1812  0.4679  0.0037
 2454TIP3    H1 7326   3.469   1.398   5.534  1.2643  0.3572  1.2822
 2454TIP3    H2 7327   3.495   1.376   5.386 -1.2947  1.2131  0.6325
 2455TIP3   OH2 7328   2.577   4.660   0.472  0.4444  0.2242 -0.0389
 2455TIP3    H1 7329   2.629   4.646   0.393 -0.1040  0.3272 -0.4257
 2455TIP3    H2 7330   2.537   4.575   0.490 -0.5075  0.5270 -0.6624
 2456TIP3   OH2 7331   1.909   5.493   0.371  0.1881  0.0064  0.0400
 2456TIP3    H1 7332   1.999   5.509   0.341 -0.1313 -1.2300 -1.7002
 2456TIP3    H2 7333   1.879   5.419   0.319 -1.3573 -0.5716  1.6545
 2457TIP3   OH2 7334   5.561   1.782   3.688 -0.1272  0.3394 -0.1206
 2457TIP3    H1 7335   5.505   1.704   3.693 -0.2311  0.4599  0.6285
 2457TIP3    H2 7336   5.502   1.851   3.656  0.2269 -0.1210 -1.9099
 2458TIP3   OH2 7337   3.217   5.767   1.833  0.5272 -0.4043  0.1713
 2458TIP3    H1 7338   3.139   5.727   1.795  0.1718 -0.2488  0.7200
 2458TIP3    H2 7339   3.223   5.729   1.921 -0.5028  1.5838  1.1696
 2459TIP3   OH2 7340   4.730   1.269   5.085  0.9786 -0.0715  0.1271
 2459TIP3    H1 7341   4.697   1.324   5.014 -1.1017  0.6606  1.5649
 2459TIP3    H2 7342   4.737   1.328   5.159  0.1299 -1.4087  1.3215
 2460TIP3   OH2 7343   2.197   0.248   3.567  0.0654 -0.3516 -0.1717
 2460TIP3    H1 7344   2.290   0.263   3.547  0.0513 -0.6737 -0.5113
 2460TIP3    H2 7345   2.194   0.156   3.594  0.0092 -0.0436  0.9039
 2461TIP3   OH2 7346   1.315   4.476   3.699  0.3075 -0.0386  0.2090
 2461TIP3    H1 7347   1.252   4.441   3.762  0.6333 -0.1010  0.5019
 2461TIP3    H2 7348   1.261   4.521   3.634 -0.1871 -1.7507 -0.6284
 2462TIP3   OH2 7349   6.205   2.584   5.727 -0.1544 -0.4054 -0.3777
 2462TIP3    H1 7350   6.127   2.612   5.680 -0.5574 -0.4204  0.2732
 2462TIP3    H2 7351   6.275   2.640   5.694 -0.6858  0.4547 -0.0496
 2463TIP3   OH2 7352   5.689   2.474   4.219 -0.5340  0.2699 -0.2337
 2463TIP3    H1 7353   5.683   2.469   4.123 -2.8240 -0.5547 -0.1215
 2463TIP3    H2 7354   5.781   2.461   4.238  0.0946  1.2122 -2.3642
 2464TIP3   OH2 7355   4.867   5.423   3.038 -0.1488  0.6425  0.2186
 2464TIP3    H1 7356   4.829   5.409   2.951  0.9935  0.8808 -0.3297
 2464TIP3    H2 7357   4.920   5.502   3.029 -0.2350  0.8325  1.2150
 2465TIP3   OH2 7358   5.220   3.912   2.567  0.7459 -0.1932 -0.6538
 2465TIP3    H1 7359   5.158   3.854   2.523  0.1147  1.6347 -2.3039
 2465TIP3    H2 7360   5.301   3.902   2.518  0.7545 -0.0014 -0.6787
 2466TIP3   OH2 7361   4.506   1.872   1.656  0.4310 -0.1486  0.1342
 2466TIP3    H1 7362   4.502   1.913   1.569 -3.6160 -0.5395 -0.0277
 2466TIP3    H2 7363   4.510   1.778   1.638 -2.4627 -0.3637  0.1972
 2467TIP3   OH2 7364   4.685   6.344   2.837 -0.4927  0.2367 -0.2711
 2467TIP3    H1 7365   4.589   6.351   2.835 -0.5565 -0.3949  0.2426
 2467TIP3    H2 7366   4.711   6.387   2.918 -0.4178 -0.3565  0.0241
 2468TIP3   OH2 7367   5.877   6.083   1.350  0.3732 -0.2897 -0.1282
 2468TIP3    H1 7368   5.837   6.160   1.310  2.1933 -0.3263 -2.1900
 2468TIP3    H2 7369   5.959   6.115   1.388  0.2565 -0.8993  0.6783
 2469TIP3   OH2 7370   1.681   1.947   5.369  0.1908 -0.0294  0.3411
 2469TIP3    H1 7371   1.652   1.943   5.278 -0.8252 -2.3852  0.7029
 2469TIP3    H2 7372   1.723   1.863   5.385  1.8975  0.9978  1.6075
 2470TIP3   OH2 7373   1.936   3.039   2.448  0.0936  0.3157  0.0258
 2470TIP3    H1 7374   1.880   3.098   2.498 -0.4011  1.3030 -1.6190
 2470TIP3    H2 7375   1.985   2.990   2.514  0.1857  2.2457  1.4609
 2471TIP3   OH2 7376   0.903   1.401   4.733 -0.0087  0.0634 -0.0952
 2471TIP3    H1 7377   0.863   1.484   4.762 -0.1591 -0.6551  1.9751
 2471TIP3    H2 7378   0.986   1.397   4.781  1.1438  0.0855 -2.0005
 2472TIP3   OH2 7379   6.183   5.186   4.220  0.0228  0.8691 -0.0406
 2472TIP3    H1 7380   6.095   5.222   4.233 -0.1861  0.6317 -0.7312
 2472TIP3    H2 7381   6.233   5.259   4.184 -0.1966  0.6932 -0.7148
 2473TIP3   OH2 7382   2.619   6.218   4.159  0.4917 -0.4825 -0.2549
 2473TIP3    H1 7383   2.712   6.200   4.171  0.6833 -0.8238 -2.1025
 2473TIP3    H2 7384   2.614   6.274   4.082 -0.9583 -2.2932 -1.5741
 2474TIP3   OH2 7385   4.139   4.518   1.208  0.0101 -0.3008  0.2040
 2474TIP3    H1 7386   4.208   4.494   1.270  0.3532  0.1953  0.0188
 2474TIP3    H2 7387   4.093   4.436   1.190  0.1073 -0.5014  0.8708
 2475TIP3   OH2 7388   6.258   4.274   0.467  0.2389  0.1577 -0.6941
 2475TIP3    H1 7389   6.318   4.227   0.409 -2.3503 -2.6452 -1.3769
 2475TIP3    H2 7390   6.314   4.332   0.518  3.3674 -1.6620 -1.7819
 2476TIP3   OH2 7391   2.492   5.809   3.842 -0.2217 -0.4835 -0.1968
 2476TIP3    H1 7392   2.466   5.899   3.861 -1.2116 -0.4501 -1.5748
 2476TIP3    H2 7393   2.545   5.783   3.918  1.2497  1.6933 -0.3973
 2477TIP3   OH2 7394   1.447   4.038   1.316  0.3043  0.6231  0.0964
 2477TIP3    H1 7395   1.428   3.977   1.386  1.0873  0.0732 -0.1637
 2477TIP3    H2 7396   1.420   4.123   1.350  1.2130  0.4533  1.2842
 2478TIP3   OH2 7397   6.260   6.004   1.963 -0.0103  0.4468 -0.0511
 2478TIP3    H1 7398   6.247   5.915   1.930  2.2486 -0.0841  0.3379
 2478TIP3    H2 7399   6.265   5.994   2.058  0.9059  0.8796 -0.0458
 2479TIP3   OH2 7400   1.945   1.593   5.438 -0.2002  0.0306  0.2226
 2479TIP3    H1 7401   2.026   1.602   5.388  0.6670  0.7012  1.6890
 2479TIP3    H2 7402   1.967   1.623   5.526 -1.8635 -0.4384  0.8449
 2480TIP3   OH2 7403   5.545   1.235   5.441  0.4017  0.2408  0.1548
 2480TIP3    H1 7404   5.467   1.181   5.453 -0.4640  1.5033  0.4041
 2480TIP3    H2 7405   5.613   1.191   5.492  0.1561 -1.4383 -0.8851
 2481TIP3   OH2 7406   4.953   5.116   1.413 -0.3938 -0.0420 -0.5120
 2481TIP3    H1 7407   5.016   5.170   1.461  0.8531  1.1762 -3.2754
 2481TIP3    H2 7408   4.876   5.113   1.469  2.1200 -2.0395  3.3344
 2482TIP3   OH2 7409   2.537   3.896   4.904 -0.0318 -0.1874  0.3797
 2482TIP3    H1 7410   2.459   3.840   4.902  0.2600 -0.6442  1.0617
 2482TIP3    H2 7411   2.522   3.956   4.977  0.0857 -0.0169  0.2652
 2483TIP3   OH2 7412   4.122   4.280   0.120  0.0918  0.0885  0.4145
 2483TIP3    H1 7413   4.082   4.332   0.189 -1.5991 -0.2224 -0.2793
 2483TIP3    H2 7414   4.060   4.208   0.105 -0.3506  0.9176 -2.3638
 2484TIP3   OH2 7415   7.009   4.707   4.781  0.3139  0.4347  0.0309
 2484TIP3    H1 7416   7.038   4.789   4.820  1.2531  0.8441 -1.4395
 2484TIP3    H2 7417   6.915   4.721   4.764  0.0481  0.4907  1.4469
 2485TIP3   OH2 7418   1.531   4.100   4.190  0.1592 -0.1089  0.7992
 2485TIP3    H1 7419   1.450   4.052   4.173  0.9552 -0.5983 -2.2402
 2485TIP3    H2 7420   1.577   4.047   4.256 -1.2078 -0.7277  1.2888
 2486TIP3   OH2 7421   5.148   0.538   4.666  0.0045  0.0633 -0.2938
 2486TIP3    H1 7422   5.227   0.509   4.712  0.1091 -0.1463 -0.6060
 2486TIP3    H2 7423   5.131   0.626   4.701  0.3445  0.0882 -0.1869
 2487TIP3   OH2 7424   0.516   1.319   3.395  0.0320 -0.4842  0.4121
 2487TIP3    H1 7425   0.532   1.227   3.418 -2.2220 -0.5008  2.3232
 2487TIP3    H2 7426   0.426   1.335   3.423  0.4373  2.3900  0.3450
 2488TIP3   OH2 7427   4.441   4.902   0.513 -0.6822 -0.0468  0.3822
 2488TIP3    H1 7428   4.383   4.901   0.590 -1.1218  3.7075  0.2785
 2488TIP3    H2 7429   4.411   4.829   0.459 -2.9350 -0.4216  2.0122
 2489TIP3   OH2 7430   1.590   6.075   3.206 -0.1033  0.2612 -0.0751
 2489TIP3    H1 7431   1.516   6.035   3.251  0.1132 -0.7016 -0.5511
 2489TIP3    H2 7432   1.550   6.129   3.137 -0.3703 -0.2993 -0.3681
 2490TIP3   OH2 7433   0.715   3.903   0.811  0.6898  0.2694 -0.0309
 2490TIP3    H1 7434   0.645   3.844   0.841  0.6641  0.7265  0.8389
 2490TIP3    H2 7435   0.766   3.921   0.889  1.7108  0.0678 -0.6273
 2491TIP3   OH2 7436   7.045   1.647   3.877  0.3481  0.0364  1.2034
 2491TIP3    H1 7437   6.958   1.676   3.904  1.1344  1.5140  2.3104
 2491TIP3    H2 7438   7.029   1.570   3.824 -1.8867  2.0548 -1.3529
 2492TIP3   OH2 7439   4.044   5.951   3.715  0.1349  0.0818  0.6714
 2492TIP3    H1 7440   4.025   5.871   3.762 -1.1279  0.5487  1.0043
 2492TIP3    H2 7441   4.040   5.926   3.622 -1.0633 -0.0976  0.7514
 2493TIP3   OH2 7442   3.525   5.753   1.802 -0.0998  0.1733 -0.5761
 2493TIP3    H1 7443   3.430   5.762   1.811  0.0493  0.5112  0.8620
 2493TIP3    H2 7444   3.540   5.659   1.809 -0.1375  0.2815  1.8198
 2494TIP3   OH2 7445   7.044   4.222   1.630 -0.2760  0.3797  0.1224
 2494TIP3    H1 7446   7.015   4.292   1.571 -2.7842 -0.8423 -0.2595
 2494TIP3    H2 7447   6.982   4.151   1.615  0.6423 -1.0076  2.2953
 2495TIP3   OH2 7448   1.053   3.603   5.276 -0.0819 -0.0275  0.3553
 2495TIP3    H1 7449   1.068   3.550   5.198 -0.2640  2.2867 -1.3779
 2495TIP3    H2 7450   1.126   3.665   5.278 -1.0689  1.1809  0.9099
 2496TIP3   OH2 7451   3.667   3.537   4.439 -0.1373 -0.3199 -0.0971
 2496TIP3    H1 7452   3.680   3.472   4.370 -0.4595  0.3436 -0.7842
 2496TIP3    H2 7453   3.704   3.495   4.517  0.6227 -0.9040 -0.7473
 2497TIP3   OH2 7454   7.015   1.600   4.721  0.0435 -0.6746  0.6860
 2497TIP3    H1 7455   6.983   1.582   4.809  0.7610  0.3354  1.1827
 2497TIP3    H2 7456   7.106   1.626   4.734 -0.4288  1.6052 -0.0790
 2498TIP3   OH2 7457   5.007   1.469   5.721 -0.1929 -0.1646 -0.4657
 2498TIP3    H1 7458   4.915   1.497   5.715 -0.2700 -0.2447  0.2548
 2498TIP3    H2 7459   5.057   1.549   5.709 -0.4246  0.6958  3.0999
 2499TIP3   OH2 7460   2.129   3.788   3.878 -0.3463  0.5152 -0.0125
 2499TIP3    H1 7461   2.127   3.784   3.782 -1.2164  4.0363 -0.2821
 2499TIP3    H2 7462   2.211   3.832   3.898  0.6229 -1.6456  1.0585
 2500TIP3   OH2 7463   4.814   4.065   4.807 -0.1847  0.3034  0.3705
 2500TIP3    H1 7464   4.817   4.057   4.711  0.6476 -1.1579  0.4797
 2500TIP3    H2 7465   4.723   4.089   4.826 -0.2954  0.8906 -0.7995
 2501TIP3   OH2 7466   6.115   5.456   0.182  0.3948  0.4370  0.2321
 2501TIP3    H1 7467   6.067   5.486   0.260 -1.3441  0.6265 -0.8564
 2501TIP3    H2 7468   6.120   5.361   0.192 -1.5730  0.2268 -0.3026
 2502TIP3   OH2 7469   1.376   0.032   5.033  0.3618 -0.2501 -0.0339
 2502TIP3    H1 7470   1.453   0.040   5.090 -0.0756 -0.9172  0.6698
 2502TIP3    H2 7471   1.307   0.000   5.090 -0.4535  0.3542 -0.6621
 2503TIP3   OH2 7472   6.109   2.182   3.266 -0.0864  0.3758  0.2271
 2503TIP3    H1 7473   6.031   2.136   3.235 -0.1992  0.8152 -0.1642
 2503TIP3    H2 7474   6.146   2.125   3.333 -0.1649 -0.3284 -0.3205
 2504TIP3   OH2 7475   0.155   4.588   0.996  0.5163  0.5198  0.1157
 2504TIP3    H1 7476   0.072   4.631   1.017  0.9363  0.6866  1.5600
 2504TIP3    H2 7477   0.137   4.495   1.007  0.2551  0.4803 -0.6012
 2505TIP3   OH2 7478   4.388   4.123   5.813  0.5138 -0.2564 -0.0994
 2505TIP3    H1 7479   4.403   4.057   5.745  2.1157  0.0209 -0.0616
 2505TIP3    H2 7480   4.458   4.188   5.799  0.6823 -0.0329  1.6013
 2506TIP3   OH2 7481   5.058   0.909   0.119 -0.3446  0.1985 -0.1740
 2506TIP3    H1 7482   5.094   0.962   0.047 -0.1721  0.5562  0.1665
 2506TIP3    H2 7483   4.992   0.854   0.079  1.8080 -1.8329 -1.2110
 2507TIP3   OH2 7484   6.745   1.141   4.726 -0.2839  0.2966 -0.3813
 2507TIP3    H1 7485   6.754   1.084   4.649 -2.2466  1.3926 -1.5056
 2507TIP3    H2 7486   6.731   1.228   4.690 -0.3587  1.0008  1.2573
 2508TIP3   OH2 7487   3.365   4.395   3.314  0.1815 -0.6026  0.4681
 2508TIP3    H1 7488   3.331   4.326   3.257 -0.0514 -0.7924  0.8362
 2508TIP3    H2 7489   3.456   4.407   3.286  0.2589 -1.1424  0.4846
 2509TIP3   OH2 7490   1.974   0.849   3.484 -0.2606  0.5773  0.1904
 2509TIP3    H1 7491   1.894   0.799   3.471  0.4806 -0.9992  1.3038
 2509TIP3    H2 7492   1.946   0.930   3.527 -1.3879  0.7037 -0.7449
 2510TIP3   OH2 7493   1.901   1.398   2.087  0.4063  0.5467  0.0046
 2510TIP3    H1 7494   1.931   1.480   2.047  0.9949 -0.0357 -0.7716
 2510TIP3    H2 7495   1.818   1.421   2.129  0.6833  1.5943  0.0084
 2511TIP3   OH2 7496   4.186   5.265   0.915 -0.4295  0.3073  0.7734
 2511TIP3    H1 7497   4.202   5.227   1.002  0.2160  1.5954  1.2467
 2511TIP3    H2 7498   4.091   5.269   0.907 -0.6607 -3.1660 -0.1332
 2512TIP3   OH2 7499   3.156   0.744   2.678 -0.4409  0.6249 -0.3542
 2512TIP3    H1 7500   3.162   0.672   2.741  0.1899  0.9292 -0.0532
 2512TIP3    H2 7501   3.068   0.738   2.643 -0.1893 -0.7077 -0.8204
 2513TIP3   OH2 7502   5.503   2.026   5.566  0.0912 -0.0591 -0.1522
 2513TIP3    H1 7503   5.565   2.011   5.494  1.0427  0.4400  0.5308
 2513TIP3    H2 7504   5.551   1.999   5.645 -1.2273 -1.3969  0.2382
 2514TIP3   OH2 7505   6.611   4.401   0.817 -0.3484  0.5920  0.1908
 2514TIP3    H1 7506   6.665   4.440   0.886 -1.6957  2.6664  0.1598
 2514TIP3    H2 7507   6.573   4.323   0.857  1.8782 -0.4026  0.4998
 2515TIP3   OH2 7508   0.791   4.124   2.025 -0.6149 -0.5386 -0.1556
 2515TIP3    H1 7509   0.746   4.084   2.099  1.2090 -0.9082  0.8026
 2515TIP3    H2 7510   0.830   4.050   1.978  1.9808 -0.0879  1.0921
 2516TIP3   OH2 7511   1.314   6.649   3.855  0.5496  0.2660  0.2727
 2516TIP3    H1 7512   1.359   6.699   3.923  0.0835  1.1478 -0.0504
 2516TIP3    H2 7513   1.364   6.667   3.775  1.7349 -1.6008  0.5147
 2517TIP3   OH2 7514   4.687  -0.004   1.118 -0.4411 -0.3061 -0.1896
 2517TIP3    H1 7515   4.771  -0.001   1.074  0.1187 -2.2090  0.6317
 2517TIP3    H2 7516   4.623   0.024   1.052  0.9922  4.2692 -0.0049
 2518TIP3   OH2 7517   6.782   1.705   0.732  0.1615  0.6841  0.5262
 2518TIP3    H1 7518   6.873   1.698   0.704  0.1339  0.5627  0.4678
 2518TIP3    H2 7519   6.786   1.759   0.811  0.5564 -1.2320  1.8887
 2519TIP3   OH2 7520   4.074   0.005   4.549 -0.0971 -0.0331  0.1400
 2519TIP3    H1 7521   4.153   0.010   4.496  0.6114 -1.3618  1.0257
 2519TIP3    H2 7522   4.093   0.060   4.626 -0.9620  1.5498 -0.7333
 2520TIP3   OH2 7523   1.743   1.504   3.923 -0.3617 -0.4314 -0.6593
 2520TIP3    H1 7524   1.803   1.430   3.929  0.3444  0.0508 -1.5980
 2520TIP3    H2 7525   1.798   1.581   3.937 -0.9547 -0.0334 -0.4748
 2521TIP3   OH2 7526   6.556   4.467   3.436  0.2647  0.3064 -0.4511
 2521TIP3    H1 7527   6.467   4.482   3.404  0.4990  2.3700 -0.2793
 2521TIP3    H2 7528   6.612   4.507   3.370  1.0386 -0.4991 -0.2916
 2522TIP3   OH2 7529   3.974   4.765   4.099 -0.2401  0.6492 -0.6438
 2522TIP3    H1 7530   3.971   4.826   4.025 -0.2599  0.3962 -0.8533
 2522TIP3    H2 7531   3.943   4.682   4.062 -0.6164  0.6139 -0.2630
 2523TIP3   OH2 7532   3.512   3.637   4.894  0.2731 -0.2509  0.1466
 2523TIP3    H1 7533   3.477   3.548   4.905  0.0390 -0.3596 -1.2221
 2523TIP3    H2 7534   3.571   3.629   4.819  1.6959  0.3707  1.1610
 2524TIP3   OH2 7535   2.469   4.521   5.896  0.4687 -0.0486 -0.0009
 2524TIP3    H1 7536   2.508   4.445   5.938  2.0970  0.7150 -0.0522
 2524TIP3    H2 7537   2.462   4.497   5.803  0.2574 -0.4114  0.1089
 2525TIP3   OH2 7538   2.888   1.566   1.844  0.0287 -0.1874 -0.0482
 2525TIP3    H1 7539   2.904   1.550   1.751  0.8045  1.0411 -0.1546
 2525TIP3    H2 7540   2.959   1.624   1.870 -0.8143  0.3886  1.0357
 2526TIP3   OH2 7541   5.430   0.666   5.274  0.1411  1.0306 -0.4250
 2526TIP3    H1 7542   5.488   0.725   5.226 -0.9808  0.5956 -2.4330
 2526TIP3    H2 7543   5.419   0.591   5.216 -2.7004  1.2559 -0.3094
 2527TIP3   OH2 7544   7.086   3.334   3.754  0.1001 -0.5322  0.3388
 2527TIP3    H1 7545   7.078   3.246   3.791  1.3445 -1.5785 -1.6814
 2527TIP3    H2 7546   6.996   3.359   3.733 -0.3532 -0.9631  1.7004
 2528TIP3   OH2 7547   6.417   4.266   4.620  0.3518  0.6526  0.0812
 2528TIP3    H1 7548   6.512   4.257   4.608  0.2817 -0.0241 -0.0169
 2528TIP3    H2 7549   6.407   4.316   4.701  0.8023  1.9033 -0.6169
 2529TIP3   OH2 7550   2.863   5.670   2.205  0.3505 -0.3827  0.0922
 2529TIP3    H1 7551   2.809   5.736   2.162  1.3418  0.4437  0.0719
 2529TIP3    H2 7552   2.946   5.714   2.221  0.9431 -1.5438  0.3376
 2530TIP3   OH2 7553   0.535   1.770   4.954 -0.0513  0.3205 -0.6582
 2530TIP3    H1 7554   0.492   1.831   5.013  0.2338  1.3294 -1.4701
 2530TIP3    H2 7555   0.624   1.761   4.989 -0.9692 -2.1954  1.3453
 2531TIP3   OH2 7556   3.459   0.384   5.428  0.5432 -0.1108 -0.0062
 2531TIP3    H1 7557   3.487   0.296   5.407  2.4740  0.6916 -0.9829
 2531TIP3    H2 7558   3.486   0.437   5.353  1.9418  1.7732  1.7228
 2532TIP3   OH2 7559   4.026   4.269   1.232  0.4921  0.7920  0.2026
 2532TIP3    H1 7560   3.964   4.313   1.290  0.3196  1.1531 -0.2515
 2532TIP3    H2 7561   4.069   4.204   1.288 -1.3121 -0.4800  0.2163
 2533TIP3   OH2 7562   2.721   0.585   0.224  0.2672 -0.5523 -0.1513
 2533TIP3    H1 7563   2.639   0.631   0.206  2.2069  2.8852 -1.2923
 2533TIP3    H2 7564   2.755   0.628   0.303  0.8998 -2.1280  0.4770
 2534TIP3   OH2 7565   3.368   0.551   5.716  0.1915  0.4210  0.0041
 2534TIP3    H1 7566   3.314   0.503   5.653  0.3590  1.0636 -0.6351
 2534TIP3    H2 7567   3.313   0.623   5.745 -0.2094 -0.3516  1.2721
 2535TIP3   OH2 7568   0.200   4.146   2.190  0.8588 -0.2014  0.2741
 2535TIP3    H1 7569   0.211   4.172   2.281 -1.1325 -0.9669  0.7937
 2535TIP3    H2 7570   0.195   4.228   2.142  1.4201  0.2209  0.9221
 2536TIP3   OH2 7571   4.186   0.235   2.248 -0.2888  0.2591  0.1162
 2536TIP3    H1 7572   4.110   0.290   2.231 -0.3221  0.3211  0.4420
 2536TIP3    H2 7573   4.149   0.148   2.266 -0.1356 -0.3694 -2.2752
 2537TIP3   OH2 7574   7.128   6.507   1.140  0.2816 -0.3205 -0.6750
 2537TIP3    H1 7575   7.090   6.420   1.147  2.1256 -1.0902  0.4266
 2537TIP3    H2 7576   7.185   6.515   1.216  1.3010  1.2673 -1.5401
 2538TIP3   OH2 7577   7.058   6.506   3.736  0.5943  0.0938  0.3681
 2538TIP3    H1 7578   7.145   6.518   3.697  0.9430 -1.7570  0.4901
 2538TIP3    H2 7579   6.998   6.508   3.661  0.8964  0.0603  0.1211
 2539TIP3   OH2 7580   2.291   2.620   2.203 -0.0297  0.1950 -0.2315
 2539TIP3    H1 7581   2.249   2.555   2.259  0.1903  1.2314  1.1831
 2539TIP3    H2 7582   2.221   2.648   2.143  0.3944 -2.7669 -2.2831
 2540TIP3   OH2 7583   1.773   3.043   4.631 -0.7470  0.1319  0.2286
 2540TIP3    H1 7584   1.762   3.039   4.726 -1.4537 -0.0162  0.1462
 2540TIP3    H2 7585   1.705   2.984   4.597  0.9130 -1.5719 -0.2876
 2541TIP3   OH2 7586   6.947   5.533   0.474 -0.1208  0.3424  0.2643
 2541TIP3    H1 7587   6.959   5.549   0.568  0.4813  1.3943  0.0309
 2541TIP3    H2 7588   6.864   5.486   0.468  0.4158 -0.8255  1.4127
 2542TIP3   OH2 7589   1.349   5.388   3.393 -0.5625 -0.6835 -0.2227
 2542TIP3    H1 7590   1.438   5.354   3.383 -0.9459 -2.0222  0.7158
 2542TIP3    H2 7591   1.313   5.342   3.469 -1.6515  0.7255  0.1664
 2543TIP3   OH2 7592   2.294   0.530   4.358  0.5134 -0.2742  0.2322
 2543TIP3    H1 7593   2.340   0.447   4.368  0.9450 -0.5079 -2.9358
 2543TIP3    H2 7594   2.215   0.508   4.308 -1.0201  0.7954  2.0331
 2544TIP3   OH2 7595   5.020   2.709   3.241  0.2342  0.2774 -0.2356
 2544TIP3    H1 7596   4.954   2.696   3.309  0.2796  2.0875  0.1937
 2544TIP3    H2 7597   5.066   2.625   3.236 -1.2337 -0.6044  0.3649
 2545TIP3   OH2 7598   4.116   1.665   5.240  0.3425  0.1077 -0.8409
 2545TIP3    H1 7599   4.031   1.672   5.197 -1.2821  2.1753  2.2799
 2545TIP3    H2 7600   4.108   1.590   5.299  0.5909  0.4314 -0.3851
 2546TIP3   OH2 7601   1.739   2.592   2.452  0.1907 -0.0206 -0.3835
 2546TIP3    H1 7602   1.798   2.650   2.403 -1.8630  2.0433 -0.6295
 2546TIP3    H2 7603   1.741   2.626   2.542 -1.5398  0.9821 -0.6714
 2547TIP3   OH2 7604   6.640   5.820   3.620  0.4107 -0.0186  0.6932
 2547TIP3    H1 7605   6.634   5.832   3.526  0.6768  0.1118  0.6921
 2547TIP3    H2 7606   6.594   5.738   3.637 -0.1837  0.2790  0.5287
 2548TIP3   OH2 7607   1.499   6.517   2.104  0.7394  0.1441  0.0200
 2548TIP3    H1 7608   1.465   6.518   2.194  0.5220 -0.4325 -0.0520
 2548TIP3    H2 7609   1.471   6.601   2.067 -0.7021 -0.3422 -0.0648
 2549TIP3   OH2 7610   0.963   4.060   1.787 -0.3202 -0.4589 -0.0369
 2549TIP3    H1 7611   1.010   3.994   1.736 -0.3313  0.4728 -1.2975
 2549TIP3    H2 7612   0.876   4.062   1.749 -0.4518 -0.0057  0.2760
 2550TIP3   OH2 7613   2.273   1.576   1.947 -0.1489 -0.3252  0.0717
 2550TIP3    H1 7614   2.271   1.649   1.885  0.0518  0.5210  1.0375
 2550TIP3    H2 7615   2.182   1.544   1.949 -0.7645  1.3688  1.3029
 2551TIP3   OH2 7616   4.477   6.095   1.424 -0.6729 -0.0800 -0.2334
 2551TIP3    H1 7617   4.415   6.152   1.379 -0.4715 -0.8924 -1.5985
 2551TIP3    H2 7618   4.487   6.019   1.366 -0.9130 -1.5110  1.5017
 2552TIP3   OH2 7619   0.514   0.043   5.242  0.1700 -0.1406  0.2498
 2552TIP3    H1 7620   0.540  -0.044   5.274  0.3839 -0.8137 -1.6361
 2552TIP3    H2 7621   0.436   0.064   5.292  0.6354 -1.0033  1.3981
 2553TIP3   OH2 7622   6.388   1.305   4.668 -0.2630  0.3652 -0.0564
 2553TIP3    H1 7623   6.310   1.301   4.612 -1.6978 -0.3038  1.8569
 2553TIP3    H2 7624   6.422   1.215   4.668 -0.6921  0.1930  0.6666
 2554TIP3   OH2 7625   5.816   6.229   3.458 -0.3413  0.7176  0.1406
 2554TIP3    H1 7626   5.752   6.191   3.397  0.0826 -0.2035  0.2523
 2554TIP3    H2 7627   5.882   6.269   3.401 -1.4463  2.5024  0.0183
 2555TIP3   OH2 7628   2.987   4.553   3.435  0.3877  0.2562 -0.4869
 2555TIP3    H1 7629   2.918   4.521   3.493 -0.5070  0.4739 -1.3961
 2555TIP3    H2 7630   2.963   4.521   3.348  0.1847  2.1889 -1.2086
 2556TIP3   OH2 7631   4.508   1.493   2.966 -0.2096  0.2186  0.1529
 2556TIP3    H1 7632   4.520   1.435   2.891  0.1638  0.2780  0.1644
 2556TIP3    H2 7633   4.448   1.445   3.024  1.5807 -1.0459  1.0623
 2557TIP3   OH2 7634   5.634   1.159   0.267  0.0754 -0.7009  0.0807
 2557TIP3    H1 7635   5.554   1.107   0.281  0.4420 -0.8421  1.8390
 2557TIP3    H2 7636   5.692   1.134   0.339  1.0456  0.6903 -0.1807
 2558TIP3   OH2 7637   0.733   3.386   0.005  0.3009 -0.0848 -0.0028
 2558TIP3    H1 7638   0.744   3.479   0.028 -0.0978  0.3833 -1.5921
 2558TIP3    H2 7639   0.639   3.371   0.011  0.2310 -0.0556 -0.8824
 2559TIP3   OH2 7640   6.746   0.985   5.608 -0.5191 -0.2377 -0.4616
 2559TIP3    H1 7641   6.657   0.989   5.645 -0.2554 -0.2182  0.1850
 2559TIP3    H2 7642   6.748   1.055   5.544 -1.3699 -1.0264 -1.3868
 2560TIP3   OH2 7643   0.931   6.188   3.718  0.4948 -0.8952  0.0316
 2560TIP3    H1 7644   0.852   6.191   3.771 -0.3430 -1.1205 -1.1556
 2560TIP3    H2 7645   0.954   6.279   3.703  1.3641 -0.8204  1.6369
 2561TIP3   OH2 7646   1.900   4.204   3.718  0.2912 -0.0336 -0.1513
 2561TIP3    H1 7647   1.925   4.116   3.690  1.2357 -0.0760  0.8141
 2561TIP3    H2 7648   1.818   4.191   3.767  0.9933 -0.5223  0.9175
 2562TIP3   OH2 7649   1.077   2.631   2.145 -0.2136 -0.8747 -0.2242
 2562TIP3    H1 7650   1.058   2.601   2.056 -0.5411 -0.4363 -0.3105
 2562TIP3    H2 7651   0.992   2.630   2.189 -0.7813  2.2238 -0.9526
 2563TIP3   OH2 7652   1.499   3.719   5.101  0.3786 -0.2308  0.5294
 2563TIP3    H1 7653   1.545   3.775   5.164 -1.5717 -0.5954  2.4160
 2563TIP3    H2 7654   1.412   3.709   5.139 -0.7554 -0.8456 -2.0882
 2564TIP3   OH2 7655   4.326   1.680   0.829 -0.4424 -0.1222  0.0828
 2564TIP3    H1 7656   4.412   1.716   0.853  0.0786  0.1787 -2.0629
 2564TIP3    H2 7657   4.325   1.593   0.869 -0.1912  0.7948  2.2236
 2565TIP3   OH2 7658   2.537   0.688   1.842  0.4656 -0.3218 -0.2911
 2565TIP3    H1 7659   2.583   0.605   1.859  0.7441 -0.1769 -0.3183
 2565TIP3    H2 7660   2.531   0.730   1.927  2.8630  0.9168 -0.6284
 2566TIP3   OH2 7661   6.537   0.149   5.095 -0.4474 -0.2876 -0.5011
 2566TIP3    H1 7662   6.623   0.109   5.108 -2.0553 -3.6815  1.0174
 2566TIP3    H2 7663   6.553   0.243   5.103  3.0133 -0.7965  0.1972
 2567TIP3   OH2 7664   1.919   0.107   5.740  0.1014 -0.5103 -0.4801
 2567TIP3    H1 7665   1.846   0.169   5.739 -0.0679 -0.7112 -0.5975
 2567TIP3    H2 7666   1.912   0.064   5.825  1.7587  1.4451  0.7501
 2568TIP3   OH2 7667   3.214   2.617   3.447  0.3179  0.4211 -0.1756
 2568TIP3    H1 7668   3.181   2.540   3.401  1.5489  0.8436 -1.8816
 2568TIP3    H2 7669   3.137   2.655   3.489 -1.0394  0.3444 -2.4500
 2569TIP3   OH2 7670   2.401   4.985   4.127 -0.0474  0.2135 -0.4666
 2569TIP3    H1 7671   2.352   4.903   4.121 -1.7876  1.2218 -0.8054
 2569TIP3    H2 7672   2.491   4.961   4.106 -0.2938 -1.7888  0.4853
 2570TIP3   OH2 7673   2.309   6.367   1.126 -0.3614  0.0814 -0.2246
 2570TIP3    H1 7674   2.273   6.372   1.214  0.3026  0.5244  0.0292
 2570TIP3    H2 7675   2.243   6.408   1.071  0.0656  1.5528  0.3321
 2571TIP3   OH2 7676   1.715   6.619   3.967 -0.1624 -0.0686 -0.1851
 2571TIP3    H1 7677   1.642   6.658   3.917 -1.4119 -0.8456  0.9570
 2571TIP3    H2 7678   1.676   6.597   4.052  0.8898 -2.3065 -0.2176
 2572TIP3   OH2 7679   2.483   0.260   3.414 -0.3073 -0.1098 -0.1292
 2572TIP3    H1 7680   2.514   0.320   3.346  0.4486 -0.4491 -0.0875
 2572TIP3    H2 7681   2.510   0.300   3.496 -1.1368  0.2509 -0.0233
 2573TIP3   OH2 7682   4.400   5.287   3.087  0.5650  0.2178 -0.6295
 2573TIP3    H1 7683   4.395   5.246   3.001  0.5488 -1.3829  0.0985
 2573TIP3    H2 7684   4.332   5.243   3.138  1.0854  0.5990  0.4229
 2574TIP3   OH2 7685   4.719   1.762   0.693 -0.2746 -0.3669  0.0363
 2574TIP3    H1 7686   4.655   1.707   0.646  0.6113 -1.0667 -0.3792
 2574TIP3    H2 7687   4.789   1.777   0.630  0.4040 -0.3729  0.7720
 2575TIP3   OH2 7688   3.996   3.610   5.058  0.5115 -0.2680 -0.1056
 2575TIP3    H1 7689   3.988   3.672   5.130  0.0777  1.1326 -1.3287
 2575TIP3    H2 7690   4.049   3.538   5.095  0.1456  0.3048  1.6459
 2576TIP3   OH2 7691   5.841   3.602   3.806  0.2675 -0.8723 -0.2699
 2576TIP3    H1 7692   5.842   3.667   3.876 -1.1040 -1.4454  0.3244
 2576TIP3    H2 7693   5.790   3.642   3.736  0.8200 -0.6843 -0.5774
 2577TIP3   OH2 7694   5.330   3.546   1.298 -0.3937 -0.6105  0.1073
 2577TIP3    H1 7695   5.305   3.466   1.253 -1.6353  0.5621 -1.3979
 2577TIP3    H2 7696   5.252   3.572   1.346 -0.3870  0.2939 -0.3510
 2578TIP3   OH2 7697   0.856   6.152   0.276  1.1035  0.6168  0.0760
 2578TIP3    H1 7698   0.938   6.150   0.324  1.1991  1.4388 -0.0441
 2578TIP3    H2 7699   0.867   6.222   0.211  1.3242 -1.0594 -1.7925
 2579TIP3   OH2 7700   4.048   2.974   0.659 -0.0956 -0.0830 -0.6628
 2579TIP3    H1 7701   4.112   2.940   0.721  0.7754 -1.1893 -2.1020
 2579TIP3    H2 7702   3.991   2.899   0.640 -2.2832  1.0413  1.0809
 2580TIP3   OH2 7703   5.300   0.424   0.535 -0.0677 -0.0897  0.1721
 2580TIP3    H1 7704   5.305   0.359   0.605  0.0421  0.1603  0.3973
 2580TIP3    H2 7705   5.227   0.481   0.559  1.4315  1.4235  1.3209
 2581TIP3   OH2 7706   2.629   6.115   4.595  0.3662 -0.1450  0.5463
 2581TIP3    H1 7707   2.644   6.056   4.521 -0.2791 -0.3394  0.5673
 2581TIP3    H2 7708   2.717   6.131   4.631  0.4910 -1.7066  1.0068
 2582TIP3   OH2 7709   2.525   0.465   3.257 -0.1131 -0.4621 -0.2227
 2582TIP3    H1 7710   2.463   0.528   3.294  0.5087 -1.1510  2.2302
 2582TIP3    H2 7711   2.600   0.518   3.229  0.4281 -0.0188  1.8731
 2583TIP3   OH2 7712   3.308   3.493   3.529 -0.5233 -0.5312 -0.5956
 2583TIP3    H1 7713   3.348   3.538   3.454 -0.7120 -1.4225 -1.2441
 2583TIP3    H2 7714   3.355   3.410   3.534  1.0653  0.4030  1.7058
 2584TIP3   OH2 7715   6.053   4.148   2.873  0.0874  0.2406 -0.1709
 2584TIP3    H1 7716   5.982   4.173   2.814  0.0085  0.6189  0.0840
 2584TIP3    H2 7717   6.115   4.101   2.817  1.1937  2.6311 -1.0962
 2585TIP3   OH2 7718   7.179   4.244   3.512  1.0050 -0.1416  0.3794
 2585TIP3    H1 7719   7.087   4.270   3.512  0.4411 -1.9269 -0.7139
 2585TIP3    H2 7720   7.226   4.321   3.542 -0.7826  1.0766  0.2071
 2586TIP3   OH2 7721   6.821   6.380   4.696  0.1925  0.1040  0.5231
 2586TIP3    H1 7722   6.861   6.458   4.733  1.1242 -0.5521  0.9412
 2586TIP3    H2 7723   6.776   6.338   4.770  0.1662 -0.0414  0.4253
 2587TIP3   OH2 7724   0.789   5.929   0.704 -0.0957  0.1965  0.4416
 2587TIP3    H1 7725   0.876   5.968   0.704 -0.0251  0.0378  0.4717
 2587TIP3    H2 7726   0.801   5.844   0.745 -0.2153  0.0595  0.1921
 2588TIP3   OH2 7727   3.954   2.015   3.490 -0.4648  0.5793 -0.0519
 2588TIP3    H1 7728   3.900   2.051   3.420 -0.2889  0.2816 -0.3470
 2588TIP3    H2 7729   4.004   1.945   3.447  0.3056  0.9848  0.1573
 2589TIP3   OH2 7730   5.235   2.492   4.351 -0.3565 -0.1268 -0.0865
 2589TIP3    H1 7731   5.211   2.532   4.268  0.8786 -1.8118 -1.3348
 2589TIP3    H2 7732   5.252   2.400   4.329 -2.1042 -1.1800  2.4294
 2590TIP3   OH2 7733   6.562   1.147   5.229  0.1199  0.9617 -0.4534
 2590TIP3    H1 7734   6.601   1.205   5.164  1.7250  1.2015  0.6737
 2590TIP3    H2 7735   6.598   1.176   5.313 -3.2222  1.8209  0.8588
 2591TIP3   OH2 7736   5.604   2.327   3.606  0.6482 -0.2333  0.3884
 2591TIP3    H1 7737   5.590   2.256   3.544  0.9795 -0.5322  0.6525
 2591TIP3    H2 7738   5.518   2.368   3.615  0.6634  0.0149 -0.5067
 2592TIP3   OH2 7739   2.719   0.899   4.581  0.3520  0.3223 -0.4073
 2592TIP3    H1 7740   2.664   0.829   4.616  0.6193 -0.7718 -2.0749
 2592TIP3    H2 7741   2.665   0.978   4.589 -0.4122 -0.2546  0.4145
 2593TIP3   OH2 7742   2.560   3.578   4.597  0.6192  0.2707 -0.0589
 2593TIP3    H1 7743   2.521   3.542   4.517  0.5697  0.2805 -0.0392
 2593TIP3    H2 7744   2.589   3.501   4.645 -0.7450  0.1510  0.6378
 2594TIP3   OH2 7745   4.220   0.757   0.846 -0.1066 -0.4200  0.4730
 2594TIP3    H1 7746   4.288   0.769   0.780 -1.2678  4.6895 -0.2181
 2594TIP3    H2 7747   4.141   0.738   0.796 -0.6054  1.4939  0.4689
 2595TIP3   OH2 7748   3.806   4.748   4.354 -0.0170  0.3172  0.1163
 2595TIP3    H1 7749   3.804   4.809   4.427 -2.4872  0.2822  0.1740
 2595TIP3    H2 7750   3.853   4.795   4.285 -0.1070  1.4713  0.8099
 2596TIP3   OH2 7751   3.442   3.009   1.469 -0.1620 -0.0464  0.4933
 2596TIP3    H1 7752   3.473   3.026   1.380  0.0933  0.2180  0.6297
 2596TIP3    H2 7753   3.347   3.002   1.461 -0.2648  1.2868  0.3948
 2597TIP3   OH2 7754   5.333   4.381   4.686 -0.1157  0.6184  0.4667
 2597TIP3    H1 7755   5.373   4.468   4.682 -0.8384  0.9125 -1.7808
 2597TIP3    H2 7756   5.348   4.344   4.599  1.3660 -2.1172  1.7582
 2598TIP3   OH2 7757   0.104   5.424   0.265 -0.7490 -0.1050 -0.1356
 2598TIP3    H1 7758   0.068   5.489   0.326  0.2847  0.5935 -0.2420
 2598TIP3    H2 7759   0.046   5.349   0.274 -0.7588  0.0541  1.5391
 2599TIP3   OH2 7760   2.709   1.438   5.117  0.3897 -0.8485  0.3372
 2599TIP3    H1 7761   2.759   1.437   5.198  0.7170 -0.8117  0.1389
 2599TIP3    H2 7762   2.678   1.347   5.107 -0.0708 -0.7413  0.7547
 2600TIP3   OH2 7763   6.295   5.087   4.746 -0.2135 -0.0426 -0.3030
 2600TIP3    H1 7764   6.253   5.171   4.730  1.7951  1.2391  0.7251
 2600TIP3    H2 7765   6.270   5.064   4.835 -2.0185 -1.3910 -1.0886
 2601TIP3   OH2 7766   1.852   5.546   4.252 -0.8191 -0.2935  0.0617
 2601TIP3    H1 7767   1.790   5.488   4.295 -0.3515 -1.7687 -1.1843
 2601TIP3    H2 7768   1.813   5.566   4.167 -1.0172  1.3384  0.4921
 2602TIP3   OH2 7769   4.919   4.600   0.273  0.3093  0.2264 -0.1028
 2602TIP3    H1 7770   4.947   4.679   0.318 -0.1364  0.1018  0.4074
 2602TIP3    H2 7771   4.993   4.540   0.282  0.9050  0.7948 -1.0530
 2603TIP3   OH2 7772   5.139   2.821   1.395 -0.6918 -0.2212 -0.4810
 2603TIP3    H1 7773   5.049   2.823   1.427 -1.0747  1.5943 -1.5591
 2603TIP3    H2 7774   5.165   2.913   1.390  1.6520 -0.7406  0.8997
 2604TIP3   OH2 7775   6.225   6.816   0.190 -0.3527  0.1593 -0.4630
 2604TIP3    H1 7776   6.301   6.786   0.140 -1.5797 -1.4935 -1.4419
 2604TIP3    H2 7777   6.223   6.762   0.268  0.6464  1.6496  0.6306
 2605TIP3   OH2 7778   3.885   1.848   3.770  0.1543 -0.4935  0.4889
 2605TIP3    H1 7779   3.857   1.762   3.739 -0.0586 -0.3222  0.2001
 2605TIP3    H2 7780   3.878   1.905   3.694 -1.6149  0.2247  1.1388
 2606TIP3   OH2 7781   6.048   4.286   4.894  0.8141 -0.2673  0.4857
 2606TIP3    H1 7782   5.976   4.224   4.880  1.7880 -1.6824  1.4648
 2606TIP3    H2 7783   6.083   4.301   4.806 -0.8559  0.7353 -0.0603
 2607TIP3   OH2 7784   2.862   5.650   0.751 -0.1370 -0.0947 -0.0018
 2607TIP3    H1 7785   2.895   5.560   0.762  0.0519 -0.0403 -0.1275
 2607TIP3    H2 7786   2.788   5.641   0.691 -0.8037 -0.3140  0.8360
 2608TIP3   OH2 7787   4.105   0.198   5.245  0.5529  0.2538  0.0796
 2608TIP3    H1 7788   4.157   0.277   5.258  0.0200  0.3798  1.6915
 2608TIP3    H2 7789   4.169   0.127   5.239  0.9651  0.5677  0.6652
 2609TIP3   OH2 7790   6.114   1.759   1.848  0.1535  0.1199 -0.5900
 2609TIP3    H1 7791   6.197   1.725   1.883  0.4509  1.3600 -0.0291
 2609TIP3    H2 7792   6.056   1.760   1.924 -0.5933 -1.3018 -1.1035
 2610TIP3   OH2 7793   3.773   1.287   3.429  0.0237  0.2147  0.4095
 2610TIP3    H1 7794   3.845   1.348   3.412 -0.1611  0.3505  0.1142
 2610TIP3    H2 7795   3.712   1.337   3.483 -0.5833  0.6188 -0.6170
 2611TIP3   OH2 7796   0.950   1.957   4.501 -0.1445 -0.3630 -0.1928
 2611TIP3    H1 7797   0.866   1.942   4.544 -0.3553 -0.9920 -0.8015
 2611TIP3    H2 7798   0.975   2.046   4.527 -0.7453 -0.3596  0.4037
 2612TIP3   OH2 7799   6.759   3.799   4.185  0.1632 -0.4576  0.2662
 2612TIP3    H1 7800   6.690   3.853   4.145  1.2893  1.2331  0.5194
 2612TIP3    H2 7801   6.805   3.761   4.111  1.1258  1.2381 -0.0496
 2613TIP3   OH2 7802   6.364   6.564   5.795  0.0765  0.0085  0.1950
 2613TIP3    H1 7803   6.432   6.505   5.763 -1.0397 -0.5496 -1.2750
 2613TIP3    H2 7804   6.411   6.629   5.848  1.6080 -0.9048  0.0110
 2614TIP3   OH2 7805   6.213   1.984   2.101 -0.4809  0.6750  0.1607
 2614TIP3    H1 7806   6.236   2.006   2.011 -0.2281 -0.0319  0.0447
 2614TIP3    H2 7807   6.283   1.925   2.130 -1.1839 -0.0622  0.4072
 2615TIP3   OH2 7808   5.673   2.438   2.487 -0.3699  0.0765 -0.3654
 2615TIP3    H1 7809   5.701   2.348   2.499  0.3926  0.3446 -0.0541
 2615TIP3    H2 7810   5.727   2.488   2.549  0.4828  0.9670 -1.7838
 2616TIP3   OH2 7811   0.740   5.631   5.120  0.0438  0.0801 -0.2836
 2616TIP3    H1 7812   0.646   5.644   5.113 -0.1892 -1.7059 -0.8798
 2616TIP3    H2 7813   0.756   5.544   5.082  1.7772 -0.1612  0.8610
 2617TIP3   OH2 7814   3.842   2.408   4.911  0.4749 -0.6946  0.6451
 2617TIP3    H1 7815   3.890   2.372   4.837 -0.6483 -0.3597 -0.2798
 2617TIP3    H2 7816   3.843   2.338   4.977 -1.3254 -2.3651 -0.9491
 2618TIP3   OH2 7817   3.445   3.787   5.802  0.0449  0.4701 -0.0700
 2618TIP3    H1 7818   3.476   3.852   5.739  1.9847 -0.2262  0.0854
 2618TIP3    H2 7819   3.366   3.750   5.761 -0.5210  2.1907 -0.6030
 2619TIP3   OH2 7820   4.040   3.387   3.214  0.0916 -0.1639 -0.1246
 2619TIP3    H1 7821   4.100   3.407   3.142 -0.2724 -1.6250 -0.8865
 2619TIP3    H2 7822   4.001   3.471   3.237 -0.6027  0.2087 -2.3976
 2620TIP3   OH2 7823   6.261   6.200   5.412 -0.5926  0.4006 -0.0541
 2620TIP3    H1 7824   6.311   6.143   5.472  1.4128  0.7534 -1.2995
 2620TIP3    H2 7825   6.275   6.288   5.446 -1.3215  0.4229  0.2147
 2621TIP3   OH2 7826   0.940   4.431   3.116  0.2225 -0.0198  0.0735
 2621TIP3    H1 7827   0.949   4.461   3.207  1.2056 -1.2276  0.3977
 2621TIP3    H2 7828   0.846   4.430   3.100  0.0551  0.5451  0.9642
 2622TIP3   OH2 7829   0.829   5.112   0.316 -0.5149 -0.2998 -0.7303
 2622TIP3    H1 7830   0.799   5.169   0.245 -0.4691  0.4473 -0.1648
 2622TIP3    H2 7831   0.766   5.040   0.318 -0.3499 -0.4849 -1.7165
 2623TIP3   OH2 7832   0.946   2.450   1.976 -0.3314  0.3178  0.3967
 2623TIP3    H1 7833   0.886   2.412   1.912 -0.8188  2.0684 -0.2410
 2623TIP3    H2 7834   0.988   2.375   2.017 -1.3273 -0.8909 -0.7167
 2624TIP3   OH2 7835   5.136   2.215   2.069  0.3601  0.0803 -0.7905
 2624TIP3    H1 7836   5.193   2.255   2.003 -2.0688  2.3145 -1.7366
 2624TIP3    H2 7837   5.052   2.260   2.058 -1.0804 -1.7388  1.7274
 2625TIP3   OH2 7838   6.550   6.025   0.648  0.3073  0.0343 -0.4586
 2625TIP3    H1 7839   6.464   5.983   0.640 -0.8633  1.4145  2.9600
 2625TIP3    H2 7840   6.530   6.116   0.670  2.6649  0.4762  0.1257
 2626TIP3   OH2 7841   3.799   3.231   3.269 -0.1237  0.0165  0.2289
 2626TIP3    H1 7842   3.881   3.280   3.264 -0.6631  0.8103 -1.6649
 2626TIP3    H2 7843   3.735   3.285   3.223 -1.7818 -0.5346  1.7385
 2627TIP3   OH2 7844   0.863   6.107   4.813 -0.1692  0.2547  0.5089
 2627TIP3    H1 7845   0.898   6.183   4.859 -2.3828  1.4136  0.4275
 2627TIP3    H2 7846   0.773   6.100   4.844 -0.7275 -0.9320 -1.2309
 2628TIP3   OH2 7847   5.543   4.310   2.845  0.3033  0.3027 -0.0688
 2628TIP3    H1 7848   5.492   4.238   2.882  1.1508  0.9920  2.6745
 2628TIP3    H2 7849   5.491   4.388   2.865  0.1233  0.6259 -1.6597
 2629TIP3   OH2 7850   7.228   6.390   3.330 -0.1882  0.3984  0.6512
 2629TIP3    H1 7851   7.134   6.400   3.315  0.3974  3.4417 -2.2917
 2629TIP3    H2 7852   7.243   6.429   3.416 -1.3733  2.4614 -0.0021
 2630TIP3   OH2 7853   1.960   0.400   3.572  0.4179  0.2056 -0.2235
 2630TIP3    H1 7854   1.913   0.394   3.655 -0.3131 -0.3249 -0.6615
 2630TIP3    H2 7855   2.044   0.355   3.588 -0.0838 -0.6776 -0.0146
 2631TIP3   OH2 7856   2.469   4.008   1.983  0.1753  0.5360  0.2150
 2631TIP3    H1 7857   2.425   3.952   1.919  2.6046 -0.0556 -1.0767
 2631TIP3    H2 7858   2.472   4.094   1.941  0.4635  0.5052  0.1686
 2632TIP3   OH2 7859   0.194   0.292   4.330  0.2415 -0.0650 -0.4821
 2632TIP3    H1 7860   0.170   0.373   4.286  2.3915  0.0608 -1.6074
 2632TIP3    H2 7861   0.153   0.297   4.416 -1.3355  1.2588 -1.2684
 2633TIP3   OH2 7862   6.057   2.019   1.773 -0.0008  0.5159  0.0756
 2633TIP3    H1 7863   6.078   1.926   1.784 -3.1236 -0.3622 -0.1479
 2633TIP3    H2 7864   6.033   2.027   1.680 -2.2902  0.8462  0.6252
 2634TIP3   OH2 7865   5.937   0.056   3.014 -0.2347  0.2250 -0.4695
 2634TIP3    H1 7866   5.917  -0.036   2.994  1.8986 -0.2288 -0.6668
 2634TIP3    H2 7867   5.970   0.054   3.104 -1.8107  1.0885  0.1738
 2635TIP3   OH2 7868   1.283   0.859   5.803 -0.3262  0.3134  1.0062
 2635TIP3    H1 7869   1.200   0.897   5.773 -1.4865 -1.8703  1.2657
 2635TIP3    H2 7870   1.310   0.801   5.732  0.7302  0.6243  1.1459
 2636TIP3   OH2 7871   3.467   5.396   3.026  0.2261  0.2160  0.4308
 2636TIP3    H1 7872   3.465   5.472   2.967 -0.5781 -1.1887 -1.4313
 2636TIP3    H2 7873   3.382   5.355   3.014  0.2064 -0.3606  2.3065
 2637TIP3   OH2 7874   3.186   3.782   1.774 -0.8281  0.4142  0.1501
 2637TIP3    H1 7875   3.209   3.716   1.839  0.4950 -0.8415 -1.4935
 2637TIP3    H2 7876   3.091   3.781   1.771 -0.8411 -1.3437  0.2664
 2638TIP3   OH2 7877   2.123   5.198   2.832  0.3438  0.2187 -0.1975
 2638TIP3    H1 7878   2.128   5.292   2.848 -0.5781 -0.0015  1.7055
 2638TIP3    H2 7879   2.040   5.186   2.786  1.0649  0.4369 -1.6035
 2639TIP3   OH2 7880   1.131   4.460   1.011  0.9012 -0.5864  0.6022
 2639TIP3    H1 7881   1.056   4.515   0.989  0.5238 -1.3964 -0.1582
 2639TIP3    H2 7882   1.204   4.522   1.021  0.5844  0.0132 -0.6773
 2640TIP3   OH2 7883   5.946   4.982   2.880  0.0674 -0.3181 -0.5441
 2640TIP3    H1 7884   6.022   4.925   2.871  1.6238  1.4980  0.3567
 2640TIP3    H2 7885   5.972   5.063   2.837 -1.1397  0.5259  0.2663
 2641TIP3   OH2 7886   0.047   2.770   3.484 -0.0853  0.8309  0.1869
 2641TIP3    H1 7887   0.127   2.784   3.434  0.1589 -0.2798  0.2438
 2641TIP3    H2 7888  -0.017   2.740   3.420 -0.1874  0.7939  0.3046
 2642TIP3   OH2 7889   3.724   4.669   0.578  0.1042  0.0524 -0.0798
 2642TIP3    H1 7890   3.736   4.667   0.673  1.2071  1.9641 -0.1319
 2642TIP3    H2 7891   3.758   4.585   0.548  0.0686 -0.4349  1.1734
 2643TIP3   OH2 7892   5.019   1.552   3.869 -0.7353 -0.5895 -0.2401
 2643TIP3    H1 7893   4.975   1.635   3.850 -0.3315 -0.4697 -0.6756
 2643TIP3    H2 7894   5.112   1.574   3.874 -0.6721 -0.9276  0.1800
 2644TIP3   OH2 7895   2.172   3.582   3.600  0.2307  0.6118 -0.9545
 2644TIP3    H1 7896   2.244   3.520   3.611  1.6267  2.2121 -0.4729
 2644TIP3    H2 7897   2.116   3.567   3.676  1.3327  0.8717 -0.0521
 2645TIP3   OH2 7898   3.653   2.530   0.933  0.2351 -0.3717  0.0489
 2645TIP3    H1 7899   3.724   2.588   0.962 -0.2651  0.9895 -1.2733
 2645TIP3    H2 7900   3.688   2.442   0.943  1.2902  0.1786  1.4860
 2646TIP3   OH2 7901   2.445   0.430   4.091 -0.2478  0.4403 -1.1782
 2646TIP3    H1 7902   2.432   0.402   4.182 -1.9023  2.0204 -0.8437
 2646TIP3    H2 7903   2.427   0.352   4.039 -2.0827  0.1598 -0.2201
 2647TIP3   OH2 7904   0.994   6.019   5.723 -0.1759  0.2567 -0.2431
 2647TIP3    H1 7905   0.935   5.945   5.707  0.0585 -0.6393  2.5952
 2647TIP3    H2 7906   0.948   6.095   5.686 -2.5017 -0.6269  0.6726
 2648TIP3   OH2 7907   4.632   3.583   5.738 -0.2290  0.1069  0.5257
 2648TIP3    H1 7908   4.604   3.525   5.809 -1.5315 -2.1492 -1.7018
 2648TIP3    H2 7909   4.563   3.576   5.672  0.6984  2.4955 -0.8216
 2649TIP3   OH2 7910   0.331   2.678   5.081 -0.5120 -0.6812 -0.7106
 2649TIP3    H1 7911   0.327   2.736   5.005  0.0153 -1.3333 -1.2588
 2649TIP3    H2 7912   0.298   2.730   5.154  0.7732  0.5991 -1.0051
 2650TIP3   OH2 7913   2.597   0.303   2.406 -0.6930 -0.1005  0.3174
 2650TIP3    H1 7914   2.662   0.248   2.361 -0.7855  1.2309 -1.5563
 2650TIP3    H2 7915   2.533   0.324   2.338 -1.4157  1.1532  1.3466
 2651TIP3   OH2 7916   3.210   5.797   5.147  0.4150 -0.0693  0.4795
 2651TIP3    H1 7917   3.260   5.765   5.071 -0.2523  2.0268 -0.9180
 2651TIP3    H2 7918   3.269   5.860   5.189  0.1987 -0.0859  0.8071
 2652TIP3   OH2 7919   0.601   4.305   1.964 -0.7494 -0.2839 -0.2445
 2652TIP3    H1 7920   0.528   4.248   1.942  0.0318 -1.5651  0.3534
 2652TIP3    H2 7921   0.673   4.245   1.985  0.7817  0.9298 -1.7396
 2653TIP3   OH2 7922   1.100   6.153   3.480  0.1403 -0.2692  0.3289
 2653TIP3    H1 7923   1.041   6.164   3.555  1.6604 -0.8614  1.6726
 2653TIP3    H2 7924   1.055   6.091   3.423 -0.4840 -0.8416  1.4042
 2654TIP3   OH2 7925   1.013   1.160   3.292  0.3830 -0.4842  0.6809
 2654TIP3    H1 7926   1.075   1.097   3.329  1.1397 -0.5689 -0.6991
 2654TIP3    H2 7927   1.067   1.230   3.257 -0.1182 -1.3211 -2.0170
 2655TIP3   OH2 7928   0.224   4.298   0.834 -0.3996  0.1196 -0.2654
 2655TIP3    H1 7929   0.197   4.311   0.925  0.2059 -0.3040 -0.0225
 2655TIP3    H2 7930   0.269   4.379   0.811 -1.9771  0.9196 -0.7361
 2656TIP3   OH2 7931   7.146   2.296   1.679  0.6002  0.2024  0.2355
 2656TIP3    H1 7932   7.139   2.351   1.756 -1.6528 -0.4395  0.5603
 2656TIP3    H2 7933   7.118   2.352   1.607 -2.7112 -0.6507  0.7006
 2657TIP3   OH2 7934   3.591   1.164   2.058 -0.0904  0.5817  0.0584
 2657TIP3    H1 7935   3.583   1.193   1.967 -0.5278  1.2433  0.3023
 2657TIP3    H2 7936   3.648   1.087   2.053 -2.4063 -1.1847 -1.1382
 2658TIP3   OH2 7937   5.772   5.167   0.309  0.5054  0.1543 -0.4362
 2658TIP3    H1 7938   5.791   5.102   0.242 -0.1838  1.3199 -1.8320
 2658TIP3    H2 7939   5.720   5.121   0.374  2.6427 -1.4464  0.2233
 2659TIP3   OH2 7940   0.281   4.460   2.857 -0.0279  0.4041 -0.7254
 2659TIP3    H1 7941   0.353   4.437   2.798  0.7914  1.0009  0.0244
 2659TIP3    H2 7942   0.275   4.555   2.852 -0.3944  0.4038 -0.3420
 2660TIP3   OH2 7943   6.464   1.617   0.070 -0.0939  0.2906  0.1491
 2660TIP3    H1 7944   6.515   1.542   0.038  0.0173  0.0317  0.9138
 2660TIP3    H2 7945   6.463   1.678  -0.004 -0.7837 -0.7550 -0.7256
 2661TIP3   OH2 7946   1.770   5.407   0.602  0.1364 -0.4769 -0.6542
 2661TIP3    H1 7947   1.840   5.342   0.594 -0.1647 -0.7115 -1.4467
 2661TIP3    H2 7948   1.799   5.480   0.547  1.7373  1.2597  2.2031
 2662TIP3   OH2 7949  -0.012   5.839   2.569  0.0674  0.2012 -0.4237
 2662TIP3    H1 7950   0.014   5.873   2.483  0.5713 -0.4534 -0.5399
 2662TIP3    H2 7951   0.060   5.864   2.627  1.0238 -1.6278 -0.7484
 2663TIP3   OH2 7952   5.305   5.433   3.905  0.0504 -0.1104  0.1142
 2663TIP3    H1 7953   5.378   5.375   3.884 -0.0517 -0.8276  1.5575
 2663TIP3    H2 7954   5.326   5.467   3.993  0.0402  1.9634 -0.6320
 2664TIP3   OH2 7955   4.820   5.279   2.779 -0.1712  0.0904 -0.0219
 2664TIP3    H1 7956   4.913   5.260   2.790  0.1659  1.5451 -0.2460
 2664TIP3    H2 7957   4.776   5.195   2.798  1.1794 -0.6662 -0.1501
 2665TIP3   OH2 7958   2.831   0.396   2.512 -0.1525 -0.2648 -0.5970
 2665TIP3    H1 7959   2.811   0.482   2.550  0.7492 -0.4440  0.3164
 2665TIP3    H2 7960   2.749   0.368   2.471 -0.4301  1.0805 -1.0169
 2666TIP3   OH2 7961   1.866   2.358   2.368  0.1313 -0.0774 -0.1135
 2666TIP3    H1 7962   1.801   2.306   2.320  0.7646 -0.1395 -0.9188
 2666TIP3    H2 7963   1.816   2.431   2.405 -0.1492  0.7649 -2.0489
 2667TIP3   OH2 7964   2.431   5.303   1.348  0.0216 -0.0986 -0.4861
 2667TIP3    H1 7965   2.502   5.366   1.337  1.8299 -2.0980 -0.6626
 2667TIP3    H2 7966   2.372   5.345   1.412  0.7964  2.0168 -1.0735
 2668TIP3   OH2 7967   7.200   0.315   3.100  0.4845 -0.2920  0.0298
 2668TIP3    H1 7968   7.188   0.410   3.105  0.0034 -0.3926  0.8230
 2668TIP3    H2 7969   7.112   0.279   3.111  0.6595 -0.8346 -0.3018
 2669TIP3   OH2 7970   3.980   2.620   0.786  0.5740 -0.5339 -0.2297
 2669TIP3    H1 7971   3.986   2.698   0.730  0.8864  1.2467  2.1365
 2669TIP3    H2 7972   3.975   2.547   0.724  0.4826  1.3165 -2.5655
 2670TIP3   OH2 7973   1.686   1.607   2.672  0.1044 -0.3735  0.1660
 2670TIP3    H1 7974   1.753   1.557   2.719  0.7328 -0.6978 -1.0300
 2670TIP3    H2 7975   1.727   1.691   2.654 -0.5736  0.2079  1.2386
 2671TIP3   OH2 7976   1.221   2.884   4.841 -0.1039  1.0441 -0.0643
 2671TIP3    H1 7977   1.225   2.944   4.916  1.1368  1.2207 -0.2478
 2671TIP3    H2 7978   1.131   2.853   4.840 -0.0233  0.6412  1.8160
 2672TIP3   OH2 7979   3.007   2.749   0.311 -0.7992  0.2915 -0.4278
 2672TIP3    H1 7980   3.033   2.839   0.332 -0.2499 -0.2117  1.1809
 2672TIP3    H2 7981   2.914   2.745   0.334 -0.8281  0.4461 -0.5167
 2673TIP3   OH2 7982   6.923   6.709   1.741  0.2513 -0.4360  0.2425
 2673TIP3    H1 7983   6.832   6.730   1.718  0.1466  0.7005  1.6012
 2673TIP3    H2 7984   6.975   6.769   1.687  0.0650  1.0440  1.6485
 2674TIP3   OH2 7985   1.750   4.690   5.329 -0.3384  0.4153 -0.1373
 2674TIP3    H1 7986   1.751   4.594   5.334 -0.1131  0.3327 -1.5055
 2674TIP3    H2 7987   1.668   4.711   5.285  0.1466  0.7726 -0.9030
 2675TIP3   OH2 7988   1.483   0.513   4.306  0.1746 -0.7014 -0.1644
 2675TIP3    H1 7989   1.491   0.508   4.401 -0.4416  1.8344  0.0959
 2675TIP3    H2 7990   1.390   0.494   4.288  0.0404 -0.1053 -0.1286
 2676TIP3   OH2 7991   2.675   2.729   1.518  0.3832  0.1092  0.3036
 2676TIP3    H1 7992   2.601   2.696   1.569  2.1363 -2.4438  1.3936
 2676TIP3    H2 7993   2.723   2.785   1.579 -0.9301  2.4027 -0.6305
 2677TIP3   OH2 7994   5.495   4.704   2.266  0.5499  0.8428 -0.2997
 2677TIP3    H1 7995   5.501   4.774   2.202  2.8138  0.1444 -0.9255
 2677TIP3    H2 7996   5.518   4.625   2.218 -1.2840 -0.2886  0.5495
 2678TIP3   OH2 7997   4.592   2.854   4.154  0.5367 -0.0964  0.2160
 2678TIP3    H1 7998   4.643   2.924   4.113  1.8425 -2.0185 -1.6157
 2678TIP3    H2 7999   4.530   2.827   4.086 -1.4593  0.6640  1.6366
 2679TIP3   OH2 8000   2.523   5.205   2.570  0.4474 -0.3277  0.4815
 2679TIP3    H1 8001   2.511   5.293   2.604  0.2394 -0.4863  0.8194
 2679TIP3    H2 8002   2.543   5.218   2.477  0.6910  0.0873  0.5901
 2680TIP3   OH2 8003   4.121   0.136   0.570  0.6882 -0.2066  0.0005
 2680TIP3    H1 8004   4.161   0.223   0.571 -1.0938  0.6596  1.0046
 2680TIP3    H2 8005   4.027   0.153   0.564  0.3167 -2.0758  0.0443
 2681TIP3   OH2 8006   0.650   5.045   5.141  0.3073 -0.2074  0.2939
 2681TIP3    H1 8007   0.565   5.081   5.117  0.9350  0.3735 -1.1450
 2681TIP3    H2 8008   0.668   4.978   5.075  0.9715 -0.3306  0.5825
 2682TIP3   OH2 8009   2.872   2.969   2.166  0.0354  0.2762 -0.2559
 2682TIP3    H1 8010   2.880   3.059   2.135  0.5660  0.7141  1.1107
 2682TIP3    H2 8011   2.957   2.948   2.204  0.4213 -1.3292 -1.8411
 2683TIP3   OH2 8012   4.126   1.845   1.819  0.2190  0.5674 -0.6048
 2683TIP3    H1 8013   4.157   1.925   1.777 -0.9707  0.0925 -2.4953
 2683TIP3    H2 8014   4.193   1.780   1.800  1.0785  1.0106  0.7457
 2684TIP3   OH2 8015   2.916   3.080   4.542  0.0670 -0.1979 -0.3618
 2684TIP3    H1 8016   2.884   2.990   4.553  2.0926 -0.9727 -0.4439
 2684TIP3    H2 8017   2.865   3.131   4.605 -0.7582 -1.4840  0.0654
 2685TIP3   OH2 8018   3.569   0.333   3.243  0.0346 -0.9543 -0.1220
 2685TIP3    H1 8019   3.492   0.276   3.242  0.2409 -1.2391 -1.3655
 2685TIP3    H2 8020   3.638   0.280   3.281  0.0364 -1.2838 -0.5809
 2686TIP3   OH2 8021   5.861   0.316   5.317  0.1204 -0.0996  0.3753
 2686TIP3    H1 8022   5.917   0.317   5.239 -1.7904 -2.1163 -1.1724
 2686TIP3    H2 8023   5.852   0.408   5.341  1.2069  0.5459 -1.4575
 2687TIP3   OH2 8024   1.307   1.193   1.113  0.0505 -0.5891  0.2684
 2687TIP3    H1 8025   1.380   1.177   1.053  2.3713  0.3420  2.6516
 2687TIP3    H2 8026   1.337   1.157   1.197 -2.7442 -1.1871  1.1032
 2688TIP3   OH2 8027   3.945   3.194   4.542 -0.2413  0.2308 -0.0088
 2688TIP3    H1 8028   3.897   3.111   4.542 -0.9289  0.6187  0.4217
 2688TIP3    H2 8029   4.030   3.173   4.505  0.4692 -1.1816  2.2711
 2689TIP3   OH2 8030   4.253   1.386   5.592  0.0498 -0.1073  0.0214
 2689TIP3    H1 8031   4.255   1.297   5.626  0.3815 -0.0005  0.2854
 2689TIP3    H2 8032   4.335   1.425   5.622  0.3599 -0.0130 -0.9048
 2690TIP3   OH2 8033   4.759   4.655   2.516 -0.5389 -0.3947  0.2664
 2690TIP3    H1 8034   4.790   4.632   2.603  0.5714 -0.6252 -0.1784
 2690TIP3    H2 8035   4.822   4.719   2.483  0.3323 -1.9152 -1.1955
 2691TIP3   OH2 8036   2.367   4.988   1.827  0.0636 -0.1774 -0.4472
 2691TIP3    H1 8037   2.405   4.907   1.792 -1.2150 -0.7543 -0.5564
 2691TIP3    H2 8038   2.367   5.048   1.752 -1.5462 -1.0146 -1.1703
 2692TIP3   OH2 8039   4.487   5.211   4.695 -0.5284 -0.3576  0.0047
 2692TIP3    H1 8040   4.414   5.183   4.750 -0.6295 -0.4146 -0.1572
 2692TIP3    H2 8041   4.487   5.149   4.622  0.1220 -0.7922  0.3628
 2693TIP3   OH2 8042   3.771   5.328   2.150  0.2465 -0.0524  0.7951
 2693TIP3    H1 8043   3.728   5.414   2.143 -0.5805 -0.1849  3.3004
 2693TIP3    H2 8044   3.700   5.265   2.134  0.5793 -0.3010  0.2494
 2694TIP3   OH2 8045   6.126   3.355   4.337 -0.4807  0.0885  0.0754
 2694TIP3    H1 8046   6.126   3.377   4.244 -0.5862 -0.1227  0.0251
 2694TIP3    H2 8047   6.068   3.279   4.344 -0.6236  0.2192  0.3394
 2695TIP3   OH2 8048   2.679   2.793   2.201  0.5009 -0.7110  0.1746
 2695TIP3    H1 8049   2.742   2.864   2.189  1.0829 -1.3647 -0.7188
 2695TIP3    H2 8050   2.725   2.714   2.172  0.1568 -1.6063  1.9098
 2696TIP3   OH2 8051   6.039   1.696   2.768  0.0819 -0.4387 -0.0703
 2696TIP3    H1 8052   5.962   1.725   2.719  0.3590 -1.4286 -1.1308
 2696TIP3    H2 8053   6.068   1.774   2.815 -0.5047  0.4189 -1.0834
 2697TIP3   OH2 8054   4.852   3.600   0.479  0.1528 -0.5531  0.1111
 2697TIP3    H1 8055   4.840   3.532   0.545 -0.8776 -0.5596 -0.0666
 2697TIP3    H2 8056   4.941   3.586   0.446  0.2999 -1.2011  0.7571
 2698TIP3   OH2 8057   1.830   4.658   4.097  0.4104  0.3876 -0.2901
 2698TIP3    H1 8058   1.737   4.646   4.077  0.0318  1.6087  0.6140
 2698TIP3    H2 8059   1.867   4.692   4.016  0.0034  0.1903 -0.5644
 2699TIP3   OH2 8060   3.568   2.247   0.797  0.2965  0.4661  0.9266
 2699TIP3    H1 8061   3.514   2.237   0.875  0.2699 -0.3292  0.8139
 2699TIP3    H2 8062   3.632   2.176   0.802 -1.5264 -1.5136 -1.2221
 2700TIP3   OH2 8063   0.438   2.202   2.811 -0.1204  0.5800 -0.6009
 2700TIP3    H1 8064   0.366   2.188   2.873 -1.2298  1.8003 -1.5441
 2700TIP3    H2 8065   0.498   2.262   2.856 -0.2402  0.4127 -0.2142
 2701TIP3   OH2 8066   0.753   4.474   2.340 -0.1652 -0.1560 -0.2990
 2701TIP3    H1 8067   0.788   4.395   2.382 -0.8151  1.0707  2.8971
 2701TIP3    H2 8068   0.806   4.545   2.376 -1.5072  1.1147 -0.7417
 2702TIP3   OH2 8069   1.246   6.734   3.253  0.0118  0.9091 -0.6379
 2702TIP3    H1 8070   1.189   6.660   3.271  0.8049  0.9917  3.0115
 2702TIP3    H2 8071   1.314   6.699   3.195 -0.2701 -0.9200  0.0709
 2703TIP3   OH2 8072   4.603   5.265   4.947  0.3488 -0.2866  0.1161
 2703TIP3    H1 8073   4.523   5.312   4.972  1.3384  1.8522 -0.4532
 2703TIP3    H2 8074   4.586   5.237   4.857  0.7494  1.4926 -0.5508
 2704TIP3   OH2 8075   4.795   1.209   3.034  0.4856  0.1478  0.1903
 2704TIP3    H1 8076   4.753   1.282   3.078 -0.1034 -0.5581  0.8207
 2704TIP3    H2 8077   4.866   1.182   3.093 -1.2538 -1.7855  1.5377
 2705TIP3   OH2 8078   5.784   3.491   2.537 -0.1914  0.4561 -0.1544
 2705TIP3    H1 8079   5.795   3.407   2.582  2.0674  1.4653  1.3736
 2705TIP3    H2 8080   5.812   3.556   2.601 -2.3413  2.4705 -1.1349
 2706TIP3   OH2 8081   3.676   0.154   5.143  0.2496  0.1574  0.0431
 2706TIP3    H1 8082   3.663   0.226   5.082 -3.0891 -0.3786 -0.0358
 2706TIP3    H2 8083   3.746   0.102   5.104 -1.8662 -0.2888 -3.5242
 2707TIP3   OH2 8084   5.689   5.390   0.848 -0.8115 -0.4809 -0.3434
 2707TIP3    H1 8085   5.599   5.360   0.859 -0.9033 -0.8940 -1.9439
 2707TIP3    H2 8086   5.684   5.455   0.778 -0.0172  0.3288  0.3258
 2708TIP3   OH2 8087   4.633   4.343   4.770 -0.3636  0.2231 -0.0932
 2708TIP3    H1 8088   4.641   4.376   4.859  0.9083 -0.6585  0.1489
 2708TIP3    H2 8089   4.627   4.422   4.716  2.0982  0.9216  0.5129
 2709TIP3   OH2 8090   0.570   2.503   1.921  0.4358 -0.6707 -0.0129
 2709TIP3    H1 8091   0.632   2.568   1.888  1.4052 -1.8810 -0.6377
 2709TIP3    H2 8092   0.575   2.431   1.859 -2.1377 -0.5429 -0.4936
 2710TIP3   OH2 8093   6.954   5.187   3.152  0.3937  0.0199 -0.2278
 2710TIP3    H1 8094   7.011   5.169   3.227 -0.2774  0.0269  0.2967
 2710TIP3    H2 8095   6.905   5.265   3.178 -1.4497 -1.2587  0.2745
 2711TIP3   OH2 8096   1.858   5.304   0.204  0.3818 -0.2100  0.8569
 2711TIP3    H1 8097   1.905   5.309   0.121  1.3814  0.2802  1.4313
 2711TIP3    H2 8098   1.803   5.226   0.196  0.4210 -0.1452 -0.2729
 2712TIP3   OH2 8099   2.897   2.266   5.404 -0.1216 -0.0048 -0.4416
 2712TIP3    H1 8100   2.946   2.187   5.426 -1.4622 -0.8506 -0.3969
 2712TIP3    H2 8101   2.918   2.281   5.311  0.0332 -0.4887 -0.4896
 2713TIP3   OH2 8102   5.968   5.247   5.302 -0.0187 -0.4624 -0.7044
 2713TIP3    H1 8103   5.875   5.264   5.286 -1.5939 -4.3462  2.3908
 2713TIP3    H2 8104   6.003   5.222   5.217 -2.8584 -2.2766 -1.4952
 2714TIP3   OH2 8105   4.778   0.715   0.996 -0.0759 -0.0098 -0.2849
 2714TIP3    H1 8106   4.733   0.652   1.052 -0.6993 -0.6362 -1.4566
 2714TIP3    H2 8107   4.868   0.714   1.027  0.0411 -1.8573 -0.5732
 2715TIP3   OH2 8108   5.000   4.721   3.575 -0.7113 -0.3209 -0.1891
 2715TIP3    H1 8109   4.967   4.658   3.640 -1.3845 -0.5520 -0.7399
 2715TIP3    H2 8110   5.088   4.690   3.554 -0.0447  0.3736  1.4010
 2716TIP3   OH2 8111   7.226   6.029   1.941  0.3110  0.2572  0.5352
 2716TIP3    H1 8112   7.165   6.077   1.885  1.0410 -0.8163 -1.2761
 2716TIP3    H2 8113   7.189   6.036   2.029 -1.0122  1.8127 -0.1066
 2717TIP3   OH2 8114   1.226   0.243   0.786 -0.2279 -0.3772  0.7360
 2717TIP3    H1 8115   1.284   0.167   0.782  2.3468  1.4947 -0.6861
 2717TIP3    H2 8116   1.201   0.250   0.878  0.0392 -2.4968  1.0140
 2718TIP3   OH2 8117   6.988   0.175   0.373 -0.0861 -0.0467 -0.5402
 2718TIP3    H1 8118   7.033   0.101   0.413 -0.6811  0.4669  1.1374
 2718TIP3    H2 8119   6.896   0.160   0.391 -0.3705  0.2222 -1.7175
 2719TIP3   OH2 8120   0.650   6.368   4.993 -0.1256  0.3484 -0.4400
 2719TIP3    H1 8121   0.677   6.362   5.084 -1.2794  2.3623  0.0989
 2719TIP3    H2 8122   0.727   6.402   4.947  0.5360 -0.9028 -0.2957
 2720TIP3   OH2 8123   3.611   3.254   0.161  0.1978 -0.4791  0.2665
 2720TIP3    H1 8124   3.638   3.210   0.081  0.8326 -1.0107  0.7638
 2720TIP3    H2 8125   3.596   3.184   0.224 -3.1539 -0.3065 -0.1593
 2721TIP3   OH2 8126   5.463   6.250   0.790  0.3213 -0.7128 -0.4491
 2721TIP3    H1 8127   5.538   6.244   0.731  1.9506  0.0108  1.4324
 2721TIP3    H2 8128   5.421   6.333   0.767  0.8677 -0.4994 -0.6883
 2722TIP3   OH2 8129   6.972   5.365   0.885  0.0568 -0.4513 -0.1434
 2722TIP3    H1 8130   7.032   5.350   0.958  0.7353 -0.0573 -0.6151
 2722TIP3    H2 8131   6.905   5.297   0.895  0.2415 -0.5125  0.7398
 2723TIP3   OH2 8132   1.185   4.085   4.387  0.3739  0.1208  0.0926
 2723TIP3    H1 8133   1.190   4.110   4.295 -1.8492 -0.4677 -0.2464
 2723TIP3    H2 8134   1.168   3.990   4.385  2.1202 -0.2504  1.1760
 2724TIP3   OH2 8135   0.982   5.803   0.406  0.3166 -0.0627  0.6663
 2724TIP3    H1 8136   1.029   5.732   0.449  1.6716  0.4803  0.1562
 2724TIP3    H2 8137   0.917   5.832   0.470  0.1233 -1.3826  1.0878
 2725TIP3   OH2 8138   3.809   6.761   1.601  0.0845 -0.4095  0.0304
 2725TIP3    H1 8139   3.901   6.771   1.627  0.4966  1.4575 -1.9273
 2725TIP3    H2 8140   3.760   6.815   1.663  0.7419  1.5718 -1.0949
 2726TIP3   OH2 8141   2.725   1.565   4.079 -0.5333  0.5014 -0.2795
 2726TIP3    H1 8142   2.640   1.526   4.094 -0.2908  0.2441  0.4615
 2726TIP3    H2 8143   2.785   1.491   4.071  0.3871  0.6158  3.7837
 2727TIP3   OH2 8144   2.252   1.282   4.796 -0.2610  0.1113 -0.3477
 2727TIP3    H1 8145   2.211   1.241   4.872  1.2297 -0.8103 -0.0021
 2727TIP3    H2 8146   2.239   1.220   4.725  3.1959 -1.7906  0.4847
 2728TIP3   OH2 8147   7.054   3.120   1.986  0.1017 -0.3241  0.3316
 2728TIP3    H1 8148   7.068   3.186   2.054  1.4272 -0.8798  0.6393
 2728TIP3    H2 8149   7.126   3.134   1.924 -1.8747  1.1276 -1.8230
 2729TIP3   OH2 8150   6.519   1.535   1.890 -0.2723  0.3238 -0.2778
 2729TIP3    H1 8151   6.527   1.451   1.846  1.0906 -0.0308  0.5798
 2729TIP3    H2 8152   6.502   1.514   1.982 -1.9539  1.0373 -0.3925
 2730TIP3   OH2 8153   1.387   1.924   3.308  0.2329 -0.0851 -0.0533
 2730TIP3    H1 8154   1.379   1.912   3.214  0.1327 -0.0752 -0.0471
 2730TIP3    H2 8155   1.387   1.835   3.344  1.4890 -0.1327 -0.1459
 2731TIP3   OH2 8156   0.827   1.331   3.410  0.1144  0.1883  0.3060
 2731TIP3    H1 8157   0.896   1.363   3.468 -0.1939 -0.0916  0.8389
 2731TIP3    H2 8158   0.867   1.255   3.367  0.4252  0.5389 -0.0359
 2732TIP3   OH2 8159   4.208   1.420   0.982 -0.0654  0.2226  0.5276
 2732TIP3    H1 8160   4.177   1.369   1.057 -0.8272 -0.9261 -0.5128
 2732TIP3    H2 8161   4.293   1.381   0.961 -0.4522 -0.3725  0.0021
 2733TIP3   OH2 8162   2.541   3.466   5.735  0.3777  0.2467  0.1400
 2733TIP3    H1 8163   2.476   3.437   5.799  0.5738 -1.8715 -0.5410
 2733TIP3    H2 8164   2.494   3.465   5.652  0.8027  0.4887 -0.1029
 2734TIP3   OH2 8165   2.687   6.082   5.072 -0.0052  0.0812 -0.6405
 2734TIP3    H1 8166   2.782   6.070   5.071  0.0784  0.3493  1.0382
 2734TIP3    H2 8167   2.666   6.117   4.985  1.2568 -1.0838 -1.4535
 2735TIP3   OH2 8168   1.639   2.243   4.404  0.4062 -0.3980 -0.1005
 2735TIP3    H1 8169   1.615   2.181   4.336 -2.0115 -0.1879  0.4806
 2735TIP3    H2 8170   1.674   2.189   4.475  0.9776 -0.8044 -0.6854
 2736TIP3   OH2 8171   3.678   1.073   5.327 -0.1168  0.5368 -0.1583
 2736TIP3    H1 8172   3.753   1.131   5.313  1.8333 -1.6343  0.6580
 2736TIP3    H2 8173   3.708   1.010   5.392 -2.3600 -1.0211 -0.5100
 2737TIP3   OH2 8174   6.758   5.687   0.716  0.0691  0.3607 -0.9329
 2737TIP3    H1 8175   6.844   5.667   0.754 -1.1593  0.2120  2.0806
 2737TIP3    H2 8176   6.748   5.781   0.726  0.8246  0.8038 -3.6468
 2738TIP3   OH2 8177   1.523   3.288   3.257 -0.1475  0.2700  0.4034
 2738TIP3    H1 8178   1.506   3.194   3.266 -0.3726  0.4448  2.1456
 2738TIP3    H2 8179   1.441   3.324   3.224 -0.3095 -0.0310  0.4714
 2739TIP3   OH2 8180   2.854   0.913   0.301 -0.1908  0.1282  0.1011
 2739TIP3    H1 8181   2.910   0.845   0.341 -0.7566 -0.1747  0.3936
 2739TIP3    H2 8182   2.822   0.872   0.220 -0.4049  0.1064  0.1973
 2740TIP3   OH2 8183   2.580   2.118   5.863 -0.1299  0.3750  0.1050
 2740TIP3    H1 8184   2.665   2.105   5.905 -0.7080 -2.3280  0.6454
 2740TIP3    H2 8185   2.594   2.091   5.772  0.0709  2.0854 -0.4106
 2741TIP3   OH2 8186   4.316   4.711   2.893  0.1090 -0.2700 -0.3087
 2741TIP3    H1 8187   4.395   4.728   2.944  0.6911 -0.3331 -1.1711
 2741TIP3    H2 8188   4.343   4.648   2.827 -0.8684 -0.9249 -0.1123
 2742TIP3   OH2 8189   6.756   0.697   0.386  0.0813 -0.0445  0.0068
 2742TIP3    H1 8190   6.841   0.741   0.385  0.9594 -1.6186 -2.0308
 2742TIP3    H2 8191   6.718   0.716   0.300 -1.0129 -0.5411  0.3619
 2743TIP3   OH2 8192   5.937   3.423   4.835 -0.1979 -0.7624  0.0819
 2743TIP3    H1 8193   5.994   3.420   4.758 -1.3775  0.4171 -0.8982
 2743TIP3    H2 8194   5.982   3.482   4.895 -0.6393  0.7107 -0.9615
 2744TIP3   OH2 8195   5.562   6.809   2.777  0.3530 -0.5572 -0.1603
 2744TIP3    H1 8196   5.505   6.733   2.766  0.8641 -1.2928  1.7981
 2744TIP3    H2 8197   5.642   6.785   2.731  0.4615 -1.1728  0.3311
 2745TIP3   OH2 8198   5.438   2.330   4.170  0.0694 -0.1199  0.3135
 2745TIP3    H1 8199   5.524   2.373   4.174  1.1860 -2.2104  0.4250
 2745TIP3    H2 8200   5.427   2.310   4.077  0.0392 -0.4773  0.3935
 2746TIP3   OH2 8201   4.352   6.784   1.712  1.2763  0.1790 -0.2060
 2746TIP3    H1 8202   4.415   6.809   1.779  1.5040  0.3819 -0.4933
 2746TIP3    H2 8203   4.405   6.747   1.642  1.1377  0.9230 -0.7167
 2747TIP3   OH2 8204   7.159   2.555   5.022  0.4835 -0.2783 -0.1246
 2747TIP3    H1 8205   7.249   2.524   5.034  0.9274  0.9916  0.0975
 2747TIP3    H2 8206   7.107   2.505   5.085  1.2958 -0.0306  0.7822
 2748TIP3   OH2 8207   5.505   3.718   4.885  0.8978  0.1092  0.4623
 2748TIP3    H1 8208   5.414   3.701   4.862  0.7643  2.1958 -0.7404
 2748TIP3    H2 8209   5.547   3.631   4.883 -0.6892 -0.6698 -0.5997
 2749TIP3   OH2 8210   4.245   1.085   3.021 -0.0932  0.0183  0.0070
 2749TIP3    H1 8211   4.321   1.032   2.994 -0.6130 -0.2110 -1.0627
 2749TIP3    H2 8212   4.267   1.114   3.109  1.0442 -0.4183 -0.1074
 2750TIP3   OH2 8213   3.317   0.691   0.866  0.0379  0.1532  0.0312
 2750TIP3    H1 8214   3.372   0.755   0.820 -1.8097  0.8239 -1.3966
 2750TIP3    H2 8215   3.307   0.619   0.804  0.9961 -0.9384  1.1082
 2751TIP3   OH2 8216   2.952   6.378   4.017  0.1716 -0.3292  0.7324
 2751TIP3    H1 8217   2.928   6.295   4.056  0.7263  0.0282  1.8670
 2751TIP3    H2 8218   3.005   6.354   3.941 -0.8685 -1.0264  0.2081
 2752TIP3   OH2 8219   7.126   3.985   2.359  0.0803  0.1168  0.5566
 2752TIP3    H1 8220   7.148   4.070   2.322 -1.4757  0.8028  1.1204
 2752TIP3    H2 8221   7.055   3.952   2.304  0.4357 -0.6726  0.5498
 2753TIP3   OH2 8222   6.090   0.887   4.283  0.2623 -0.2963  0.3542
 2753TIP3    H1 8223   6.123   0.970   4.317 -1.9058  0.7948 -0.0349
 2753TIP3    H2 8224   6.123   0.883   4.193  0.1239  0.3175  0.2706
 2754TIP3   OH2 8225   1.265   0.126   2.792  0.3673 -0.0087  0.4894
 2754TIP3    H1 8226   1.252   0.146   2.884  2.7204  1.0511  0.6579
 2754TIP3    H2 8227   1.253   0.211   2.748  0.3562 -0.2820 -0.0420
 2755TIP3   OH2 8228  -0.013   4.336   2.614  0.1231 -0.3923 -0.1123
 2755TIP3    H1 8229   0.014   4.371   2.699 -1.3194  0.7049 -0.0530
 2755TIP3    H2 8230   0.037   4.387   2.551  0.4574 -0.5109  0.0536
 2756TIP3   OH2 8231   0.978   5.199   4.942  0.1956  0.4063 -0.1360
 2756TIP3    H1 8232   0.979   5.105   4.926  1.5487  0.5618 -1.0640
 2756TIP3    H2 8233   0.996   5.207   5.036  1.6791 -0.2260 -0.3432
 2757TIP3   OH2 8234   1.478   5.945   0.439  0.2955 -0.1144  0.0611
 2757TIP3    H1 8235   1.473   6.039   0.424 -0.1644 -0.1121  0.2179
 2757TIP3    H2 8236   1.520   5.910   0.360 -2.4609 -0.1541 -1.5092
 2758TIP3   OH2 8237   0.817   3.959   2.803  0.4384  0.1373 -0.1309
 2758TIP3    H1 8238   0.850   4.049   2.801 -0.7516  0.5935 -1.6102
 2758TIP3    H2 8239   0.867   3.914   2.735  1.8120 -0.6714  1.3395
 2759TIP3   OH2 8240   3.203   5.348   2.030 -0.5826 -0.0946 -0.3412
 2759TIP3    H1 8241   3.150   5.326   1.953  1.4329  0.2744 -1.9072
 2759TIP3    H2 8242   3.271   5.281   2.033 -0.4922  0.0296  1.0124
 2760TIP3   OH2 8243   5.136   0.246   0.776 -0.8024  0.0045  0.0455
 2760TIP3    H1 8244   5.061   0.234   0.834 -0.5727 -2.4081 -0.0253
 2760TIP3    H2 8245   5.200   0.293   0.828 -0.5506 -2.2157  1.8893
 2761TIP3   OH2 8246   3.400   4.295   3.633  0.6819 -0.0503  0.1314
 2761TIP3    H1 8247   3.356   4.302   3.717  0.9074 -0.9798  0.3337
 2761TIP3    H2 8248   3.446   4.378   3.623  0.8183 -0.0139  1.0223
 2762TIP3   OH2 8249   1.453   0.658   2.195  0.5641  0.0097 -0.0243
 2762TIP3    H1 8250   1.378   0.606   2.167  2.1109 -1.8252 -0.9912
 2762TIP3    H2 8251   1.474   0.713   2.119  0.3584  0.3611  0.1679
 2763TIP3   OH2 8252   1.943   6.704   4.838 -0.0855  0.0233  0.6505
 2763TIP3    H1 8253   1.886   6.769   4.879  0.1755  1.2227 -0.8135
 2763TIP3    H2 8254   1.883   6.639   4.801 -0.3353 -0.8697  2.4978
 2764TIP3   OH2 8255   2.187   6.355   1.392 -0.5865  0.2258  0.3877
 2764TIP3    H1 8256   2.106   6.389   1.430  0.5586  1.0425  2.2681
 2764TIP3    H2 8257   2.235   6.318   1.467  1.1402  0.5240 -0.5032
 2765TIP3   OH2 8258   2.490   6.041   0.885  0.2272  0.3815 -0.2541
 2765TIP3    H1 8259   2.495   6.083   0.971  1.9782 -0.1001 -0.0662
 2765TIP3    H2 8260   2.565   5.982   0.884  0.5013  0.6985 -2.2803
 2766TIP3   OH2 8261   4.434   3.575   1.421  0.8081 -0.2241  0.0844
 2766TIP3    H1 8262   4.418   3.518   1.496  1.7403 -2.0253 -1.0162
 2766TIP3    H2 8263   4.528   3.596   1.426  0.2689  2.3817  1.1854
 2767TIP3   OH2 8264   2.681   5.739   5.474  0.1929 -0.1319 -0.0003
 2767TIP3    H1 8265   2.672   5.655   5.429 -1.0127 -0.2546  0.4409
 2767TIP3    H2 8266   2.610   5.740   5.538  3.0385 -0.9240  3.4945
 2768TIP3   OH2 8267   6.702   6.798   2.729 -0.3897 -0.0841 -0.0961
 2768TIP3    H1 8268   6.649   6.761   2.658  0.4502 -1.1256 -0.1931
 2768TIP3    H2 8269   6.792   6.796   2.697  0.0736 -1.0303  1.1637
 2769TIP3   OH2 8270   5.095   0.136   3.737 -1.0621 -0.2998  0.4013
 2769TIP3    H1 8271   5.077   0.158   3.828  1.9400 -0.8194  1.2124
 2769TIP3    H2 8272   5.125   0.219   3.698  0.8885 -0.7652  0.8399
 2770TIP3   OH2 8273   0.218   6.656   0.766  0.3017 -0.4561 -0.0127
 2770TIP3    H1 8274   0.292   6.698   0.721  0.0707 -0.9215 -0.8517
 2770TIP3    H2 8275   0.224   6.564   0.743  0.7015 -0.8856  1.6881
 2771TIP3   OH2 8276   1.766   5.689   0.169  0.4099  0.0634 -0.3099
 2771TIP3    H1 8277   1.854   5.653   0.179 -0.4682 -1.8828  1.0113
 2771TIP3    H2 8278   1.733   5.648   0.089  0.2348 -0.3091 -0.0527
 2772TIP3   OH2 8279   0.120   4.138   3.043  0.4099  0.6528 -0.0374
 2772TIP3    H1 8280   0.127   4.068   3.108 -0.3076 -0.5972 -1.2594
 2772TIP3    H2 8281   0.076   4.209   3.089  1.3579  0.4204  1.3016
 2773TIP3   OH2 8282   4.352   5.072   2.197  0.2541 -0.1153 -0.0397
 2773TIP3    H1 8283   4.372   5.160   2.229 -0.9121  0.0609  0.2682
 2773TIP3    H2 8284   4.388   5.069   2.108  0.6357  0.5311  0.0893
 2774TIP3   OH2 8285   3.576   5.061   1.593  0.0303  0.3891  0.2593
 2774TIP3    H1 8286   3.612   5.141   1.555  0.3299  0.3824  0.5278
 2774TIP3    H2 8287   3.651   5.017   1.633 -0.2125  0.2020  0.5123
 2775TIP3   OH2 8288   2.329   1.572   2.249 -0.8526 -0.0249 -0.5119
 2775TIP3    H1 8289   2.406   1.610   2.292 -0.8376 -1.6327  0.9729
 2775TIP3    H2 8290   2.352   1.574   2.156  1.3200 -1.0780 -0.0678
 2776TIP3   OH2 8291   5.315   1.061   5.447  0.0561  0.1252 -0.4547
 2776TIP3    H1 8292   5.220   1.062   5.460 -0.0241 -0.3356 -0.9898
 2776TIP3    H2 8293   5.344   0.981   5.492  0.0238 -0.4204 -1.3764
 2777TIP3   OH2 8294   3.182   3.676   5.208  0.0899  0.4716  0.4600
 2777TIP3    H1 8295   3.217   3.646   5.124  0.8986 -0.9558  1.2589
 2777TIP3    H2 8296   3.117   3.743   5.185 -0.2289 -0.3948 -1.3306
 2778TIP3   OH2 8297   3.779   3.404   4.658 -0.4143  0.0936  0.3156
 2778TIP3    H1 8298   3.816   3.425   4.744  0.1955 -0.3605  0.1756
 2778TIP3    H2 8299   3.825   3.324   4.632 -0.9458 -0.0433 -0.2182
 2779TIP3   OH2 8300   5.304   1.639   2.346  0.0142 -0.1616 -0.2939
 2779TIP3    H1 8301   5.250   1.639   2.267 -0.7223  1.6366  0.1371
 2779TIP3    H2 8302   5.266   1.709   2.400  1.4533 -0.3016  0.9705
 2780TIP3   OH2 8303   1.648   2.208   1.347 -0.4167  0.0450 -0.6671
 2780TIP3    H1 8304   1.692   2.216   1.262  0.9589  0.5606  0.0565
 2780TIP3    H2 8305   1.720   2.203   1.410 -1.3665 -2.2150  0.3383
 2781TIP3   OH2 8306   5.880   2.080   3.223  0.3658  0.7049  0.3017
 2781TIP3    H1 8307   5.803   2.105   3.172  0.8863 -1.3753 -1.6201
 2781TIP3    H2 8308   5.845   2.046   3.305 -0.7135  0.4907 -0.2412
 2782TIP3   OH2 8309   5.734   3.526   3.201 -0.0043  0.2663  0.6975
 2782TIP3    H1 8310   5.805   3.574   3.243  0.2265 -0.3240  0.9856
 2782TIP3    H2 8311   5.775   3.479   3.129 -0.2008  0.3565  0.5246
 2783TIP3   OH2 8312   2.553   3.595   4.978  0.6814  0.7454  0.2795
 2783TIP3    H1 8313   2.581   3.553   5.059  1.4157  0.5071 -0.0900
 2783TIP3    H2 8314   2.484   3.656   5.005 -1.1238 -1.3660  0.6935
 2784TIP3   OH2 8315   4.486   1.098   5.147  0.0154 -0.2139 -0.3302
 2784TIP3    H1 8316   4.565   1.152   5.135  0.4476 -0.8787 -0.5462
 2784TIP3    H2 8317   4.427   1.126   5.078 -0.0274  0.4435 -0.0353
 2785TIP3   OH2 8318   3.505   5.488   2.119  0.0844 -0.2266 -0.1401
 2785TIP3    H1 8319   3.470   5.456   2.203 -0.6273 -1.7476 -0.9873
 2785TIP3    H2 8320   3.570   5.554   2.144 -0.3881 -0.3692  1.5956
 2786TIP3   OH2 8321   3.956  -0.009   1.894 -0.1686  0.2873 -0.3866
 2786TIP3    H1 8322   4.012   0.063   1.866  1.8602 -0.6476  0.9950
 2786TIP3    H2 8323   3.910   0.025   1.971 -2.9746  1.6375 -2.5043
 2787TIP3   OH2 8324   4.265   2.622   2.517 -0.4322  0.0352  0.6246
 2787TIP3    H1 8325   4.244   2.532   2.490  0.5376 -0.0132 -0.0492
 2787TIP3    H2 8326   4.260   2.620   2.612  0.6031 -1.0400  0.6950
 2788TIP3   OH2 8327   3.330   3.398   5.270  0.3264 -0.0718 -0.6759
 2788TIP3    H1 8328   3.342   3.315   5.316 -1.5240 -0.7782 -1.3937
 2788TIP3    H2 8329   3.277   3.451   5.329  0.3780  0.1082 -0.7907
 2789TIP3   OH2 8330   4.558   5.893   4.394  0.1416  0.2468  0.5186
 2789TIP3    H1 8331   4.607   5.912   4.315 -2.8749  1.1146 -1.3227
 2789TIP3    H2 8332   4.541   5.799   4.390  0.8619  0.1016  0.7125
 2790TIP3   OH2 8333   2.863   2.833   2.840  0.3652 -0.2199 -0.0869
 2790TIP3    H1 8334   2.937   2.772   2.843  2.8048  2.4434 -1.3913
 2790TIP3    H2 8335   2.826   2.821   2.753 -1.0245 -1.7486  0.6624
 2791TIP3   OH2 8336   5.984   5.767   5.457  0.7104 -0.1338 -0.1297
 2791TIP3    H1 8337   5.984   5.857   5.488  0.8627 -0.5706  1.1741
 2791TIP3    H2 8338   6.075   5.739   5.462  0.9728  0.1834 -2.2457
 2792TIP3   OH2 8339   4.106   5.757   2.003 -0.2079 -0.3587 -0.0150
 2792TIP3    H1 8340   4.111   5.663   2.018 -1.0237 -0.4119 -0.0598
 2792TIP3    H2 8341   4.035   5.768   1.940  0.4510  0.2160 -0.6746
 2793TIP3   OH2 8342   6.081   2.370   5.835  0.3855  0.3519 -0.4789
 2793TIP3    H1 8343   6.137   2.433   5.790 -0.5591  0.1201 -2.0489
 2793TIP3    H2 8344   6.001   2.368   5.783 -0.4287 -0.5556  0.7721
 2794TIP3   OH2 8345   5.306   1.770   5.207  0.0195 -0.3313 -0.1286
 2794TIP3    H1 8346   5.322   1.688   5.160  0.0133 -1.4867  1.7304
 2794TIP3    H2 8347   5.364   1.765   5.284 -1.8214  0.1712  1.3848
 2795TIP3   OH2 8348   2.431   2.438   0.119 -0.0080 -0.9553 -0.0505
 2795TIP3    H1 8349   2.405   2.501   0.187  1.4536  0.2916 -0.5782
 2795TIP3    H2 8350   2.425   2.353   0.163 -3.2193 -0.6757  0.3257
 2796TIP3   OH2 8351   5.869   3.734   4.044  0.1394 -0.4435 -0.4731
 2796TIP3    H1 8352   5.789   3.787   4.050 -0.2051 -0.8818 -1.0652
 2796TIP3    H2 8353   5.878   3.695   4.131  0.8237  1.1732  0.2046
 2797TIP3   OH2 8354   4.892   6.342   3.273  0.1162  0.2536  0.4654
 2797TIP3    H1 8355   4.872   6.255   3.308  2.0597 -0.1921  0.6042
 2797TIP3    H2 8356   4.895   6.399   3.349 -0.6314  0.3468  0.4331
 2798TIP3   OH2 8357   5.944   4.527   1.807 -0.2022  0.0995  0.1773
 2798TIP3    H1 8358   5.989   4.477   1.739  0.0325 -0.3735  0.6661
 2798TIP3    H2 8359   5.950   4.471   1.885  0.1370  0.9274  0.7658
 2799TIP3   OH2 8360   3.443   5.291   4.596 -0.3427 -0.0778  0.1029
 2799TIP3    H1 8361   3.471   5.279   4.687  0.5636 -1.5375 -0.3301
 2799TIP3    H2 8362   3.370   5.230   4.585  0.2068 -0.6612 -0.4018
 2800TIP3   OH2 8363   6.388   0.560   2.244  0.5684 -0.1175 -0.3844
 2800TIP3    H1 8364   6.476   0.530   2.265  0.1421 -0.9350  0.3452
 2800TIP3    H2 8365   6.382   0.554   2.149  1.6189  0.9043 -0.5305
 2801TIP3   OH2 8366   1.906   5.866   2.567  0.4379  1.0062  0.0071
 2801TIP3    H1 8367   1.951   5.944   2.533  1.5803  0.5458  0.3999
 2801TIP3    H2 8368   1.881   5.890   2.656  4.0807 -0.1982  1.5624
 2802TIP3   OH2 8369   3.441   3.754   0.625 -0.0302 -0.1612  0.3297
 2802TIP3    H1 8370   3.366   3.813   0.617 -1.1061 -1.1095  2.5145
 2802TIP3    H2 8371   3.431   3.692   0.553 -0.4557  0.6293 -0.3120
 2803TIP3   OH2 8372   5.151   2.651   0.269 -0.4753  0.1601 -0.1288
 2803TIP3    H1 8373   5.179   2.581   0.211  0.1275  0.2772  0.0150
 2803TIP3    H2 8374   5.060   2.630   0.291 -1.2590  0.9370 -2.3494
 2804TIP3   OH2 8375   0.648   2.469   1.098 -0.3181 -0.1755 -0.6427
 2804TIP3    H1 8376   0.646   2.467   1.002 -0.1846 -0.3453 -0.6419
 2804TIP3    H2 8377   0.606   2.552   1.121  0.1962  0.1502 -0.8638
 2805TIP3   OH2 8378   1.875   3.468   5.420  0.1132  0.5672 -0.2792
 2805TIP3    H1 8379   1.864   3.401   5.352 -0.5062  1.8427 -1.4980
 2805TIP3    H2 8380   1.933   3.532   5.379 -1.9838  2.4486 -0.4916
 2806TIP3   OH2 8381   2.424   4.920   0.382  0.3070 -0.7425  0.1101
 2806TIP3    H1 8382   2.466   4.870   0.312 -1.1635 -1.0191 -0.6307
 2806TIP3    H2 8383   2.389   4.853   0.441 -1.7248 -0.6522 -0.9154
 2807TIP3   OH2 8384   5.687   5.396   4.600  0.2537 -0.0119 -0.3411
 2807TIP3    H1 8385   5.675   5.327   4.665  0.7643  0.1589 -0.0533
 2807TIP3    H2 8386   5.730   5.467   4.649 -1.8120  1.2150 -0.2003
 2808TIP3   OH2 8387   2.019   3.354   3.724  0.1504  0.6916  0.1557
 2808TIP3    H1 8388   2.013   3.366   3.629 -0.3394  1.7066  0.2983
 2808TIP3    H2 8389   1.933   3.320   3.749  0.5565 -0.3819  0.1422
 2809TIP3   OH2 8390   3.992   5.208   5.155  0.2535 -0.4130  0.2080
 2809TIP3    H1 8391   3.936   5.163   5.218  0.2337 -0.7868 -0.0722
 2809TIP3    H2 8392   4.078   5.212   5.196 -0.2041  1.1046  1.0954
 2810TIP3   OH2 8393   5.624   3.809   0.848  0.2902 -0.4584 -0.3859
 2810TIP3    H1 8394   5.545   3.820   0.901  1.5301  1.5597  1.2008
 2810TIP3    H2 8395   5.592   3.806   0.758 -1.6097 -0.0796  0.2195
 2811TIP3   OH2 8396   5.995   3.974   0.807  0.1925 -0.0172 -0.3690
 2811TIP3    H1 8397   6.032   3.928   0.733  1.3098 -0.9671  0.7396
 2811TIP3    H2 8398   6.009   4.067   0.787  1.1288 -0.2856 -1.0138
 2812TIP3   OH2 8399   4.968   2.823   4.141  0.2426  0.8182 -0.4841
 2812TIP3    H1 8400   5.010   2.871   4.212  0.2345  2.2107 -1.3806
 2812TIP3    H2 8401   4.876   2.852   4.143 -1.0584 -2.8236  1.9988
 2813TIP3   OH2 8402   5.167   6.086   0.504  0.3802 -0.1882 -0.1102
 2813TIP3    H1 8403   5.220   6.151   0.458  1.0202 -1.0059 -0.5478
 2813TIP3    H2 8404   5.173   6.008   0.449 -2.9470  0.2397 -1.3086
 2814TIP3   OH2 8405   3.742   2.180   0.374 -0.4311 -0.0414 -0.4795
 2814TIP3    H1 8406   3.732   2.086   0.359  1.8214 -0.8058  1.9848
 2814TIP3    H2 8407   3.805   2.208   0.307  0.4096 -0.7552 -0.0128
 2815TIP3   OH2 8408   5.139   1.029   2.443  0.5073 -0.0443 -0.0219
 2815TIP3    H1 8409   5.071   1.071   2.391  1.4984 -0.3792 -1.6537
 2815TIP3    H2 8410   5.198   1.100   2.469 -0.8214  0.3862  2.1136
 2816TIP3   OH2 8411   6.152   1.551   5.834 -0.5228 -0.1619  0.3611
 2816TIP3    H1 8412   6.071   1.499   5.829 -0.3781 -0.2835 -1.1359
 2816TIP3    H2 8413   6.146   1.597   5.918 -0.5317 -2.7682  1.8849
 2817TIP3   OH2 8414   6.511   0.601   3.999 -0.4064 -0.4718 -0.6234
 2817TIP3    H1 8415   6.485   0.513   3.970  1.3038 -0.8085 -1.2208
 2817TIP3    H2 8416   6.518   0.652   3.918  1.2347 -0.5390 -0.5521
 2818TIP3   OH2 8417   0.274   1.413   1.920 -0.1626  0.5629 -0.1930
 2818TIP3    H1 8418   0.198   1.404   1.863 -1.0182 -0.1008  1.0008
 2818TIP3    H2 8419   0.237   1.430   2.007  0.9215 -1.8479  0.8384
 2819TIP3   OH2 8420   1.660   0.846   1.443  0.2235  0.3110 -0.1752
 2819TIP3    H1 8421   1.718   0.906   1.490  1.1952 -0.4352 -0.3852
 2819TIP3    H2 8422   1.702   0.833   1.358 -1.4862  1.6087 -1.3041
 2820TIP3   OH2 8423   6.265   6.162   0.208  0.3067  1.1193  0.0784
 2820TIP3    H1 8424   6.219   6.079   0.204  1.1685  0.5897  0.8623
 2820TIP3    H2 8425   6.311   6.169   0.124  0.2538  0.7893  0.0243
 2821TIP3   OH2 8426   3.342   5.330   1.498  0.3545 -0.0634  0.6856
 2821TIP3    H1 8427   3.324   5.423   1.510  1.1986  0.1107  0.6401
 2821TIP3    H2 8428   3.268   5.285   1.540  1.4912  0.5670  3.5683
 2822TIP3   OH2 8429   3.499   1.338   3.542 -0.0117  0.4812 -0.1548
 2822TIP3    H1 8430   3.501   1.270   3.474  0.0680 -0.1672  0.4852
 2822TIP3    H2 8431   3.426   1.312   3.599  1.3234 -0.2619  1.2949
 2823TIP3   OH2 8432   4.068   6.300   4.092  0.5138 -0.3188 -0.1553
 2823TIP3    H1 8433   3.980   6.280   4.123  1.4127 -1.7469  1.6826
 2823TIP3    H2 8434   4.060   6.385   4.049 -0.8289  2.5294  4.8882
 2824TIP3   OH2 8435   0.186   6.564   4.244  0.0727 -0.6872 -0.7707
 2824TIP3    H1 8436   0.118   6.600   4.301  0.5830  2.0422 -1.7487
 2824TIP3    H2 8437   0.236   6.505   4.300 -0.4844  0.5662  1.1224
 2825TIP3   OH2 8438   4.630   2.325   0.702 -0.1807 -0.5704 -0.5756
 2825TIP3    H1 8439   4.681   2.406   0.701 -0.3635 -0.1732  3.6692
 2825TIP3    H2 8440   4.555   2.343   0.645  0.6827  1.5881 -1.1137
 2826TIP3   OH2 8441   7.116   0.304   2.796  0.5421 -0.3253  0.0713
 2826TIP3    H1 8442   7.054   0.252   2.744  0.6885  0.6810 -1.1602
 2826TIP3    H2 8443   7.102   0.274   2.886 -2.6113  0.6869  0.0498
 2827TIP3   OH2 8444   5.412   2.942   1.153 -0.1959 -0.0563  0.4503
 2827TIP3    H1 8445   5.335   2.973   1.106 -0.1055 -0.3874  0.0790
 2827TIP3    H2 8446   5.474   2.919   1.084  0.3552  0.5143  0.7523
 2828TIP3   OH2 8447   3.130   3.227   2.306  0.4201 -0.1827 -0.2666
 2828TIP3    H1 8448   3.214   3.223   2.260  0.1894  1.2561 -0.8801
 2828TIP3    H2 8449   3.138   3.303   2.364 -0.2901 -0.3114  0.0112
 2829TIP3   OH2 8450   2.068   3.107   5.822  0.3738  0.2516  0.1562
 2829TIP3    H1 8451   1.982   3.076   5.851  1.3904 -1.3307  1.6737
 2829TIP3    H2 8452   2.118   3.119   5.902  1.7774  0.5061 -0.7274
 2830TIP3   OH2 8453   4.822   0.251   1.275 -0.1905  0.6671 -0.4695
 2830TIP3    H1 8454   4.787   0.298   1.200 -0.0103 -0.2670 -1.1479
 2830TIP3    H2 8455   4.854   0.168   1.240 -0.8457 -0.1457  0.7497
 2831TIP3   OH2 8456   2.255   1.840   0.314  0.1570  0.8923  0.3317
 2831TIP3    H1 8457   2.314   1.850   0.389  0.0761  0.1291  0.5020
 2831TIP3    H2 8458   2.306   1.871   0.239  0.8195  0.1382  0.4586
 2832TIP3   OH2 8459   4.533   2.830   3.726  0.7018 -0.5599  0.1685
 2832TIP3    H1 8460   4.587   2.899   3.687  2.4076 -1.9737 -0.1041
 2832TIP3    H2 8461   4.591   2.754   3.730 -1.6521 -2.5968 -1.4170
 2833TIP3   OH2 8462   7.062   2.563   2.826 -0.1019  0.1135 -0.0913
 2833TIP3    H1 8463   7.114   2.508   2.885 -1.1500  0.0861  0.8498
 2833TIP3    H2 8464   6.983   2.584   2.876 -0.9278  0.2844 -1.4108
 2834TIP3   OH2 8465   1.688   5.141   4.964 -0.0111 -0.0120  0.2152
 2834TIP3    H1 8466   1.662   5.113   5.052  0.0020 -0.2229  0.1515
 2834TIP3    H2 8467   1.784   5.134   4.964 -0.0631 -0.7316 -0.0610
 2835TIP3   OH2 8468   0.743   5.503   0.931 -0.3732 -0.5352 -0.3478
 2835TIP3    H1 8469   0.800   5.437   0.892 -0.3971 -0.2645 -0.8466
 2835TIP3    H2 8470   0.739   5.479   1.024  2.4604  0.7936  0.2290
 2836TIP3   OH2 8471   6.588   5.304   3.612  0.7216 -0.0064  0.2362
 2836TIP3    H1 8472   6.569   5.238   3.545  0.0245  0.1214  0.2995
 2836TIP3    H2 8473   6.684   5.304   3.619  1.0281  1.5193 -2.3354
 2837TIP3   OH2 8474   4.654   5.059   1.184  0.4463  0.1210  0.3347
 2837TIP3    H1 8475   4.720   5.121   1.216  0.0984  0.6205  0.0926
 2837TIP3    H2 8476   4.585   5.114   1.148 -0.1941 -0.3943  0.7574
 2838TIP3   OH2 8477   4.176   5.823   0.412  0.0587  0.1558  0.4620
 2838TIP3    H1 8478   4.181   5.753   0.478 -4.1861 -1.5623 -0.7185
 2838TIP3    H2 8479   4.098   5.872   0.436 -0.2124  0.9847 -1.9207
 2839TIP3   OH2 8480   5.408   2.380   5.264  0.1961  0.2711  0.2532
 2839TIP3    H1 8481   5.455   2.458   5.236  1.4493 -0.9031 -1.0921
 2839TIP3    H2 8482   5.411   2.322   5.188  1.8948 -2.2467  2.0692
 2840TIP3   OH2 8483   4.920   5.001   5.408  0.6789  0.2616  0.3705
 2840TIP3    H1 8484   4.969   4.973   5.485  1.3759  0.1624 -0.1016
 2840TIP3    H2 8485   4.879   5.084   5.434  1.7426  0.7487  0.5247
 2841TIP3   OH2 8486   4.704   6.535   5.732 -0.1909  0.6328 -0.4023
 2841TIP3    H1 8487   4.756   6.539   5.652  0.1994  3.5563 -0.0937
 2841TIP3    H2 8488   4.650   6.613   5.729  1.0941  1.8145  2.9730
 2842TIP3   OH2 8489   5.089   2.273   2.632  0.0706  0.1966  0.1093
 2842TIP3    H1 8490   5.124   2.361   2.618  1.0531 -0.0936  0.6523
 2842TIP3    H2 8491   5.011   2.287   2.686 -1.3914  0.9518 -2.0573
 2843TIP3   OH2 8492   4.599   0.758   3.821  0.0865  0.0970 -0.4701
 2843TIP3    H1 8493   4.572   0.675   3.860  0.5046 -0.8920 -2.1760
 2843TIP3    H2 8494   4.559   0.757   3.733  1.0858  1.1446 -0.9624
 2844TIP3   OH2 8495   0.241   2.085   5.879  0.2321 -0.0445 -0.4155
 2844TIP3    H1 8496   0.283   1.999   5.879 -0.3818 -0.3743 -1.7818
 2844TIP3    H2 8497   0.274   2.128   5.800  1.5125  1.5047  0.8959
 2845TIP3   OH2 8498   3.062   5.230   0.431  0.2701 -0.1357 -0.5339
 2845TIP3    H1 8499   2.996   5.206   0.367  0.6218 -0.3038 -0.8379
 2845TIP3    H2 8500   3.075   5.152   0.484 -0.3655  0.1500  0.0512
 2846TIP3   OH2 8501   5.437  -0.021   0.234 -0.2802 -0.5296  0.7882
 2846TIP3    H1 8502   5.396  -0.013   0.148 -0.3533 -1.1037  0.7608
 2846TIP3    H2 8503   5.437   0.068   0.269  1.8366  0.1413 -0.7435
 2847TIP3   OH2 8504   3.570   2.655   1.915 -0.0110  0.2008  0.2266
 2847TIP3    H1 8505   3.478   2.665   1.936 -0.0779  1.0764 -0.4229
 2847TIP3    H2 8506   3.616   2.709   1.980  0.1153 -0.8968  1.0737
 2848TIP3   OH2 8507   5.016   2.782   1.784  0.2385 -0.4769  0.7992
 2848TIP3    H1 8508   5.045   2.697   1.753 -0.2153 -0.5496  0.5736
 2848TIP3    H2 8509   5.097   2.833   1.793  0.3765 -0.4425 -0.5314
 2849TIP3   OH2 8510   3.357   0.784   4.519 -0.6405 -0.2904  0.3559
 2849TIP3    H1 8511   3.301   0.746   4.452  0.5511  1.0223 -1.4577
 2849TIP3    H2 8512   3.306   0.855   4.558 -0.3748  0.7488 -1.1254
 2850TIP3   OH2 8513   0.953   4.571   4.026 -0.6970  0.5148  0.2833
 2850TIP3    H1 8514   1.023   4.506   4.037  0.4454  1.5761 -0.4959
 2850TIP3    H2 8515   0.885   4.544   4.089  0.0843 -0.9618  0.5300
 2851TIP3   OH2 8516   6.996   5.784   5.252  0.0577  0.2727 -0.3034
 2851TIP3    H1 8517   6.928   5.723   5.281  1.4729 -1.3978 -0.3261
 2851TIP3    H2 8518   6.998   5.774   5.157  0.5195  0.0830 -0.2783
 2852TIP3   OH2 8519   3.159   3.450   4.847 -0.2603  0.3367 -0.2058
 2852TIP3    H1 8520   3.099   3.455   4.773 -0.9872  1.6114  0.4239
 2852TIP3    H2 8521   3.231   3.395   4.817 -1.1911 -0.2757 -1.3783
 2853TIP3   OH2 8522   0.260   1.148   2.140  0.0636 -0.1241 -0.1082
 2853TIP3    H1 8523   0.201   1.102   2.080 -0.7234  0.9734 -0.2170
 2853TIP3    H2 8524   0.202   1.208   2.188  1.0712  0.9542 -0.1900
 2854TIP3   OH2 8525   3.378   3.588   3.061 -0.2342  0.4801  0.0980
 2854TIP3    H1 8526   3.347   3.623   3.145  1.0913  1.1942  0.3155
 2854TIP3    H2 8527   3.411   3.501   3.082 -3.7758 -1.1760 -0.4877
 2855TIP3   OH2 8528   4.826   1.572   3.641 -0.0825 -0.2701  0.0697
 2855TIP3    H1 8529   4.868   1.589   3.557  1.2558 -0.3716  0.6831
 2855TIP3    H2 8530   4.850   1.646   3.696 -1.2910  0.0026  0.2545
 2856TIP3   OH2 8531   2.161   1.055   1.474  0.4774  0.5194  0.3064
 2856TIP3    H1 8532   2.136   0.990   1.540  0.6938  1.8393  1.7410
 2856TIP3    H2 8533   2.143   1.139   1.515  3.0386  1.4565 -0.3083
 2857TIP3   OH2 8534   3.306   1.823   3.962  0.2407 -0.8599 -0.1754
 2857TIP3    H1 8535   3.305   1.910   4.003 -2.8924 -0.6719 -0.4023
 2857TIP3    H2 8536   3.361   1.834   3.885 -1.5260  1.5236 -1.2125
 2858TIP3   OH2 8537   2.674   5.366   3.251 -0.5738 -0.1379  0.4052
 2858TIP3    H1 8538   2.668   5.445   3.304  0.6748  0.3990 -0.2009
 2858TIP3    H2 8539   2.629   5.387   3.169 -1.5655 -0.5938  0.8224
 2859TIP3   OH2 8540   5.723   1.186  -0.010 -0.8864  0.1943 -0.2099
 2859TIP3    H1 8541   5.689   1.201   0.078 -1.6341  0.6615 -0.5702
 2859TIP3    H2 8542   5.678   1.108  -0.040  0.2026 -0.6324  0.2300
 2860TIP3   OH2 8543   5.108   3.118   1.979  0.2216 -0.4034 -0.2213
 2860TIP3    H1 8544   5.164   3.056   2.026  1.1860  1.3209  1.0030
 2860TIP3    H2 8545   5.025   3.117   2.026 -0.5052 -2.2152 -1.4342
 2861TIP3   OH2 8546   3.382   4.569   5.200  0.3516  0.2708 -0.1023
 2861TIP3    H1 8547   3.422   4.640   5.150 -0.2824  0.5246 -0.2620
 2861TIP3    H2 8548   3.451   4.504   5.210  0.7462  0.6235 -0.5186
 2862TIP3   OH2 8549   6.059   0.104   4.959 -0.4124  0.6136  0.2780
 2862TIP3    H1 8550   6.031   0.030   5.013 -2.4141  1.0649 -0.0456
 2862TIP3    H2 8551   6.144   0.129   4.995 -0.6012 -0.5859  1.6736
 2863TIP3   OH2 8552   2.234   3.675   2.462  0.1622  0.0196  0.1148
 2863TIP3    H1 8553   2.155   3.657   2.514 -1.0665  0.7854 -1.3762
 2863TIP3    H2 8554   2.260   3.763   2.489  0.4570 -0.1934  0.5346
 2864TIP3   OH2 8555   1.878   1.214   4.732  0.0700  0.0174  0.1322
 2864TIP3    H1 8556   1.807   1.157   4.759  0.9380 -1.2763 -0.2381
 2864TIP3    H2 8557   1.915   1.248   4.814  0.0649 -0.6052  0.3908
 2865TIP3   OH2 8558   6.441   5.527   5.123  0.1061  0.3390  0.1206
 2865TIP3    H1 8559   6.355   5.519   5.167 -0.4740 -1.0432 -1.1732
 2865TIP3    H2 8560   6.497   5.568   5.189 -1.4450  0.9637  1.1374
 2866TIP3   OH2 8561   4.541   2.139   4.086 -0.4813 -0.3005  0.0099
 2866TIP3    H1 8562   4.622   2.089   4.074 -0.9124 -1.0704  0.2900
 2866TIP3    H2 8563   4.473   2.073   4.098 -1.0493  0.3544  0.4606
 2867TIP3   OH2 8564   3.499   1.675   1.849 -0.3206 -0.2891  0.7611
 2867TIP3    H1 8565   3.512   1.753   1.795 -0.2612 -1.3543 -0.8330
 2867TIP3    H2 8566   3.579   1.623   1.835 -0.5872 -0.8764  1.3670
 2868TIP3   OH2 8567   4.866   2.290   2.826  0.3482  0.2984 -0.4418
 2868TIP3    H1 8568   4.805   2.269   2.755 -1.1923  0.2083  0.8276
 2868TIP3    H2 8569   4.856   2.385   2.839  0.2594  0.2393 -0.0530
 2869TIP3   OH2 8570   3.626   1.011   0.251  0.1952 -0.4805 -0.3504
 2869TIP3    H1 8571   3.631   1.105   0.236 -0.2416 -0.5193 -0.7862
 2869TIP3    H2 8572   3.685   0.973   0.186  1.8177 -0.4362  1.0068
 2870TIP3   OH2 8573   1.151   0.663   3.143  0.1159  0.1109  0.2410
 2870TIP3    H1 8574   1.230   0.669   3.196 -0.7633 -0.1449  1.6559
 2870TIP3    H2 8575   1.085   0.627   3.203 -1.2849  1.0901 -0.6468
 2871TIP3   OH2 8576   6.771   5.981   2.989 -0.2231  0.0952  1.0254
 2871TIP3    H1 8577   6.751   5.924   2.915 -0.0742  1.3614 -0.0177
 2871TIP3    H2 8578   6.863   5.965   3.007  0.8994  2.6414 -1.7170
 2872TIP3   OH2 8579   2.225   0.818   4.894  0.6673 -0.2649  0.1603
 2872TIP3    H1 8580   2.168   0.844   4.966  0.4954 -1.4337  0.4665
 2872TIP3    H2 8581   2.169   0.817   4.817  0.0700 -1.9987  0.5599
 2873TIP3   OH2 8582   3.173   4.453   4.706 -0.2198 -1.0222 -0.2431
 2873TIP3    H1 8583   3.190   4.435   4.798  0.2540  0.3970 -0.0179
 2873TIP3    H2 8584   3.250   4.502   4.676 -1.2110  0.2525 -0.8493
 2874TIP3   OH2 8585   2.363   3.079   1.005  0.3364  0.0956 -0.2299
 2874TIP3    H1 8586   2.393   3.053   1.092  0.0043  1.5332  0.3322
 2874TIP3    H2 8587   2.351   3.173   1.010 -1.4021 -0.0160 -1.2996
 2875TIP3   OH2 8588   5.045   1.122   5.497 -0.6407 -0.1840 -0.6644
 2875TIP3    H1 8589   5.013   1.067   5.425 -1.7710 -1.3564  0.6825
 2875TIP3    H2 8590   4.970   1.133   5.555  0.4427  0.0654  0.7526
 2876TIP3   OH2 8591   0.106   3.396   5.179 -0.1807 -0.3983 -0.3047
 2876TIP3    H1 8592   0.078   3.348   5.101  1.4727  1.6963 -2.3254
 2876TIP3    H2 8593   0.043   3.468   5.187 -0.7050 -0.9396  0.7278
 2877TIP3   OH2 8594   1.287   3.897   1.499  0.4954  0.1160  0.1479
 2877TIP3    H1 8595   1.220   3.928   1.559 -1.3359 -2.7967 -0.1817
 2877TIP3    H2 8596   1.320   3.816   1.539  2.1388  0.2342 -0.8513
 2878TIP3   OH2 8597   2.294   2.794  -0.019 -0.1524 -0.0189  0.0538
 2878TIP3    H1 8598   2.251   2.879  -0.018 -0.4132 -0.1362 -0.5489
 2878TIP3    H2 8599   2.356   2.797   0.053  0.4425  0.9916 -0.4927
 2879TIP3   OH2 8600   6.112   3.538   4.568 -0.5421  0.6344 -0.0171
 2879TIP3    H1 8601   6.196   3.573   4.596 -0.8976  1.8513 -0.3988
 2879TIP3    H2 8602   6.133   3.457   4.522  0.2074 -0.3500  1.9562
 2880TIP3   OH2 8603   0.895   4.124   0.726 -0.3066 -0.0990  0.5302
 2880TIP3    H1 8604   0.850   4.183   0.665 -1.5364 -2.0649 -0.5389
 2880TIP3    H2 8605   0.826   4.066   0.759  0.7527 -0.5339  2.1033
 2881TIP3   OH2 8606   6.409   6.457   1.858 -0.4450  0.1528  0.0149
 2881TIP3    H1 8607   6.316   6.462   1.882 -0.6906  2.1594 -1.1167
 2881TIP3    H2 8608   6.426   6.363   1.850 -2.3423 -0.2747  0.4145
 2882TIP3   OH2 8609   6.487   3.855   3.713  0.0433 -0.1975  0.3106
 2882TIP3    H1 8610   6.576   3.876   3.739  0.2678  0.2330 -0.7477
 2882TIP3    H2 8611   6.496   3.792   3.641 -0.4592  0.3839 -0.2899
 2883TIP3   OH2 8612   6.099   1.396   3.775  0.7475  0.0334 -0.4166
 2883TIP3    H1 8613   6.142   1.312   3.759 -0.6014 -0.7174 -0.3057
 2883TIP3    H2 8614   6.147   1.435   3.849  1.1661 -0.8128 -0.2344
 2884TIP3   OH2 8615   1.308   5.212   3.187 -0.3891  0.0029  0.7325
 2884TIP3    H1 8616   1.341   5.285   3.239  0.2182 -0.6546  1.2651
 2884TIP3    H2 8617   1.255   5.161   3.248  0.7072 -1.0291  0.8476
 2885TIP3   OH2 8618   6.880   0.083   4.809 -0.2617 -0.6415  0.4925
 2885TIP3    H1 8619   6.903   0.050   4.722  1.1967  0.4244  0.4404
 2885TIP3    H2 8620   6.849   0.006   4.857 -0.1499 -1.4203 -0.6585
 2886TIP3   OH2 8621   6.774   3.114   4.111 -0.3406  0.4868 -0.0829
 2886TIP3    H1 8622   6.787   3.021   4.126 -0.1955  0.4342 -0.5205
 2886TIP3    H2 8623   6.761   3.151   4.199  2.4400  0.4992  0.4070
 2887TIP3   OH2 8624   1.298   0.856   2.421 -0.3623  0.3735 -0.4715
 2887TIP3    H1 8625   1.276   0.773   2.379 -1.6391 -0.8445  2.3443
 2887TIP3    H2 8626   1.214   0.893   2.447  0.3126  1.5222  0.1622
 2888TIP3   OH2 8627   0.175   2.443   3.923 -0.2339  0.4078  0.2826
 2888TIP3    H1 8628   0.266   2.436   3.954  0.3122 -0.4703 -1.3545
 2888TIP3    H2 8629   0.155   2.536   3.929  1.1728  0.7786 -0.3100
 2889TIP3   OH2 8630  -0.016   4.506   2.172  0.1007 -0.3019 -0.6061
 2889TIP3    H1 8631   0.076   4.518   2.149 -0.1768  1.8175 -0.7789
 2889TIP3    H2 8632  -0.043   4.428   2.123  1.4309 -0.1091 -1.6905
 2890TIP3   OH2 8633   6.535   6.318   3.595  0.0067 -0.1961  0.0805
 2890TIP3    H1 8634   6.449   6.327   3.555  0.2026  0.6771 -0.1697
 2890TIP3    H2 8635   6.596   6.347   3.527  0.5189 -1.0281  0.1725
 2891TIP3   OH2 8636   2.939   4.271   3.316  0.4646 -0.0079  0.1121
 2891TIP3    H1 8637   2.971   4.324   3.243 -2.6886  1.6427 -0.2336
 2891TIP3    H2 8638   2.969   4.182   3.296  0.2671  0.4991 -2.8675
 2892TIP3   OH2 8639   6.209   3.337   5.768  0.0907 -0.6298 -0.0290
 2892TIP3    H1 8640   6.238   3.321   5.678  0.2388 -1.5421  0.1665
 2892TIP3    H2 8641   6.254   3.270   5.820 -1.3826 -1.2979  0.4603
 2893TIP3   OH2 8642   3.216   0.752   5.821  0.1218  0.0649 -0.5354
 2893TIP3    H1 8643   3.192   0.804   5.744 -0.1117  0.9393  0.1169
 2893TIP3    H2 8644   3.175   0.797   5.894  2.0732  0.4427  0.3788
 2894TIP3   OH2 8645   3.158   0.678   1.712  0.3209 -0.3350 -0.0252
 2894TIP3    H1 8646   3.205   0.698   1.793 -0.1298 -1.5107  0.5418
 2894TIP3    H2 8647   3.066   0.674   1.738  0.0616  0.3169 -0.8064
 2895TIP3   OH2 8648   5.522   1.556   2.126 -0.0650 -0.4596 -0.3817
 2895TIP3    H1 8649   5.442   1.504   2.134  0.0431 -0.5658  0.1091
 2895TIP3    H2 8650   5.526   1.581   2.034 -2.2309  2.0635  0.0878
 2896TIP3   OH2 8651   0.191   3.606   0.315 -0.4621 -0.5084  0.0229
 2896TIP3    H1 8652   0.230   3.529   0.356 -0.2571 -0.1624  0.4790
 2896TIP3    H2 8653   0.214   3.597   0.222  1.9393  0.3900  0.4550
 2897TIP3   OH2 8654   1.923   2.989   4.384 -0.2944 -0.0445 -0.6015
 2897TIP3    H1 8655   1.846   3.030   4.423 -0.1322  0.3731 -0.7203
 2897TIP3    H2 8656   1.998   3.035   4.422 -0.1187 -0.0333 -0.9535
 2898TIP3   OH2 8657   2.628   0.883   5.623  0.1398  0.2345  0.0871
 2898TIP3    H1 8658   2.651   0.860   5.713 -0.1797  2.3333  0.7728
 2898TIP3    H2 8659   2.711   0.888   5.576  0.2542 -1.6244  0.0259
 2899TIP3   OH2 8660   6.230   0.693   0.198  0.1379  1.0184 -0.4121
 2899TIP3    H1 8661   6.227   0.717   0.291  0.3049  1.4911 -0.5257
 2899TIP3    H2 8662   6.236   0.598   0.198  1.1590  1.0713  0.0843
 2900TIP3   OH2 8663   6.577   0.064   5.359  0.3782  0.5080 -0.1343
 2900TIP3    H1 8664   6.527   0.061   5.278 -2.1927 -0.2913  1.3748
 2900TIP3    H2 8665   6.512   0.084   5.427  2.2317  0.1261  1.8673
 2901TIP3   OH2 8666   1.035   4.573   1.280 -0.2031  0.0696  0.2099
 2901TIP3    H1 8667   1.104   4.576   1.347 -0.7163  0.4554  0.7348
 2901TIP3    H2 8668   1.075   4.525   1.207  0.8916  0.9893  0.1773
 2902TIP3   OH2 8669   1.687   6.037   5.651 -0.3895  0.1585 -0.0721
 2902TIP3    H1 8670   1.780   6.021   5.636 -0.6074 -1.4226  0.1199
 2902TIP3    H2 8671   1.642   5.971   5.599 -1.3773  0.3122  0.5569
 2903TIP3   OH2 8672   2.370   4.524   0.856  0.6673 -0.6695 -0.0735
 2903TIP3    H1 8673   2.318   4.512   0.935  0.5278 -0.2544 -0.1018
 2903TIP3    H2 8674   2.315   4.492   0.785 -0.1188  1.0258 -0.2767
 2904TIP3   OH2 8675   1.737   4.903   2.423 -0.0530 -0.1512 -0.3336
 2904TIP3    H1 8676   1.667   4.842   2.400 -0.5582  0.0545  0.5893
 2904TIP3    H2 8677   1.692   4.975   2.468  0.7139  0.1237  0.0151
 2905TIP3   OH2 8678   1.697   4.454   0.502 -0.0743 -0.7721 -0.2888
 2905TIP3    H1 8679   1.789   4.467   0.477  0.2557  0.7984  1.4640
 2905TIP3    H2 8680   1.650   4.525   0.458  0.0854  0.2871  1.1401
 2906TIP3   OH2 8681   2.496   2.679   2.019 -0.0768 -0.1072  0.1117
 2906TIP3    H1 8682   2.430   2.648   2.081  1.6990 -2.3218  1.0128
 2906TIP3    H2 8683   2.553   2.736   2.071  0.0491 -0.0209 -0.1196
 2907TIP3   OH2 8684   1.800   1.449   2.360  0.2167 -0.1676  0.3620
 2907TIP3    H1 8685   1.823   1.390   2.432  1.1094 -0.1966  0.0658
 2907TIP3    H2 8686   1.880   1.499   2.344  0.6479 -1.4047 -1.8014
 2908TIP3   OH2 8687   4.450   3.418   4.510  0.4198  0.3590 -0.0970
 2908TIP3    H1 8688   4.451   3.409   4.415  0.8967 -0.5535 -0.0169
 2908TIP3    H2 8689   4.534   3.459   4.531  0.7444 -0.3293 -0.0050
 2909TIP3   OH2 8690   4.094   3.016   0.353 -0.1263 -0.4025 -0.2858
 2909TIP3    H1 8691   4.097   2.989   0.444 -1.8480 -0.1067 -0.1040
 2909TIP3    H2 8692   4.006   3.053   0.342 -0.4419 -1.6262 -2.3899
 2910TIP3   OH2 8693   2.725   1.791   1.838 -0.0750  0.7836  0.0312
 2910TIP3    H1 8694   2.759   1.774   1.751 -1.0152 -0.0860 -0.1971
 2910TIP3    H2 8695   2.742   1.710   1.887  0.1085  1.1241  0.5422
 2911TIP3   OH2 8696   0.242   3.065   5.050  0.3806 -0.3821  0.0782
 2911TIP3    H1 8697   0.209   3.075   5.139  0.0227 -0.4494 -0.0443
 2911TIP3    H2 8698   0.337   3.068   5.059  0.4094 -1.9765  0.6654
 2912TIP3   OH2 8699   4.492   4.527   4.318  0.0762 -0.1233  0.1413
 2912TIP3    H1 8700   4.462   4.547   4.229  0.6110  1.1096  0.2067
 2912TIP3    H2 8701   4.502   4.432   4.319  0.6819 -0.1128 -1.3262
 2913TIP3   OH2 8702   4.776   0.567   3.559 -0.0993  0.1182 -0.0150
 2913TIP3    H1 8703   4.854   0.530   3.602 -0.6172 -0.2050  0.6505
 2913TIP3    H2 8704   4.702   0.526   3.604 -0.6698 -1.1006 -1.9377
 2914TIP3   OH2 8705   4.909   1.072   3.582 -0.0660  0.1367 -0.1065
 2914TIP3    H1 8706   4.895   0.979   3.564  0.6507  0.1900 -1.0543
 2914TIP3    H2 8707   4.856   1.117   3.516 -0.4646  0.4048  0.3942
 2915TIP3   OH2 8708   2.548   1.944   0.253  0.5695 -0.2181 -0.4141
 2915TIP3    H1 8709   2.614   1.879   0.231 -0.2703 -1.8628  1.6286
 2915TIP3    H2 8710   2.530   1.930   0.346 -0.7432  1.9563 -0.2645
 2916TIP3   OH2 8711   3.737   3.022   4.589 -0.1096  0.1474 -0.6008
 2916TIP3    H1 8712   3.676   3.086   4.625  0.2947  1.3695 -1.9966
 2916TIP3    H2 8713   3.681   2.958   4.546 -0.4646  0.6133 -0.8471
 2917TIP3   OH2 8714   2.117   0.039   0.044  0.0323 -0.4503 -0.0611
 2917TIP3    H1 8715   2.171  -0.002   0.112 -0.2632 -0.7402  0.0014
 2917TIP3    H2 8716   2.044   0.078   0.091  1.2554  1.8363  0.1168
 2918TIP3   OH2 8717   0.499   2.388   0.783  0.1676  0.1772 -0.3932
 2918TIP3    H1 8718   0.524   2.295   0.780  2.1918  0.6330  0.8119
 2918TIP3    H2 8719   0.555   2.430   0.717 -0.8364  0.5351 -1.0299
 2919TIP3   OH2 8720   2.839   2.291   1.547  0.1212  0.0811  0.2996
 2919TIP3    H1 8721   2.790   2.267   1.468 -0.6853  0.4390  0.6721
 2919TIP3    H2 8722   2.819   2.221   1.610 -1.5602  1.2043  1.1095
 2920TIP3   OH2 8723   3.191   0.391   3.279  0.3350  0.1939 -0.2550
 2920TIP3    H1 8724   3.163   0.368   3.367 -0.3550  0.8805 -0.2839
 2920TIP3    H2 8725   3.257   0.326   3.257  1.2330  0.5919  1.1396
 2921TIP3   OH2 8726   5.937   0.072   5.812 -0.0001  0.8988 -0.1805
 2921TIP3    H1 8727   5.985   0.147   5.777  1.3795 -0.0842 -0.4612
 2921TIP3    H2 8728   5.891   0.035   5.737  1.0388  0.2162 -0.5016
 2922TIP3   OH2 8729   6.580   0.385   2.427 -0.7044 -0.7581 -0.1534
 2922TIP3    H1 8730   6.638   0.461   2.431 -1.5166 -0.0808 -0.8307
 2922TIP3    H2 8731   6.530   0.389   2.508 -1.4557  0.0333 -0.6390
 2923TIP3   OH2 8732   2.922   0.615   0.892 -0.3720  0.0540  0.1511
 2923TIP3    H1 8733   2.944   0.523   0.912 -1.0990 -0.2962 -0.6168
 2923TIP3    H2 8734   2.922   0.658   0.977  0.5885 -0.5168  0.4659
 2924TIP3   OH2 8735   2.986   5.890   1.525  0.2648 -0.1698  0.2875
 2924TIP3    H1 8736   3.041   5.900   1.447 -1.9005  1.6276 -1.1321
 2924TIP3    H2 8737   2.985   5.795   1.541  3.4603 -0.3112  0.2632
 2925TIP3   OH2 8738   6.609   2.142   4.170 -0.1621 -0.0996  0.0210
 2925TIP3    H1 8739   6.515   2.143   4.155 -0.2265  0.1479  0.4230
 2925TIP3    H2 8740   6.630   2.050   4.185 -0.3879 -0.1201  0.2170
 2926TIP3   OH2 8741   2.930   0.088   1.022 -0.2055 -0.1892  0.5810
 2926TIP3    H1 8742   2.881   0.138   1.087 -1.0792  0.8873 -0.8462
 2926TIP3    H2 8743   2.863   0.060   0.959  0.7397 -0.4696 -0.3188
 2927TIP3   OH2 8744   4.247   2.932   5.630  0.0016  0.4632  0.5501
 2927TIP3    H1 8745   4.227   2.884   5.550  2.0234  0.3433  0.0804
 2927TIP3    H2 8746   4.276   2.866   5.692 -1.0066  0.6260  1.2190
 2928TIP3   OH2 8747   5.029   4.344   0.408  0.1914 -0.3695  0.0986
 2928TIP3    H1 8748   5.011   4.418   0.466 -0.0477  1.8097 -2.5544
 2928TIP3    H2 8749   4.943   4.303   0.395  0.1133 -0.3845  0.6263
 2929TIP3   OH2 8750   5.763   5.035   3.102  0.0580  0.2114  1.0323
 2929TIP3    H1 8751   5.812   4.966   3.058 -1.6575  0.1462 -0.9630
 2929TIP3    H2 8752   5.710   4.989   3.167 -1.5166 -0.5319 -0.6872
 2930TIP3   OH2 8753   0.217   0.002   5.843 -0.3207 -0.1849  0.0564
 2930TIP3    H1 8754   0.276   0.059   5.793  0.3066  0.1645  1.1547
 2930TIP3    H2 8755   0.188   0.056   5.917 -0.4771 -0.9795  0.5890
 2931TIP3   OH2 8756   3.653   6.052   3.964  0.4105  0.6103  0.6407
 2931TIP3    H1 8757   3.587   6.108   3.922  1.0470  0.2364 -0.9480
 2931TIP3    H2 8758   3.640   6.065   4.058 -1.4092  1.1353  0.3572
 2932TIP3   OH2 8759   5.302   6.500   0.826  1.0103  0.0626 -0.1671
 2932TIP3    H1 8760   5.236   6.458   0.882  1.0147 -0.3052 -0.4313
 2932TIP3    H2 8761   5.321   6.583   0.869  2.2920 -0.9634  1.3360
 2933TIP3   OH2 8762   5.298   1.475   1.356 -0.3563  0.3981  0.1204
 2933TIP3    H1 8763   5.316   1.396   1.407 -1.4263 -0.3486 -0.6265
 2933TIP3    H2 8764   5.204   1.474   1.341 -0.5000  2.1515  0.6162
 2934TIP3   OH2 8765   2.273   6.448   3.044  0.2162  0.3074 -0.2681
 2934TIP3    H1 8766   2.292   6.465   2.952 -1.6678 -1.0376 -0.9776
 2934TIP3    H2 8767   2.177   6.446   3.049  0.2584 -1.8838  1.2519
 2935TIP3   OH2 8768   5.923   1.274   3.153  0.0663  0.3577 -0.4970
 2935TIP3    H1 8769   5.903   1.318   3.070  1.4602  1.3419 -0.3379
 2935TIP3    H2 8770   6.002   1.318   3.185 -0.7915  0.4423  1.6792
 2936TIP3   OH2 8771   3.473   0.878   5.826  0.2447 -0.3210 -0.2171
 2936TIP3    H1 8772   3.395   0.834   5.790 -0.1108  0.6688 -0.6832
 2936TIP3    H2 8773   3.492   0.830   5.907 -0.5881 -0.8434 -0.3160
 2937TIP3   OH2 8774   0.264   0.959   4.957 -0.3515 -0.2545  0.1281
 2937TIP3    H1 8775   0.187   0.985   4.905 -1.6912 -1.5715  1.3861
 2937TIP3    H2 8776   0.295   0.879   4.915  0.3433  0.2541 -0.3544
 2938TIP3   OH2 8777   4.405   2.224   2.264  0.0027 -0.4778  1.3347
 2938TIP3    H1 8778   4.393   2.213   2.359  1.6365  0.9592  1.7413
 2938TIP3    H2 8779   4.499   2.219   2.250 -0.0565  1.1224  0.0399
 2939TIP3   OH2 8780   3.896   0.609   0.946 -0.3880 -0.6301  0.1346
 2939TIP3    H1 8781   3.849   0.687   0.978 -1.1859 -1.3095  0.6704
 2939TIP3    H2 8782   3.877   0.606   0.853  1.6359  1.1559 -0.4209
 2940TIP3   OH2 8783   2.908   0.273   0.710  0.1065 -0.5333  0.1962
 2940TIP3    H1 8784   2.875   0.299   0.624  0.3000 -1.6670 -0.2416
 2940TIP3    H2 8785   2.873   0.185   0.724  0.4409 -0.5416  1.0843
 2941TIP3   OH2 8786   5.843   3.365   1.931 -0.2617  0.1338 -0.4588
 2941TIP3    H1 8787   5.754   3.339   1.907 -0.6762 -0.0243  1.0902
 2941TIP3    H2 8788   5.861   3.316   2.012  1.3832 -0.1171 -0.9373
 2942TIP3   OH2 8789   1.656   5.456   3.453  0.7157 -0.3766 -0.0644
 2942TIP3    H1 8790   1.677   5.532   3.398  1.1782 -0.3093  0.2023
 2942TIP3    H2 8791   1.734   5.400   3.448  0.8454 -0.2746  0.6827
 2943TIP3   OH2 8792   4.911   0.442   5.393  0.2315 -0.3784  0.5770
 2943TIP3    H1 8793   4.979   0.479   5.449  0.4845 -1.3228  0.9111
 2943TIP3    H2 8794   4.918   0.348   5.406 -1.2193 -0.4884  0.7069
 2944TIP3   OH2 8795   1.171   2.050   3.744 -0.7049  0.2737 -0.0157
 2944TIP3    H1 8796   1.253   2.070   3.788 -1.3044  0.3475  1.1170
 2944TIP3    H2 8797   1.186   2.074   3.652  0.2139  1.2207  0.3609
 2945TIP3   OH2 8798   0.578   0.283   5.115  0.0605  0.1001 -0.4490
 2945TIP3    H1 8799   0.559   0.193   5.139 -1.4074  0.2807 -0.8147
 2945TIP3    H2 8800   0.621   0.320   5.192  0.6232 -0.8877 -0.2813
 2946TIP3   OH2 8801   1.529   6.739   3.688  0.2695 -0.6791  0.0491
 2946TIP3    H1 8802   1.558   6.656   3.726 -0.9513 -0.3619  1.7866
 2946TIP3    H2 8803   1.595   6.802   3.715  1.3165 -1.0833 -1.4580
 2947TIP3   OH2 8804   1.005   6.322   4.914  0.3067 -0.4002 -0.0457
 2947TIP3    H1 8805   1.086   6.288   4.876  0.3277 -0.5889  0.1624
 2947TIP3    H2 8806   1.025   6.331   5.007 -0.0853 -0.9779  0.1010
 2948TIP3   OH2 8807   3.304   3.034   3.126 -0.6914  0.2140  0.0999
 2948TIP3    H1 8808   3.242   3.105   3.109 -0.9808 -0.1182 -0.2535
 2948TIP3    H2 8809   3.292   3.014   3.219 -0.2269  0.9791  0.3349
 2949TIP3   OH2 8810   4.073   2.425   5.333 -0.0411  0.5859 -0.2475
 2949TIP3    H1 8811   4.063   2.493   5.400  0.3938  1.0655 -0.6630
 2949TIP3    H2 8812   4.069   2.472   5.250 -0.2985  0.0280 -0.5585
 2950TIP3   OH2 8813   5.031   5.886   4.794 -0.2597  0.4269  0.2738
 2950TIP3    H1 8814   5.019   5.802   4.750 -0.3797  1.2267 -1.2951
 2950TIP3    H2 8815   5.095   5.869   4.863  1.5413 -0.4846 -1.5245
 2951TIP3   OH2 8816   2.467   2.793   2.406 -0.7063 -0.6240  0.4603
 2951TIP3    H1 8817   2.452   2.874   2.358 -0.1005 -0.4682  0.5210
 2951TIP3    H2 8818   2.456   2.724   2.340 -1.5425 -0.5217  0.4815
 2952TIP3   OH2 8819   2.292   5.897   5.380 -0.3396  0.1659 -0.5868
 2952TIP3    H1 8820   2.266   5.862   5.295  0.4612 -0.0086 -0.7709
 2952TIP3    H2 8821   2.383   5.925   5.368 -0.2245  0.1736  0.2015
 2953TIP3   OH2 8822   3.009   4.150   4.995 -0.2460 -0.3087  0.3612
 2953TIP3    H1 8823   2.919   4.171   4.971 -0.0705 -1.0439 -1.0556
 2953TIP3    H2 8824   3.015   4.055   4.983  0.9727 -0.1409 -0.4704
 2954TIP3   OH2 8825   3.189   2.764   1.604  0.4235 -0.5599 -0.2061
 2954TIP3    H1 8826   3.229   2.785   1.520  2.8825 -0.4188  0.9209
 2954TIP3    H2 8827   3.173   2.670   1.600 -0.4298 -0.3996 -1.1570
 2955TIP3   OH2 8828   6.063   0.491   2.600  0.3963  0.4650 -0.3983
 2955TIP3    H1 8829   6.110   0.454   2.674 -0.2858 -0.4347 -0.4036
 2955TIP3    H2 8830   6.102   0.578   2.588 -0.1712  1.0657  1.6785
 2956TIP3   OH2 8831   1.559   4.372   3.421  0.0976  0.8084  0.6513
 2956TIP3    H1 8832   1.472   4.377   3.382  0.5462  1.8504 -0.2623
 2956TIP3    H2 8833   1.579   4.462   3.446  1.1557  0.6761  0.3244
 2957TIP3   OH2 8834   5.663   2.946   3.763  0.3230 -0.4730  0.5197
 2957TIP3    H1 8835   5.734   3.002   3.793  1.1396  0.1604 -2.2771
 2957TIP3    H2 8836   5.584   3.000   3.773  0.4171 -0.6225  2.2415
 2958TIP3   OH2 8837   7.065   1.423   4.146 -0.4186  0.5536 -0.1568
 2958TIP3    H1 8838   7.110   1.457   4.069  0.6025  0.0271  0.1869
 2958TIP3    H2 8839   7.013   1.350   4.112  1.6893 -1.0829 -0.0797
 2959TIP3   OH2 8840   4.916   3.116   1.210 -0.2249  0.6450  0.3281
 2959TIP3    H1 8841   4.856   3.118   1.285 -1.0052 -0.3576 -0.2400
 2959TIP3    H2 8842   5.002   3.100   1.248 -0.5949  0.2808  1.0242
 2960TIP3   OH2 8843   5.545   2.567   0.233 -0.2901 -0.1978 -0.2705
 2960TIP3    H1 8844   5.554   2.576   0.328  0.4400 -1.8262 -0.1539
 2960TIP3    H2 8845   5.621   2.613   0.198 -1.3243  1.6762 -0.1758
 2961TIP3   OH2 8846   1.984   4.386   1.696 -0.1427  0.5331 -0.2347
 2961TIP3    H1 8847   2.020   4.336   1.623 -0.8326 -0.0878 -0.1654
 2961TIP3    H2 8848   2.060   4.417   1.744  0.3013  0.0980 -0.6485
 2962TIP3   OH2 8849   2.508   1.317   3.519 -0.1476  0.1951 -0.0108
 2962TIP3    H1 8850   2.561   1.238   3.531 -1.3730 -0.9128 -1.3772
 2962TIP3    H2 8851   2.525   1.344   3.429 -1.3134  0.2362 -0.2357
 2963TIP3   OH2 8852   3.179   0.305   1.239 -0.2294 -0.5385  0.4290
 2963TIP3    H1 8853   3.235   0.232   1.267  1.7643  1.2542  1.4231
 2963TIP3    H2 8854   3.137   0.335   1.320 -1.2362 -0.7238 -0.0149
 2964TIP3   OH2 8855   3.644   2.226   1.438  0.0342 -0.0665 -0.5634
 2964TIP3    H1 8856   3.716   2.245   1.498  0.4478  0.2796 -1.1623
 2964TIP3    H2 8857   3.580   2.178   1.492 -0.4134  1.7696  0.6255
 2965TIP3   OH2 8858   1.538   4.146   2.678  0.1238  0.1654  0.2129
 2965TIP3    H1 8859   1.553   4.210   2.748  1.3146 -0.7836  0.8695
 2965TIP3    H2 8860   1.495   4.073   2.722  2.0680 -1.0009  0.2930
 2966TIP3   OH2 8861   4.525   6.692   4.571 -0.4237  0.4019  0.6558
 2966TIP3    H1 8862   4.487   6.614   4.531 -0.4765  0.6724  0.1751
 2966TIP3    H2 8863   4.568   6.660   4.651  0.2322 -0.2320  0.0553
 2967TIP3   OH2 8864   1.072   6.159   4.254 -0.2902  0.9331  0.0105
 2967TIP3    H1 8865   1.136   6.099   4.295 -0.2934  0.0261 -1.2542
 2967TIP3    H2 8866   1.098   6.163   4.162 -0.8112  2.2372 -0.1011
 2968TIP3   OH2 8867   3.499   2.796   5.309 -0.0695 -0.0668  0.1966
 2968TIP3    H1 8868   3.541   2.876   5.340 -0.6169  0.2405  0.1519
 2968TIP3    H2 8869   3.406   2.809   5.326 -0.0228 -1.3247  1.5923
 2969TIP3   OH2 8870   4.049   4.950   3.670 -0.3397  0.1888 -0.4094
 2969TIP3    H1 8871   4.052   4.972   3.763  1.1737 -1.2646 -0.0727
 2969TIP3    H2 8872   3.983   4.880   3.664 -0.9575  0.7716 -0.5665
 2970TIP3   OH2 8873   4.901   4.015   5.500 -0.2479  0.1714  0.3265
 2970TIP3    H1 8874   4.993   4.004   5.525  0.1621  1.6207 -0.4338
 2970TIP3    H2 8875   4.884   4.108   5.514 -0.6340  0.6114 -2.5611
 2971TIP3   OH2 8876   4.449   5.452   1.185  0.3190  0.1243 -0.0664
 2971TIP3    H1 8877   4.504   5.374   1.174 -0.7385 -0.4708 -1.5454
 2971TIP3    H2 8878   4.465   5.504   1.106 -1.2866 -0.1156 -0.5913
 2972TIP3   OH2 8879   6.099   3.239   0.439  0.2783  0.0634  0.7951
 2972TIP3    H1 8880   6.134   3.199   0.519  2.8192  1.2618  0.4097
 2972TIP3    H2 8881   6.151   3.200   0.369  2.1045  3.0293  0.3094
 2973TIP3   OH2 8882   6.794   0.346   1.105 -0.3707  0.4797 -0.4033
 2973TIP3    H1 8883   6.777   0.440   1.105  1.4630  0.8488  0.5400
 2973TIP3    H2 8884   6.762   0.316   1.190  0.8389  0.6342  0.1233
 2974TIP3   OH2 8885   0.539   1.945   5.680 -0.1307 -0.0623 -0.1705
 2974TIP3    H1 8886   0.490   1.920   5.758  1.0510  1.1412  1.0198
 2974TIP3    H2 8887   0.473   1.951   5.611 -1.1286 -1.6861  0.5815
 2975TIP3   OH2 8888   2.484   6.528   1.732  0.2119  0.2749 -0.3186
 2975TIP3    H1 8889   2.522   6.614   1.715 -0.7366  0.5133 -1.2952
 2975TIP3    H2 8890   2.402   6.527   1.683  0.2392 -1.2169 -0.3822
 2976TIP3   OH2 8891   3.026   3.159   1.885  0.5747 -0.1560  0.0094
 2976TIP3    H1 8892   2.942   3.118   1.862  0.0950 -0.1741  1.6281
 2976TIP3    H2 8893   3.005   3.214   1.960  2.0152 -0.1168  0.4082
 2977TIP3   OH2 8894   4.749   4.111   4.182  0.0052  0.4609 -0.5438
 2977TIP3    H1 8895   4.797   4.105   4.099 -1.1523  0.2032 -1.2153
 2977TIP3    H2 8896   4.769   4.030   4.228  0.3564  0.4399 -0.7364
 2978TIP3   OH2 8897   5.462   6.752   4.831 -0.1597  0.1938 -0.1138
 2978TIP3    H1 8898   5.482   6.749   4.737  0.8124  0.7614  0.0529
 2978TIP3    H2 8899   5.471   6.845   4.854 -0.7553  0.1127  0.4701
 2979TIP3   OH2 8900   4.203   6.442   4.404  0.1614 -0.6105 -0.3044
 2979TIP3    H1 8901   4.111   6.466   4.413  0.6499  1.1360  0.3915
 2979TIP3    H2 8902   4.225   6.466   4.314 -0.0694 -1.0971 -0.4950
 2980TIP3   OH2 8903   4.464   5.192   0.478 -0.5888 -0.2395 -0.5068
 2980TIP3    H1 8904   4.475   5.100   0.457 -0.5418 -0.1839 -0.7245
 2980TIP3    H2 8905   4.392   5.194   0.542  0.4530 -0.5853  0.7233
 2981TIP3   OH2 8906   6.794   4.173   2.978  0.0100 -0.1349  0.4071
 2981TIP3    H1 8907   6.870   4.229   2.990 -1.4087  1.5718  2.0508
 2981TIP3    H2 8908   6.740   4.188   3.056 -1.8164 -1.6090 -0.4785
 2982TIP3   OH2 8909   6.803   5.263   1.919  0.9290  0.3243  0.3038
 2982TIP3    H1 8910   6.778   5.212   1.996 -0.7559 -0.4726 -0.7245
 2982TIP3    H2 8911   6.794   5.354   1.947 -0.6926  0.0531  0.7856
 2983TIP3   OH2 8912   6.674   5.357   4.746 -0.6191 -0.1495 -0.1882
 2983TIP3    H1 8913   6.670   5.321   4.834 -0.9822  2.6067  1.0397
 2983TIP3    H2 8914   6.638   5.288   4.690  1.2064 -2.6379  1.5227
 2984TIP3   OH2 8915   3.291   5.751   0.531 -0.2339  0.7020  0.3239
 2984TIP3    H1 8916   3.335   5.786   0.454 -0.8705 -0.4789 -0.6134
 2984TIP3    H2 8917   3.201   5.734   0.503 -1.2073  2.5416  2.0418
 2985TIP3   OH2 8918   5.419   1.169   1.424  0.1454  0.4923  0.1862
 2985TIP3    H1 8919   5.344   1.145   1.478 -0.6691  3.5750  0.5692
 2985TIP3    H2 8920   5.420   1.103   1.354 -2.1395 -0.3557  0.8751
 2986TIP3   OH2 8921   4.255   0.096   5.489  0.1057 -0.2506  0.1487
 2986TIP3    H1 8922   4.176   0.130   5.529 -1.3414  0.9501 -3.3089
 2986TIP3    H2 8923   4.318   0.167   5.497  0.4086 -0.6578  1.6311
 2987TIP3   OH2 8924   5.955   0.737   2.426 -0.1874  0.1875  0.2598
 2987TIP3    H1 8925   6.048   0.749   2.444 -0.0788 -0.6683  0.3056
 2987TIP3    H2 8926   5.919   0.826   2.426  0.5267  0.4860  0.7873
 2988TIP3   OH2 8927   2.139   5.893   3.918 -0.0091 -0.1628 -0.4841
 2988TIP3    H1 8928   2.132   5.967   3.979 -0.2260 -0.3231 -0.3141
 2988TIP3    H2 8929   2.156   5.817   3.975  3.2369  0.1663 -0.7985
 2989TIP3   OH2 8930   0.035   6.019   3.480 -0.1007  0.0018 -0.7273
 2989TIP3    H1 8931   0.127   5.996   3.489 -0.1854 -0.0905 -0.0364
 2989TIP3    H2 8932  -0.004   5.944   3.434 -0.2266 -0.9495  0.8471
 2990TIP3   OH2 8933   4.043   1.463   5.424  0.0134 -0.1055  0.3311
 2990TIP3    H1 8934   3.956   1.459   5.465 -0.3128 -4.7334 -0.2801
 2990TIP3    H2 8935   4.104   1.458   5.498 -0.1963  1.7548  0.6785
 2991TIP3   OH2 8936   1.776   1.612   4.677 -0.2121  0.3420  0.5543
 2991TIP3    H1 8937   1.831   1.554   4.624 -0.4450 -0.5942  1.3172
 2991TIP3    H2 8938   1.838   1.666   4.725  0.1435 -1.5993  2.4217
 2992TIP3   OH2 8939   5.202   3.028   0.001  0.2072 -0.0504 -0.5365
 2992TIP3    H1 8940   5.140   2.958  -0.021 -0.2038  0.0332  0.3273
 2992TIP3    H2 8941   5.147   3.101   0.029  0.6965 -0.5908  2.0631
 2993TIP3   OH2 8942   0.649   5.417   5.711  0.6056  0.4903  0.0254
 2993TIP3    H1 8943   0.673   5.507   5.690  1.9709  0.5308  1.5870
 2993TIP3    H2 8944   0.724   5.364   5.685  0.1938 -0.0922 -0.0155
 2994TIP3   OH2 8945   3.283   3.969   5.381 -0.0954 -0.2347  0.1765
 2994TIP3    H1 8946   3.226   3.911   5.432  0.1891  0.4424  1.3176
 2994TIP3    H2 8947   3.363   3.918   5.368 -0.7784 -1.0395 -1.0853
 2995TIP3   OH2 8948   5.304   5.832   5.576  0.0284  0.3009  0.1345
 2995TIP3    H1 8949   5.216   5.813   5.609  0.1964 -0.7095  0.0152
 2995TIP3    H2 8950   5.331   5.910   5.625 -0.2041 -0.4603  1.5307
 2996TIP3   OH2 8951   3.991   2.628   4.522 -0.1929 -0.2217 -0.1451
 2996TIP3    H1 8952   4.083   2.653   4.536  0.1211 -1.0731 -0.6188
 2996TIP3    H2 8953   3.941   2.701   4.558  0.6791  0.6538 -0.6605
 2997TIP3   OH2 8954   2.702   2.289   0.091  0.1358 -0.0274  0.4240
 2997TIP3    H1 8955   2.760   2.345   0.142  1.2232 -0.5699 -0.1638
 2997TIP3    H2 8956   2.623   2.341   0.078  1.5119  1.8746 -1.0497
 2998TIP3   OH2 8957   3.220   6.763   1.485 -0.0391 -0.4077  0.2187
 2998TIP3    H1 8958   3.140   6.747   1.435 -1.2789  0.1169  1.9613
 2998TIP3    H2 8959   3.273   6.685   1.470 -1.6458 -1.5969  0.4568
 2999TIP3   OH2 8960   6.008   3.028   1.058 -0.6385 -0.2102  0.1024
 2999TIP3    H1 8961   6.081   2.989   1.011 -0.2156  1.4581 -0.7048
 2999TIP3    H2 8962   6.037   3.117   1.078 -1.5854 -0.2414  1.7862
 3000TIP3   OH2 8963   6.550   6.334   1.185  0.0567  0.4078 -0.7270
 3000TIP3    H1 8964   6.537   6.259   1.244  0.5767  1.1371  0.3595
 3000TIP3    H2 8965   6.498   6.313   1.108 -0.4781 -0.6897 -0.0990
 3001TIP3   OH2 8966   0.567   2.354   1.646  0.3745 -0.3132 -0.0640
 3001TIP3    H1 8967   0.606   2.370   1.560 -1.4118 -0.0690 -0.8778
 3001TIP3    H2 8968   0.521   2.271   1.635 -1.4239  0.6222  0.0397
 3002TIP3   OH2 8969   0.496   5.730   5.455  0.2142  0.5375  0.7134
 3002TIP3    H1 8970   0.572   5.785   5.477  0.3267 -0.3647  2.8434
 3002TIP3    H2 8971   0.430   5.792   5.424  1.2540  1.5443  0.4399
 3003TIP3   OH2 8972   2.692   5.878   0.902 -0.0183  0.1903 -0.5916
 3003TIP3    H1 8973   2.754   5.951   0.906  0.4483 -0.2032 -0.5948
 3003TIP3    H2 8974   2.747   5.800   0.894 -0.5183 -0.1511 -0.7456
 3004TIP3   OH2 8975   4.169   1.026   4.393  0.3483  0.4712  0.3118
 3004TIP3    H1 8976   4.142   0.960   4.329  0.4536  1.0422 -0.3271
 3004TIP3    H2 8977   4.151   1.110   4.351  0.8714  0.8590  0.8376
 3005TIP3   OH2 8978   7.047   4.837   3.368 -0.3126 -0.0549 -0.0225
 3005TIP3    H1 8979   7.097   4.916   3.388  0.2541 -0.4787  0.2576
 3005TIP3    H2 8980   7.045   4.834   3.272  2.0211 -1.1340 -0.1037
 3006TIP3   OH2 8981   5.617   5.372   5.404  0.1210 -0.3362  0.4370
 3006TIP3    H1 8982   5.537   5.421   5.383 -0.0218 -0.7705 -0.0420
 3006TIP3    H2 8983   5.674   5.437   5.445 -1.0292 -0.3429  2.1553
 3007TIP3   OH2 8984   1.209   5.279   3.881 -0.3754  0.1813  0.1101
 3007TIP3    H1 8985   1.260   5.221   3.937 -0.4092 -0.1230 -0.1694
 3007TIP3    H2 8986   1.126   5.289   3.927 -0.0998  0.6035  0.5203
 3008TIP3   OH2 8987   6.990   6.278   1.230  0.8521  0.5321  0.2525
 3008TIP3    H1 8988   7.012   6.234   1.148  0.1041  0.3447  0.1463
 3008TIP3    H2 8989   7.010   6.213   1.298 -0.4196 -0.0738  0.0864
 3009TIP3   OH2 8990   1.818   5.662   4.577 -0.0693 -0.4594 -0.5089
 3009TIP3    H1 8991   1.877   5.607   4.525 -0.2499 -0.2377 -0.9491
 3009TIP3    H2 8992   1.817   5.746   4.532 -0.2603 -0.2763 -0.1683
 3010TIP3   OH2 8993   1.854   4.448   1.923  0.1160 -0.1648  0.0635
 3010TIP3    H1 8994   1.913   4.409   1.987 -0.7959  0.1817  1.1401
 3010TIP3    H2 8995   1.899   4.436   1.839  0.6107 -2.0528  0.5481
 3011TIP3   OH2 8996   0.371   6.438   5.591 -0.2231  0.1389  0.1494
 3011TIP3    H1 8997   0.448   6.384   5.576  0.0770  0.3574  0.8700
 3011TIP3    H2 8998   0.369   6.452   5.686 -1.8094 -0.8281  0.2961
 3012TIP3   OH2 8999   2.992   5.264   1.565  0.0368 -0.5777 -0.0151
 3012TIP3    H1 9000   2.909   5.308   1.546 -0.4683 -1.3614  0.3487
 3012TIP3    H2 9001   3.022   5.233   1.480  0.3372  0.3466 -0.2584
 3013TIP3   OH2 9002   4.938   2.449   4.707 -0.1089  0.0846 -1.0183
 3013TIP3    H1 9003   4.992   2.466   4.785  0.1748 -0.5267 -1.0704
 3013TIP3    H2 9004   4.971   2.509   4.641  0.8411 -0.5928 -1.1911
 3014TIP3   OH2 9005   2.998   6.103   5.442  0.0128  0.5852 -0.3767
 3014TIP3    H1 9006   3.022   6.165   5.511 -0.6116  1.5397 -0.9990
 3014TIP3    H2 9007   3.066   6.035   5.447  0.6981  1.2956  0.3372
 3015TIP3   OH2 9008   6.398   0.423   0.562 -0.0922  0.1656  0.3726
 3015TIP3    H1 9009   6.445   0.398   0.641 -0.2632 -0.3445  0.3196
 3015TIP3    H2 9010   6.314   0.457   0.594  0.1384  0.6717  0.4453
 3016TIP3   OH2 9011   0.205   5.249   0.511 -0.1485  0.1348 -0.4400
 3016TIP3    H1 9012   0.142   5.263   0.440  0.3877  1.2949 -0.7107
 3016TIP3    H2 9013   0.227   5.156   0.505 -1.8059 -0.2857 -0.3491
 3017TIP3   OH2 9014   3.132   4.639   5.277 -0.1299  0.4226 -0.5950
 3017TIP3    H1 9015   3.225   4.618   5.272  0.0570  0.8420  0.6536
 3017TIP3    H2 9016   3.103   4.642   5.186  0.5789 -1.8424 -0.9680
 3018TIP3   OH2 9017   3.934   0.375   2.236 -0.2197 -0.4919 -0.1375
 3018TIP3    H1 9018   3.855   0.346   2.281 -0.5101 -2.1822 -1.6342
 3018TIP3    H2 9019   3.925   0.470   2.230 -1.7286 -0.5790  0.4439
 3019TIP3   OH2 9020   5.811   1.067   4.220  0.4619  0.2697  0.3230
 3019TIP3    H1 9021   5.799   0.976   4.193  1.0394 -0.0048  0.9605
 3019TIP3    H2 9022   5.796   1.066   4.314 -0.8006  1.0814  0.1449
 3020TIP3   OH2 9023   0.170   6.481   5.225 -0.7624 -1.0223  0.5182
 3020TIP3    H1 9024   0.209   6.528   5.152 -3.3079 -1.4189 -1.2434
 3020TIP3    H2 9025   0.102   6.539   5.258  0.2795 -0.8987  2.5650
 3021TIP3   OH2 9026   1.864   3.564   5.675 -0.3817  0.0504  0.0355
 3021TIP3    H1 9027   1.878   3.536   5.584  1.0547  1.5101 -0.2576
 3021TIP3    H2 9028   1.882   3.658   5.673  2.5728 -0.3336  2.3474
 3022TIP3   OH2 9029   1.115   4.905   2.681 -0.1709 -0.9865 -0.3309
 3022TIP3    H1 9030   1.180   4.836   2.671  0.1194 -0.9726  1.1424
 3022TIP3    H2 9031   1.070   4.884   2.763 -0.8702 -0.0649 -0.4541
 3023TIP3   OH2 9032   4.457   1.984   1.928  0.5049 -0.2411  0.2028
 3023TIP3    H1 9033   4.377   2.032   1.949 -0.2828 -1.5716  0.3413
 3023TIP3    H2 9034   4.429   1.915   1.868  1.6490 -0.3998 -0.1830
 3024TIP3   OH2 9035   4.514   0.330   0.189  0.1962 -0.0882  0.0121
 3024TIP3    H1 9036   4.475   0.416   0.176  0.9808 -0.0567 -2.8144
 3024TIP3    H2 9037   4.466   0.273   0.129  1.7756 -0.8866 -0.5703
 3025TIP3   OH2 9038   6.388   3.502   3.750 -0.3379 -0.0528  0.0374
 3025TIP3    H1 9039   6.301   3.519   3.715 -1.1626 -0.4702  1.7782
 3025TIP3    H2 9040   6.411   3.415   3.716 -0.4869  0.1562 -0.6096
 3026TIP3   OH2 9041   7.136   2.775   4.874 -0.0429 -0.0053  0.1598
 3026TIP3    H1 9042   7.060   2.815   4.916 -0.4441 -0.8314  0.2270
 3026TIP3    H2 9043   7.152   2.695   4.924 -0.4701 -0.9623 -1.1852
 3027TIP3   OH2 9044   1.306   4.190   5.591 -0.7341 -0.3739 -0.1338
 3027TIP3    H1 9045   1.267   4.181   5.678 -0.9846  3.0272  0.2271
 3027TIP3    H2 9046   1.247   4.141   5.533 -0.6683 -2.5369  1.5200
 3028TIP3   OH2 9047   2.247   5.043   4.925  0.5719 -0.1580  0.7134
 3028TIP3    H1 9048   2.158   5.035   4.892  0.7026  0.3165  0.2401
 3028TIP3    H2 9049   2.284   4.955   4.917 -0.5977 -0.9647  3.1278
 3029TIP3   OH2 9050   7.126   2.508   0.091  0.0381 -0.1134  0.2140
 3029TIP3    H1 9051   7.054   2.537   0.146 -0.0693 -1.6575  0.9429
 3029TIP3    H2 9052   7.204   2.550   0.130 -0.5715  3.2576 -1.8101
 3030TIP3   OH2 9053   1.869   3.863   2.007  0.1780  0.1126  0.1564
 3030TIP3    H1 9054   1.887   3.844   2.099 -0.7770 -1.3830  0.0699
 3030TIP3    H2 9055   1.951   3.843   1.962 -0.5565 -3.5488  0.1560
 3031TIP3   OH2 9056   4.760   4.815   0.474  0.1282  0.0750  0.7545
 3031TIP3    H1 9057   4.772   4.855   0.388  1.2287 -0.4280  0.6522
 3031TIP3    H2 9058   4.721   4.884   0.527 -0.8167  0.3017 -0.2125
 3032TIP3   OH2 9059   6.354   5.680   0.633  0.2546  0.2921 -0.2074
 3032TIP3    H1 9060   6.315   5.610   0.685 -1.7042  0.2793 -1.6050
 3032TIP3    H2 9061   6.348   5.649   0.543  0.4816  1.7568 -0.7510
 3033TIP3   OH2 9062   0.630   0.770   1.411 -0.3466 -0.1660  0.8358
 3033TIP3    H1 9063   0.699   0.835   1.400 -0.8356  0.1548 -0.4482
 3033TIP3    H2 9064   0.673   0.698   1.457  0.4550  0.6293  1.3750
 3034TIP3   OH2 9065   3.366   4.022   2.919  0.6444  0.1778  0.2270
 3034TIP3    H1 9066   3.354   4.045   2.827 -0.9569  0.9311  0.5936
 3034TIP3    H2 9067   3.425   3.947   2.917 -1.6755 -1.7689 -1.6553
 3035TIP3   OH2 9068   6.882   1.867   3.012 -0.1393  0.4033  0.0253
 3035TIP3    H1 9069   6.878   1.773   3.026  1.5666  0.5797  2.3269
 3035TIP3    H2 9070   6.930   1.877   2.930  2.5626 -0.7968  1.3368
 3036TIP3   OH2 9071   7.175   4.137   5.159 -0.2444 -0.2788 -0.0248
 3036TIP3    H1 9072   7.189   4.192   5.237 -1.1689  1.4700 -1.0347
 3036TIP3    H2 9073   7.080   4.126   5.154 -0.2044 -0.2099 -1.0223
 3037TIP3   OH2 9074   5.027   2.242   1.503  0.7038  0.1015  0.2902
 3037TIP3    H1 9075   5.104   2.186   1.511  0.7167 -0.1636 -1.3070
 3037TIP3    H2 9076   5.045   2.317   1.560  1.5672 -0.5584  0.9072
 3038TIP3   OH2 9077   5.987   2.933   0.185 -0.4164  0.2014 -0.1767
 3038TIP3    H1 9078   5.941   2.849   0.185  0.7821 -0.5150 -1.4761
 3038TIP3    H2 9079   5.918   2.999   0.188 -1.3767 -0.7910  1.6216
 3039TIP3   OH2 9080   1.101   0.457   2.117  0.6347 -0.3629 -0.0123
 3039TIP3    H1 9081   1.044   0.451   2.041 -1.4884  1.1415  1.3471
 3039TIP3    H2 9082   1.070   0.534   2.164  2.1166 -1.0103  2.1787
 3040TIP3   OH2 9083   0.227   5.919   1.772  0.0822 -0.0833 -0.0630
 3040TIP3    H1 9084   0.164   5.884   1.709 -0.9627 -0.2228  1.0207
 3040TIP3    H2 9085   0.176   5.980   1.825  0.7597 -0.5206  1.1256
 3041TIP3   OH2 9086   3.618   2.845   5.057 -0.2796  0.3050 -0.3440
 3041TIP3    H1 9087   3.706   2.810   5.072 -0.1593  0.1526 -1.2966
 3041TIP3    H2 9088   3.565   2.811   5.128  0.0026 -1.2396 -0.8430
 3042TIP3   OH2 9089   5.666   5.681   1.088  0.0096  0.2422  0.1443
 3042TIP3    H1 9090   5.666   5.775   1.070  0.2377  0.0375 -1.0300
 3042TIP3    H2 9091   5.635   5.642   1.006  0.0597 -0.7109  0.5761
 3043TIP3   OH2 9092   6.930   2.129   1.666  0.3101  0.2769  0.1290
 3043TIP3    H1 9093   7.003   2.191   1.669  0.2563  0.3130  0.8107
 3043TIP3    H2 9094   6.880   2.155   1.589  1.0584  0.2056 -0.3843
 3044TIP3   OH2 9095   3.559   0.506   5.202 -0.2497 -0.1132 -0.0851
 3044TIP3    H1 9096   3.604   0.473   5.124 -0.2244  2.4281 -1.2292
 3044TIP3    H2 9097   3.480   0.549   5.169 -0.1385  1.2088  1.2272
 3045TIP3   OH2 9098   1.471   4.696   2.028  0.5869 -0.2126 -0.5731
 3045TIP3    H1 9099   1.533   4.625   2.014 -0.5061 -1.3780  0.3170
 3045TIP3    H2 9100   1.442   4.685   2.118 -0.3522  0.7619 -0.7378
 3046TIP3   OH2 9101   3.590   5.695   2.676 -0.1526  0.2097 -0.0446
 3046TIP3    H1 9102   3.534   5.621   2.702  0.6069  0.2659  1.9091
 3046TIP3    H2 9103   3.678   5.659   2.677  0.2072  1.0752  0.7232
 3047TIP3   OH2 9104   5.878   0.451   1.720 -0.5013 -0.4247  0.2069
 3047TIP3    H1 9105   5.922   0.375   1.683 -2.7525 -1.4267 -0.5851
 3047TIP3    H2 9106   5.890   0.441   1.815  1.0335 -0.5581  0.0286
 3048TIP3   OH2 9107   2.548   5.390   5.424  0.0990  1.1894  0.0079
 3048TIP3    H1 9108   2.580   5.319   5.480 -0.4978  0.6445 -0.3254
 3048TIP3    H2 9109   2.517   5.456   5.486 -1.6536  0.0922  0.3719
 3049TIP3   OH2 9110   3.286   4.706   3.101 -0.4443  0.4939 -0.1079
 3049TIP3    H1 9111   3.246   4.686   3.186  0.3192 -1.3171 -0.1234
 3049TIP3    H2 9112   3.358   4.766   3.122 -0.0977 -0.1463  0.5940
 3050TIP3   OH2 9113   0.953   3.013   2.326  0.1298  0.2458 -0.1312
 3050TIP3    H1 9114   0.999   3.024   2.409  1.1251 -0.4663 -0.5747
 3050TIP3    H2 9115   0.874   2.963   2.348  1.3036 -1.5494  0.1204
 3051TIP3   OH2 9116   4.507   3.740   1.910  0.4558 -0.6569  0.5009
 3051TIP3    H1 9117   4.425   3.789   1.901  0.3104 -1.0842 -0.7343
 3051TIP3    H2 9118   4.515   3.723   2.004 -0.7854 -0.4626  0.6603
 3052TIP3   OH2 9119   3.578   1.417   4.211  0.0455  0.7228  0.6645
 3052TIP3    H1 9120   3.486   1.395   4.196 -0.1175 -0.2906  2.7352
 3052TIP3    H2 9121   3.624   1.333   4.209  0.9058  1.1871 -0.0908
 3053TIP3   OH2 9122   6.839   4.822   5.425 -0.3345 -0.1619 -0.2352
 3053TIP3    H1 9123   6.858   4.848   5.515 -1.0801 -0.8369  0.1328
 3053TIP3    H2 9124   6.920   4.840   5.377  0.0455  0.2751  0.5484
 3054TIP3   OH2 9125   6.255   5.130   3.384 -0.5696 -0.0787 -0.2212
 3054TIP3    H1 9126   6.345   5.101   3.397 -0.4788  0.1393 -0.3574
 3054TIP3    H2 9127   6.202   5.051   3.398 -0.4378  0.0268  0.9160
 3055TIP3   OH2 9128   6.515   2.790   3.082  0.1705 -0.4149 -0.3964
 3055TIP3    H1 9129   6.504   2.703   3.044  1.2301 -0.8908  0.3256
 3055TIP3    H2 9130   6.478   2.850   3.017 -1.7986 -1.4762 -0.3259
 3056TIP3   OH2 9131   5.718   0.064   2.528  0.0367  0.1723 -0.7895
 3056TIP3    H1 9132   5.805   0.039   2.500 -0.3501 -1.3085 -0.7532
 3056TIP3    H2 9133   5.731   0.145   2.578  1.3484  0.0929 -0.9735
 3057TIP3   OH2 9134   4.463   6.826   4.095  0.4153  0.3727 -0.1767
 3057TIP3    H1 9135   4.532   6.765   4.069 -1.5252 -1.3835 -1.5394
 3057TIP3    H2 9136   4.389   6.770   4.120 -0.8801  2.1626  0.2643
 3058TIP3   OH2 9137   6.637   1.733   2.426  0.4869 -0.6771  0.3026
 3058TIP3    H1 9138   6.712   1.686   2.391  0.7187 -0.0678 -0.0385
 3058TIP3    H2 9139   6.659   1.745   2.519  0.1801 -1.6949  0.5183
 3059TIP3   OH2 9140   2.553   6.437   0.147  0.5124 -0.0152 -0.1637
 3059TIP3    H1 9141   2.540   6.529   0.124 -0.2960  0.4849  2.0821
 3059TIP3    H2 9142   2.469   6.395   0.127 -0.2018  0.4262  1.7276
 3060TIP3   OH2 9143   5.056   3.252   2.299  0.2246 -0.2591  0.4032
 3060TIP3    H1 9144   5.077   3.340   2.266  0.4443 -0.1341  0.8646
 3060TIP3    H2 9145   5.139   3.219   2.333  0.2828 -0.9072 -0.3480
 3061TIP3   OH2 9146   4.870   5.987   5.783 -0.2198  0.0002  0.0325
 3061TIP3    H1 9147   4.862   5.957   5.873  0.5669 -0.7879 -0.1493
 3061TIP3    H2 9148   4.780   6.010   5.757 -0.1664  2.4689  1.7421
 3062TIP3   OH2 9149   3.256   1.799   4.887  0.3674 -0.0948 -0.0308
 3062TIP3    H1 9150   3.173   1.752   4.882 -0.4256  1.3848 -2.1205
 3062TIP3    H2 9151   3.242   1.862   4.958 -0.7865  0.9185 -1.1005
 3063TIP3   OH2 9152   3.088   5.886   0.090  0.0566 -0.2699  0.1787
 3063TIP3    H1 9153   3.128   5.973   0.095  0.7285 -0.6166  1.1758
 3063TIP3    H2 9154   3.084   5.867  -0.004 -0.2629  0.8984 -0.0584
 3064TIP3   OH2 9155   6.530   1.126   5.716  0.4296 -0.0730  0.5655
 3064TIP3    H1 9156   6.542   1.215   5.684 -0.6095  0.2588  1.0537
 3064TIP3    H2 9157   6.484   1.136   5.799  0.9722 -1.0337  1.0072
 3065TIP3   OH2 9158   1.865   2.735   4.464 -0.2671 -0.0150  0.0504
 3065TIP3    H1 9159   1.906   2.677   4.400 -1.4915 -0.9222  0.0599
 3065TIP3    H2 9160   1.892   2.823   4.437  2.0425 -0.5886  0.3378
 3066TIP3   OH2 9161   5.528   3.450   2.442  0.2019 -0.4967  0.0374
 3066TIP3    H1 9162   5.472   3.477   2.515  0.5406 -1.1668  0.5519
 3066TIP3    H2 9163   5.616   3.472   2.471  0.4406 -1.6926  0.2739
 3067TIP3   OH2 9164   3.936   1.191   1.313  0.0613  0.5955  0.5762
 3067TIP3    H1 9165   3.845   1.187   1.283 -0.4292 -2.9297  2.0060
 3067TIP3    H2 9166   3.983   1.233   1.241 -2.5007  1.5515 -0.6748
 3068TIP3   OH2 9167   1.407   3.490   5.734 -0.0911 -0.2565 -0.0866
 3068TIP3    H1 9168   1.473   3.475   5.667  0.6243 -0.7503  0.7108
 3068TIP3    H2 9169   1.334   3.434   5.708 -1.1615  1.9417 -2.2127
 3069TIP3   OH2 9170   5.428   5.200   0.936  0.8428 -0.1289  0.4644
 3069TIP3    H1 9171   5.462   5.199   1.025  0.4915 -2.9711  0.6716
 3069TIP3    H2 9172   5.383   5.116   0.927  0.4372  0.2896 -2.2402
 3070TIP3   OH2 9173   4.644   2.157   3.169  0.4084 -0.0413  0.2076
 3070TIP3    H1 9174   4.609   2.129   3.253  1.8574  1.9187  1.5471
 3070TIP3    H2 9175   4.572   2.204   3.127  0.3685  1.0493  1.4478
 3071TIP3   OH2 9176   6.611   3.220   2.379  0.0938  0.0102  0.5710
 3071TIP3    H1 9177   6.547   3.232   2.449  0.2942  1.3509  0.5455
 3071TIP3    H2 9178   6.642   3.308   2.359 -1.1488 -0.0921 -2.3222
 3072TIP3   OH2 9179   6.976   6.468   3.248  0.5614  0.0801  0.0225
 3072TIP3    H1 9180   6.934   6.520   3.179 -1.0486  0.6800  1.3941
 3072TIP3    H2 9181   6.947   6.379   3.232  0.2451  0.2057 -0.1042
 3073TIP3   OH2 9182   4.502   4.091   5.241 -0.0570  0.3375  0.2813
 3073TIP3    H1 9183   4.530   4.047   5.322 -3.1757 -1.9196  0.3093
 3073TIP3    H2 9184   4.498   4.183   5.265 -0.1847 -0.1817  2.5092
 3074TIP3   OH2 9185   6.032   2.302   4.162 -0.3632 -0.8871 -0.2241
 3074TIP3    H1 9186   5.988   2.368   4.108 -2.4595 -1.2438  0.9181
 3074TIP3    H2 9187   6.124   2.309   4.139 -0.7939  1.0541 -1.5917
 3075TIP3   OH2 9188   4.656   4.247   2.365  0.5339 -1.0297  0.4404
 3075TIP3    H1 9189   4.626   4.157   2.378  0.8910 -1.5458 -1.8283
 3075TIP3    H2 9190   4.747   4.238   2.336  0.7440  0.0995  0.7057
 3076TIP3   OH2 9191   6.533   3.411   5.769 -0.2217 -0.0879  0.3855
 3076TIP3    H1 9192   6.598   3.407   5.698  0.5450 -0.0524  1.0742
 3076TIP3    H2 9193   6.486   3.493   5.753 -0.1412 -0.1387 -0.1541
 3077TIP3   OH2 9194   4.741   3.600   3.571  0.1178  0.0423 -0.1905
 3077TIP3    H1 9195   4.738   3.505   3.584 -1.0277  0.3139  2.1490
 3077TIP3    H2 9196   4.807   3.630   3.633 -0.4336  0.8855  0.0015
 3078TIP3   OH2 9197   7.008   4.599   2.670 -0.4835  0.6489  0.0552
 3078TIP3    H1 9198   7.013   4.579   2.577  0.9327  1.5622 -0.0917
 3078TIP3    H2 9199   7.057   4.529   2.713 -1.4298  0.0352  0.1671
 3079TIP3   OH2 9200   3.876   6.744   5.753  0.4892 -0.6774  0.2027
 3079TIP3    H1 9201   3.888   6.820   5.696 -0.3404  0.0053  0.9076
 3079TIP3    H2 9202   3.791   6.709   5.728  0.6391 -1.0623  0.2333
 3080TIP3   OH2 9203   0.251   4.642  -0.009 -0.9599  0.4469  0.6321
 3080TIP3    H1 9204   0.254   4.733  -0.040  0.1035  1.0412  2.3604
 3080TIP3    H2 9205   0.229   4.649   0.084  1.5025 -0.8833  1.3896
 3081TIP3   OH2 9206   3.734   4.426   5.615  0.0627 -0.0777  0.9121
 3081TIP3    H1 9207   3.742   4.492   5.546  0.1580 -0.2873  0.7204
 3081TIP3    H2 9208   3.726   4.343   5.568 -0.6271 -0.1493  1.1363
 3082TIP3   OH2 9209   1.967   5.161   4.566 -0.0086  0.5041  0.0089
 3082TIP3    H1 9210   1.946   5.088   4.624  0.2329 -0.1005 -0.6633
 3082TIP3    H2 9211   2.027   5.215   4.618  1.8683 -1.1013 -0.3753
 3083TIP3   OH2 9212   2.162   6.681   5.031 -0.2601 -0.0520  0.4789
 3083TIP3    H1 9213   2.095   6.664   4.964 -0.6969 -3.1199  1.5421
 3083TIP3    H2 9214   2.138   6.766   5.068 -0.2453  1.5674 -2.8582
 3084TIP3   OH2 9215   4.263   6.482   3.307  0.8810  0.0574  0.1483
 3084TIP3    H1 9216   4.217   6.565   3.295  0.9414  0.0656 -0.0190
 3084TIP3    H2 9217   4.195   6.416   3.292  0.3015  0.0761  2.2879
 3085TIP3   OH2 9218   4.268   3.198   5.747  0.5781 -0.1885 -0.1157
 3085TIP3    H1 9219   4.290   3.193   5.840 -0.0475  0.6253  0.0924
 3085TIP3    H2 9220   4.256   3.107   5.720  0.2500 -0.4083  0.7397
 3086TIP3   OH2 9221   6.788   6.470   2.187 -0.4445  0.0457 -0.2351
 3086TIP3    H1 9222   6.777   6.392   2.240  1.9782 -1.9354 -2.3833
 3086TIP3    H2 9223   6.740   6.451   2.106  0.2241  0.7701 -0.8147
 3087TIP3   OH2 9224   2.173   6.402   4.187  0.5039 -0.1661 -0.2594
 3087TIP3    H1 9225   2.081   6.400   4.211  1.0541 -2.5873  2.0931
 3087TIP3    H2 9226   2.181   6.339   4.115  0.3769  0.0278 -0.4482
 3088TIP3   OH2 9227   1.384   0.318   4.592 -0.6581 -0.1395  0.0154
 3088TIP3    H1 9228   1.434   0.276   4.521 -1.2611 -0.4001 -0.2632
 3088TIP3    H2 9229   1.361   0.247   4.651 -1.4958 -0.1870 -0.3446
 3089TIP3   OH2 9230   0.712   4.386   4.199 -0.3506  0.2806 -0.1569
 3089TIP3    H1 9231   0.725   4.292   4.202  1.8445  0.4243 -2.3213
 3089TIP3    H2 9232   0.777   4.422   4.260 -0.3141  0.4434 -0.2909
 3090TIP3   OH2 9233   2.404   5.105   5.608 -0.2378  0.0852  0.2537
 3090TIP3    H1 9234   2.371   5.097   5.697  0.1417 -2.4331  0.2554
 3090TIP3    H2 9235   2.494   5.137   5.619 -0.5787  0.9398  0.6632
 3091TIP3   OH2 9236   4.194   3.531   4.534  0.1872  0.4160 -0.4755
 3091TIP3    H1 9237   4.168   3.483   4.612  1.0546 -0.8712 -0.9541
 3091TIP3    H2 9238   4.284   3.503   4.517  0.2901  1.2904 -1.4858
 3092TIP3   OH2 9239   6.956   2.888   2.117 -0.4929  0.2881  0.0183
 3092TIP3    H1 9240   6.957   2.960   2.054 -2.0750  0.1369 -0.2235
 3092TIP3    H2 9241   6.901   2.920   2.189  1.1147  0.3770  1.2623
 3093TIP3   OH2 9242   5.829   1.918   2.676  0.0249  0.1121  0.0284
 3093TIP3    H1 9243   5.827   1.939   2.583  1.7390  1.6749  0.2656
 3093TIP3    H2 9244   5.743   1.883   2.695 -0.5639  0.3275 -2.0244
 3094TIP3   OH2 9245   6.981   1.509   1.510  0.6707  0.3222  0.6740
 3094TIP3    H1 9246   6.946   1.429   1.549  0.4933 -0.1769 -0.4803
 3094TIP3    H2 9247   7.017   1.481   1.426 -0.4796  1.6377 -0.3027
 3095TIP3   OH2 9248   4.666   2.559   2.135 -0.0477 -0.1664 -0.0125
 3095TIP3    H1 9249   4.618   2.515   2.065  0.6235 -1.3950  0.2595
 3095TIP3    H2 9250   4.606   2.556   2.210 -0.0473 -0.5494 -0.0240
 3096TIP3   OH2 9251   4.851   0.362   0.691 -0.1669 -0.4959 -0.1996
 3096TIP3    H1 9252   4.899   0.336   0.770  1.2787 -1.6425 -1.3993
 3096TIP3    H2 9253   4.871   0.294   0.627 -0.8058  0.7163 -1.7571
 3097TIP3   OH2 9254   0.477   1.671   1.814  0.0664 -0.3955  0.3049
 3097TIP3    H1 9255   0.426   1.751   1.824  1.1125  0.3844 -0.4041
 3097TIP3    H2 9256   0.435   1.608   1.872  0.8831  1.4419  3.0623
 3098TIP3   OH2 9257   3.306   3.895   3.343  0.2697  0.3796 -0.0615
 3098TIP3    H1 9258   3.272   3.969   3.293 -1.3441  0.7656  1.5373
 3098TIP3    H2 9259   3.257   3.819   3.309 -0.5943  0.5923  0.6918
 3099TIP3   OH2 9260   5.119   2.303   3.488 -0.7682 -0.6248 -0.4950
 3099TIP3    H1 9261   5.175   2.266   3.420 -0.7588  1.3170 -1.6535
 3099TIP3    H2 9262   5.034   2.315   3.445 -1.4760 -1.5523  0.5849
 3100TIP3   OH2 9263   2.182   5.785   4.499 -0.2076  0.1186 -0.1653
 3100TIP3    H1 9264   2.131   5.706   4.479 -1.2029  0.7573 -0.1862
 3100TIP3    H2 9265   2.245   5.791   4.427 -0.3667 -0.4483 -0.3610
 3101TIP3   OH2 9266   3.865   5.282   0.923 -0.2559 -0.1960 -0.0678
 3101TIP3    H1 9267   3.861   5.369   0.961 -0.9372 -0.1180 -0.3094
 3101TIP3    H2 9268   3.820   5.226   0.986 -1.0361 -0.1323 -0.5511
 3102TIP3   OH2 9269   7.095   3.085   3.590 -0.6738  0.2379 -0.0129
 3102TIP3    H1 9270   7.024   3.035   3.630  1.1264 -2.4511  0.0685
 3102TIP3    H2 9271   7.173   3.058   3.637  0.6154  2.1813 -0.8916
 3103TIP3   OH2 9272   6.062   6.304   0.555 -0.1802  0.8514  0.3524
 3103TIP3    H1 9273   6.053   6.265   0.642 -0.8310  0.5180  0.1405
 3103TIP3    H2 9274   6.009   6.248   0.498 -1.0114  1.9466  0.0153
 3104TIP3   OH2 9275   6.041   4.282   5.306  0.3155  0.1092 -0.0150
 3104TIP3    H1 9276   5.960   4.257   5.350  0.8385  1.0583  1.5673
 3104TIP3    H2 9277   6.082   4.198   5.282  0.0499 -0.4699  1.4205
 3105TIP3   OH2 9278   0.524   4.719   2.004  0.3094 -0.0979 -0.7405
 3105TIP3    H1 9279   0.576   4.786   2.049  0.7721 -2.4827  2.7108
 3105TIP3    H2 9280   0.437   4.757   1.996  0.0711  0.4386  2.8219
 3106TIP3   OH2 9281   5.249   0.532   4.262  0.3051 -0.1296  0.6585
 3106TIP3    H1 9282   5.229   0.482   4.182  1.0385 -1.3151  1.1858
 3106TIP3    H2 9283   5.340   0.510   4.281 -0.1297 -0.5761  2.3259
 3107TIP3   OH2 9284   2.213   5.475   0.357  0.1678  0.1847  0.2126
 3107TIP3    H1 9285   2.266   5.554   0.348 -0.6673  0.6542 -0.8027
 3107TIP3    H2 9286   2.233   5.424   0.278 -0.6349  0.2227 -0.0206
 3108TIP3   OH2 9287   3.090   4.083   4.038 -0.3396  0.2608  0.6862
 3108TIP3    H1 9288   3.010   4.128   4.065 -0.6804 -1.0522  2.0185
 3108TIP3    H2 9289   3.152   4.099   4.108  0.2028  0.3459  0.1925
 3109TIP3   OH2 9290   5.315   2.071   1.343  0.1051 -0.2583 -0.3969
 3109TIP3    H1 9291   5.228   2.049   1.312 -0.2796  0.8405 -0.1341
 3109TIP3    H2 9292   5.302   2.106   1.431  0.9532 -1.2430  0.1601
 3110TIP3   OH2 9293   6.712   5.396   3.890  0.2032  0.3784  0.1963
 3110TIP3    H1 9294   6.747   5.368   3.806  0.6491 -0.2445  0.5832
 3110TIP3    H2 9295   6.661   5.322   3.921 -0.0972  0.6652  0.4032
 3111TIP3   OH2 9296   2.972   3.406   0.809 -0.2958  0.2921 -0.0546
 3111TIP3    H1 9297   2.938   3.344   0.874 -1.3888  0.7800 -0.1325
 3111TIP3    H2 9298   3.064   3.382   0.798 -0.5555 -0.9420  0.3380
 3112TIP3   OH2 9299   1.893   2.652   1.648  0.2067 -0.2542 -0.2338
 3112TIP3    H1 9300   1.877   2.597   1.725  0.9572 -0.1926 -0.0315
 3112TIP3    H2 9301   1.836   2.615   1.581 -2.0017  0.8848  0.8550
 3113TIP3   OH2 9302   4.701   0.762   5.461 -0.0324  0.5519  0.1236
 3113TIP3    H1 9303   4.772   0.820   5.433  0.4469 -0.4001 -0.6745
 3113TIP3    H2 9304   4.695   0.696   5.392 -0.4432 -0.4578  1.0892
 3114TIP3   OH2 9305   4.897   3.993   1.558 -0.3991  0.4175  0.2003
 3114TIP3    H1 9306   4.830   3.981   1.625  1.2855  1.3143  2.1559
 3114TIP3    H2 9307   4.939   3.908   1.551 -0.2526  0.4496  0.6681
 3115TIP3   OH2 9308   2.732   3.064   1.256 -0.5545 -0.0653 -0.6705
 3115TIP3    H1 9309   2.729   3.060   1.351 -0.1430 -1.1053 -0.6784
 3115TIP3    H2 9310   2.789   3.137   1.236  0.1950 -0.4865 -0.0955
 3116TIP3   OH2 9311   2.375   5.559   3.770 -0.0668 -0.3816 -0.0916
 3116TIP3    H1 9312   2.345   5.609   3.694  1.1172 -1.9299 -1.6884
 3116TIP3    H2 9313   2.421   5.623   3.824  0.9094  0.4142 -1.7703
 3117TIP3   OH2 9314   6.572   4.967   0.973  0.3397 -0.4294 -0.3087
 3117TIP3    H1 9315   6.569   4.878   0.939 -0.2500 -0.4640 -0.1669
 3117TIP3    H2 9316   6.519   5.018   0.912  1.3333 -0.0143 -0.8480
 3118TIP3   OH2 9317   5.770   0.957   4.957  0.5721 -0.1840 -0.1007
 3118TIP3    H1 9318   5.683   0.941   4.994  0.5879  1.3673  0.7340
 3118TIP3    H2 9319   5.815   1.006   5.026  0.3978  3.4515 -2.3305
 3119TIP3   OH2 9320   0.562   5.482   3.058 -0.0093  0.2287 -0.2126
 3119TIP3    H1 9321   0.475   5.455   3.028 -0.8952  2.7669 -0.1927
 3119TIP3    H2 9322   0.603   5.519   2.980  0.7452 -0.1631 -0.0098
 3120TIP3   OH2 9323   5.545   1.783   1.954  0.0154  0.4076 -0.5454
 3120TIP3    H1 9324   5.495   1.744   1.882 -0.2663 -0.7518  0.2410
 3120TIP3    H2 9325   5.498   1.863   1.976 -0.6711  0.0703 -0.7609
 3121TIP3   OH2 9326   1.550   5.373   1.807  0.0420  0.3764  0.3285
 3121TIP3    H1 9327   1.552   5.382   1.712  0.1026  0.2383  0.3166
 3121TIP3    H2 9328   1.460   5.393   1.831 -0.0628  0.0567  0.2072
 3122TIP3   OH2 9329   3.289   3.196   4.011 -0.0381 -0.0364 -0.1104
 3122TIP3    H1 9330   3.288   3.154   4.097 -0.0804 -0.4330 -0.3015
 3122TIP3    H2 9331   3.357   3.262   4.017 -0.1521  0.0479  0.2817
 3123TIP3   OH2 9332   3.567   2.032   4.066 -0.9058  0.5230 -0.2771
 3123TIP3    H1 9333   3.580   1.963   4.002 -2.2259  0.9271 -1.0304
 3123TIP3    H2 9334   3.517   1.991   4.136 -0.8964  0.4798 -0.2960
 3124TIP3   OH2 9335   1.964   1.745   3.788  0.2497  0.3143  0.4473
 3124TIP3    H1 9336   1.873   1.775   3.794  0.0049 -0.3859  0.3075
 3124TIP3    H2 9337   1.974   1.684   3.862  1.0272  1.4446  1.3105
 3125TIP3   OH2 9338   4.225   2.110   2.042 -0.2550  0.5884  0.2783
 3125TIP3    H1 9339   4.175   2.041   2.086 -1.4782  1.8696  0.9888
 3125TIP3    H2 9340   4.258   2.164   2.114 -1.2151  1.9987 -0.3098
 3126TIP3   OH2 9341   4.410   4.190   4.548 -0.1402  0.4028  0.1147
 3126TIP3    H1 9342   4.360   4.272   4.555 -0.2152  0.3475  0.2151
 3126TIP3    H2 9343   4.480   4.199   4.613 -1.0755 -0.2836  1.2468
 3127TIP3   OH2 9344   2.605   6.008   0.115 -0.4857 -0.2790 -0.0326
 3127TIP3    H1 9345   2.677   5.950   0.087  0.0221  0.2313  0.1940
 3127TIP3    H2 9346   2.582   6.056   0.036  0.9062  1.1158  0.3587
 3128TIP3   OH2 9347   6.155   1.904   5.831 -0.3783 -0.2900  0.2532
 3128TIP3    H1 9348   6.078   1.933   5.783  0.9846  0.4427 -1.6149
 3128TIP3    H2 9349   6.193   1.984   5.867  0.9072 -0.2505 -1.0798
 3129TIP3   OH2 9350   0.101   1.545   1.549 -0.3240  0.0320  0.4722
 3129TIP3    H1 9351   0.061   1.597   1.479  0.1420 -0.4577 -0.1591
 3129TIP3    H2 9352   0.195   1.552   1.534 -0.2599 -0.9927  0.3839
 3130TIP3   OH2 9353   6.261   3.078   5.383 -0.3929 -0.2181 -0.2024
 3130TIP3    H1 9354   6.178   3.048   5.420  0.5473 -1.4123  1.0346
 3130TIP3    H2 9355   6.301   3.130   5.453  0.2084 -0.2354 -0.5296
 3131TIP3   OH2 9356   6.088   2.286   5.043 -0.0052  0.1152 -0.6811
 3131TIP3    H1 9357   6.088   2.202   5.089  0.4582  0.7912  0.6154
 3131TIP3    H2 9358   6.024   2.275   4.973 -0.9706 -0.8718  0.3130
 3132TIP3   OH2 9359   1.684   1.566   0.710  0.1639  0.2786  0.1304
 3132TIP3    H1 9360   1.703   1.568   0.616 -0.4252 -1.8354 -0.0703
 3132TIP3    H2 9361   1.627   1.490   0.722  0.8435  0.0435  2.3199
 3133TIP3   OH2 9362   6.786   3.319   3.720  0.7243  0.2573  0.0508
 3133TIP3    H1 9363   6.712   3.259   3.711  0.1187  0.9177  0.5060
 3133TIP3    H2 9364   6.807   3.344   3.630  0.6516 -0.2320 -0.1088
 3134TIP3   OH2 9365   4.207   3.471   2.274 -0.3980 -0.1522 -0.1121
 3134TIP3    H1 9366   4.226   3.481   2.368 -0.2345  3.0534 -0.3498
 3134TIP3    H2 9367   4.174   3.382   2.265  1.7753 -1.3818  2.5795
 3135TIP3   OH2 9368   6.796   1.593   5.886  0.0069  0.7224 -0.0268
 3135TIP3    H1 9369   6.858   1.632   5.948  1.6537 -2.6973  0.7235
 3135TIP3    H2 9370   6.831   1.616   5.800  1.3212  0.3388  0.3796
 3136TIP3   OH2 9371   2.110   6.157   5.352  0.5885  0.0327 -1.0740
 3136TIP3    H1 9372   2.177   6.222   5.329 -0.1105  1.1981  0.0669
 3136TIP3    H2 9373   2.158   6.074   5.354  2.3101  0.9622  0.8406
 3137TIP3   OH2 9374   6.586   3.500   4.351 -0.0163  0.3042 -0.2613
 3137TIP3    H1 9375   6.563   3.431   4.288 -1.4359  2.5417 -2.3825
 3137TIP3    H2 9376   6.674   3.527   4.324 -0.4745  1.0072 -1.0885
 3138TIP3   OH2 9377   2.570   0.901   2.894 -0.5182  0.3298 -0.1097
 3138TIP3    H1 9378   2.517   0.965   2.846 -1.1059  0.3865  0.6010
 3138TIP3    H2 9379   2.522   0.819   2.886 -1.1074  0.5327  1.1473
 3139TIP3   OH2 9380   2.234   5.350   4.380 -0.2416  0.0138 -0.1309
 3139TIP3    H1 9381   2.252   5.264   4.418 -0.1554  0.6985  1.4901
 3139TIP3    H2 9382   2.204   5.332   4.291  1.0356 -1.6088 -0.2875
 3140TIP3   OH2 9383   0.683   6.101   2.782  0.3178 -0.1977 -0.1955
 3140TIP3    H1 9384   0.661   6.139   2.868 -0.7773 -0.2555 -0.4362
 3140TIP3    H2 9385   0.719   6.174   2.733  0.2947  0.0093  0.0893
 3141TIP3   OH2 9386   5.413   1.500   2.665 -0.2817 -0.6157 -0.5027
 3141TIP3    H1 9387   5.368   1.552   2.732  0.3566  1.6465 -1.7296
 3141TIP3    H2 9388   5.343   1.449   2.624 -1.5229  1.5456 -1.2343
 3142TIP3   OH2 9389   6.353   0.284   1.342 -0.0733 -0.0411  0.0863
 3142TIP3    H1 9390   6.342   0.334   1.423 -0.5572 -0.3404  0.2102
 3142TIP3    H2 9391   6.328   0.195   1.366 -0.3279 -0.1068 -0.4190
 3143TIP3   OH2 9392   5.921   5.700   0.627  0.4040 -0.5604 -0.5557
 3143TIP3    H1 9393   5.845   5.684   0.572 -0.2473 -0.9881  0.4500
 3143TIP3    H2 9394   5.949   5.789   0.603 -0.4169 -0.3867 -0.9070
 3144TIP3   OH2 9395   1.454   5.008   4.966 -0.2093  0.6242  0.4618
 3144TIP3    H1 9396   1.534   5.057   4.951 -0.5680  1.0673 -0.0354
 3144TIP3    H2 9397   1.407   5.058   5.033 -0.5778  0.9700 -0.0502
 3145TIP3   OH2 9398   1.056   3.400   2.577 -0.5868 -1.1060 -0.2002
 3145TIP3    H1 9399   1.082   3.362   2.493  0.1843 -1.6295  0.2653
 3145TIP3    H2 9400   0.961   3.403   2.573 -0.5192  1.4243 -2.2006
 3146TIP3   OH2 9401   4.095   0.076   5.746 -0.7558  0.9196  0.5199
 3146TIP3    H1 9402   4.002   0.088   5.762 -1.0216 -1.5250  1.2223
 3146TIP3    H2 9403   4.117  -0.004   5.793  0.4717 -1.7147 -3.9188
 3147TIP3   OH2 9404   3.148   5.089   3.663 -0.6141  0.3642  0.5662
 3147TIP3    H1 9405   3.077   5.084   3.727 -0.9470  1.9295  0.3650
 3147TIP3    H2 9406   3.126   5.023   3.597 -2.6938  1.7448 -0.2356
 3148TIP3   OH2 9407   4.958   4.540   1.067  0.4285  0.2968  0.2266
 3148TIP3    H1 9408   4.929   4.467   1.011 -1.2838  0.5091  0.7716
 3148TIP3    H2 9409   4.993   4.604   1.006  0.0263 -0.1216 -0.4636
 3149TIP3   OH2 9410   4.915   0.397   3.740  0.2815 -0.4937  0.4640
 3149TIP3    H1 9411   4.908   0.370   3.832 -0.2698  1.2521  0.9735
 3149TIP3    H2 9412   4.959   0.481   3.743  1.0367 -0.8054 -0.9694
 3150TIP3   OH2 9413   6.186   5.510   5.661 -0.2456  0.0100 -0.4870
 3150TIP3    H1 9414   6.139   5.523   5.743  2.5299  0.5587  1.1258
 3150TIP3    H2 9415   6.147   5.431   5.624 -2.6700  0.6547  0.4831
 3151TIP3   OH2 9416   0.142   4.716   3.432  0.0771  0.2368  0.2594
 3151TIP3    H1 9417   0.119   4.807   3.450  0.5292  0.4466 -0.2048
 3151TIP3    H2 9418   0.188   4.719   3.348 -0.4218 -0.4928 -0.0537
 3152TIP3   OH2 9419   2.503   4.027   5.834  0.4839 -0.0635  0.2319
 3152TIP3    H1 9420   2.526   3.938   5.809  0.3053 -0.4511  1.3771
 3152TIP3    H2 9421   2.463   4.018   5.921  0.4208  1.1240  0.3449
 3153TIP3   OH2 9422   5.478   3.649   0.159 -0.3612 -0.2173  0.1966
 3153TIP3    H1 9423   5.433   3.576   0.203  1.3752 -1.9287 -0.7086
 3153TIP3    H2 9424   5.568   3.618   0.147 -0.1840  1.0535 -2.4762
 3154TIP3   OH2 9425   7.069   5.939   1.244 -0.1884  0.3060 -0.0292
 3154TIP3    H1 9426   7.063   5.851   1.205 -0.5523  0.0288  0.6334
 3154TIP3    H2 9427   7.153   5.972   1.214  0.5249 -0.7629  0.6809
 3155TIP3   OH2 9428   4.104   0.377   4.202 -0.3658  0.2809 -0.2072
 3155TIP3    H1 9429   4.170   0.310   4.217  0.0749  0.6432 -0.4737
 3155TIP3    H2 9430   4.147   0.440   4.144 -1.7805 -0.7452 -2.5088
 3156TIP3   OH2 9431   6.335   0.699   5.544 -0.0992  0.2006 -0.1226
 3156TIP3    H1 9432   6.287   0.753   5.606  0.7853  1.6971 -0.6940
 3156TIP3    H2 9433   6.419   0.744   5.532 -0.2926  0.0446 -2.4884
 3157TIP3   OH2 9434   3.916   2.024   3.189 -0.0769 -0.0285 -0.2173
 3157TIP3    H1 9435   3.955   1.944   3.155  0.4662 -0.7260  1.8534
 3157TIP3    H2 9436   3.984   2.090   3.177  1.2448 -0.8814  1.8652
 3158TIP3   OH2 9437   5.273   5.819   0.668 -0.0957  0.5259  0.2560
 3158TIP3    H1 9438   5.261   5.909   0.699 -2.7805  0.7219 -1.0267
 3158TIP3    H2 9439   5.184   5.788   0.648  0.7177 -2.4628  0.6975
 3159TIP3   OH2 9440   1.548   0.276   1.851  0.0783 -0.0884 -0.3146
 3159TIP3    H1 9441   1.610   0.273   1.779  0.4954 -1.0051  0.0640
 3159TIP3    H2 9442   1.573   0.353   1.902  1.0472 -0.5631 -0.0510
 3160TIP3   OH2 9443   4.121   6.048   5.128 -0.1633  0.2476 -0.9339
 3160TIP3    H1 9444   4.089   6.012   5.045  1.4802 -2.2354 -0.5900
 3160TIP3    H2 9445   4.100   5.981   5.193  0.2405  1.3272  0.3397
 3161TIP3   OH2 9446   4.548   4.026   4.791  0.3213 -0.1261 -0.4027
 3161TIP3    H1 9447   4.466   4.039   4.838 -0.6093 -3.5326 -0.8328
 3161TIP3    H2 9448   4.543   3.936   4.758  4.5019 -0.7041  0.0478
 3162TIP3   OH2 9449   4.719   4.537   1.628  0.0359  0.0277 -0.7308
 3162TIP3    H1 9450   4.705   4.443   1.612 -1.0611  0.3778 -2.0497
 3162TIP3    H2 9451   4.793   4.540   1.688  0.9789 -1.6427 -1.7122
 3163TIP3   OH2 9452   5.904   5.243   3.966 -0.4961  0.5262 -0.1059
 3163TIP3    H1 9453   5.893   5.240   3.871  1.7649 -0.0867 -0.4219
 3163TIP3    H2 9454   5.837   5.304   3.997 -2.5359 -0.6861 -1.8550
 3164TIP3   OH2 9455   4.256   0.470   1.453 -0.7059 -0.0977 -0.2048
 3164TIP3    H1 9456   4.265   0.559   1.486 -0.0053 -0.3922  0.4443
 3164TIP3    H2 9457   4.291   0.473   1.364  2.1115 -0.3030  0.7970
 3165TIP3   OH2 9458   4.803   0.160   0.919  0.3369  0.1739  0.2279
 3165TIP3    H1 9459   4.730   0.199   0.870  0.2102 -0.9600 -0.5256
 3165TIP3    H2 9460   4.850   0.234   0.956  0.5179  1.1002 -1.7421
 3166TIP3   OH2 9461   5.418   6.622   5.363 -0.4212  0.0284  0.2648
 3166TIP3    H1 9462   5.457   6.648   5.446 -0.4192  0.0584  0.2550
 3166TIP3    H2 9463   5.384   6.534   5.378 -0.6446  0.1311  0.3713
 3167TIP3   OH2 9464   1.858   1.051   5.671 -0.1039  0.2256 -0.0645
 3167TIP3    H1 9465   1.934   1.012   5.628  1.1561  2.1921  0.2503
 3167TIP3    H2 9466   1.878   1.144   5.674 -2.5508  0.8085  0.0559
 3168TIP3   OH2 9467   6.672   1.943   3.203  0.3853 -0.3297  0.0937
 3168TIP3    H1 9468   6.682   1.855   3.167 -0.4769  0.2239 -1.5884
 3168TIP3    H2 9469   6.578   1.951   3.222  0.5931 -0.0736  1.0529
 3169TIP3   OH2 9470   1.664   4.161   1.586  0.2189  0.2288  0.0729
 3169TIP3    H1 9471   1.620   4.076   1.579 -0.9326  0.7691  0.5403
 3169TIP3    H2 9472   1.756   4.139   1.602  0.1195 -0.9279 -0.8050
 3170TIP3   OH2 9473   3.718   2.894   1.220  0.0753  0.1751 -0.1879
 3170TIP3    H1 9474   3.764   2.849   1.290 -1.1758 -1.6761 -0.4841
 3170TIP3    H2 9475   3.780   2.898   1.148  0.6993  0.3038  0.3470
 3171TIP3   OH2 9476   1.031   5.449   2.988  0.0767 -0.6556 -0.1390
 3171TIP3    H1 9477   1.088   5.445   2.911 -1.7957  1.5127 -1.7991
 3171TIP3    H2 9478   1.071   5.516   3.044  0.5161 -1.0025 -0.0284
 3172TIP3   OH2 9479   3.856   6.467   1.668  0.7719  0.7414  0.4010
 3172TIP3    H1 9480   3.830   6.559   1.657  1.7447  0.8957 -1.0434
 3172TIP3    H2 9481   3.950   6.472   1.687  1.0943  0.0288 -0.8949
 3173TIP3   OH2 9482   1.233   4.006   3.363  0.0860 -0.2391 -0.3266
 3173TIP3    H1 9483   1.207   4.096   3.349  0.7266 -0.1523 -1.0422
 3173TIP3    H2 9484   1.152   3.956   3.360 -0.0585  0.0601 -2.1245
 3174TIP3   OH2 9485   0.321   1.971   0.256 -0.0276  0.1574 -0.4597
 3174TIP3    H1 9486   0.238   1.969   0.303 -0.6273 -0.3413 -1.5172
 3174TIP3    H2 9487   0.300   1.942   0.168  0.5841  3.4433 -1.8321
 3175TIP3   OH2 9488   4.159   5.441   1.393  0.0137 -0.1950 -0.4577
 3175TIP3    H1 9489   4.237   5.439   1.450  0.1124 -0.3966 -0.5976
 3175TIP3    H2 9490   4.099   5.500   1.437 -0.4009 -1.3023  0.5034
 3176TIP3   OH2 9491   0.975   5.501   4.467  0.5964  0.3789 -0.3259
 3176TIP3    H1 9492   0.981   5.586   4.511  2.7454 -0.2529  0.7292
 3176TIP3    H2 9493   0.999   5.519   4.376 -1.7202  1.3098 -0.8398
 3177TIP3   OH2 9494   0.053   2.494   3.408  0.3352 -0.4103  0.0905
 3177TIP3    H1 9495   0.051   2.470   3.501  0.9661  1.2311  0.5719
 3177TIP3    H2 9496  -0.028   2.544   3.394  1.4851  1.7212  0.5211
 3178TIP3   OH2 9497   1.774   3.096   4.095 -0.0785  0.2022  0.0779
 3178TIP3    H1 9498   1.784   3.160   4.025 -1.7605  2.1847  1.5487
 3178TIP3    H2 9499   1.801   3.142   4.174 -0.4842 -1.2067  1.0704
 3179TIP3   OH2 9500   7.208   3.148   4.727 -0.1674 -0.0056 -0.4157
 3179TIP3    H1 9501   7.149   3.222   4.713 -3.3216 -2.3411 -0.5838
 3179TIP3    H2 9502   7.186   3.086   4.657  4.0799 -0.2608 -1.8116
 3180TIP3   OH2 9503   4.899   4.532   1.916  0.0991 -0.5359 -0.4023
 3180TIP3    H1 9504   4.921   4.515   2.007 -0.5281  0.0565 -0.1284
 3180TIP3    H2 9505   4.832   4.601   1.920  0.5975  0.0317 -1.3343
 3181TIP3   OH2 9506   1.989   4.142   1.277 -0.4577  0.1892  0.3035
 3181TIP3    H1 9507   1.983   4.208   1.346 -2.5955  1.1519 -0.7107
 3181TIP3    H2 9508   1.905   4.096   1.281  1.5621 -3.8506  2.1490
 3182TIP3   OH2 9509   6.563   0.927   3.614 -0.5720 -0.1867  0.1439
 3182TIP3    H1 9510   6.648   0.882   3.619  0.7590  2.2224  1.0937
 3182TIP3    H2 9511   6.582   1.008   3.565 -1.8949  1.2121  1.8119
 3183TIP3   OH2 9512   6.024   0.818   5.110  0.2487 -0.6639  0.5387
 3183TIP3    H1 9513   6.027   0.841   5.203 -1.2557 -0.4746  0.5506
 3183TIP3    H2 9514   6.095   0.868   5.071  0.4323 -0.1807  1.4605
 3184TIP3   OH2 9515   2.460   4.461   5.073 -0.0553 -0.2546  0.1157
 3184TIP3    H1 9516   2.513   4.521   5.021  1.6507 -0.8769  1.0672
 3184TIP3    H2 9517   2.467   4.494   5.163 -0.9828 -0.5830  0.3272
 3185TIP3   OH2 9518   3.628   4.057   3.870  0.3699  0.0748  0.1605
 3185TIP3    H1 9519   3.665   4.100   3.793 -0.1107 -1.5040 -1.0029
 3185TIP3    H2 9520   3.534   4.071   3.862  0.4501  2.5289  2.1554
 3186TIP3   OH2 9521   6.056   4.402   1.597  0.3712  0.1355  0.2156
 3186TIP3    H1 9522   6.149   4.409   1.575  0.4236 -0.2903  0.2899
 3186TIP3    H2 9523   6.012   4.392   1.513  0.2689  1.5150  0.0853
 3187TIP3   OH2 9524   2.799   2.430   0.669  0.1384 -0.3239 -0.1308
 3187TIP3    H1 9525   2.788   2.524   0.684 -1.2871 -0.5351  0.3119
 3187TIP3    H2 9526   2.882   2.408   0.713  0.2684  0.6358  0.1289
 3188TIP3   OH2 9527   6.418   3.855   2.527 -0.4031 -0.2766  0.4986
 3188TIP3    H1 9528   6.361   3.870   2.452 -2.6119 -1.4984  1.8101
 3188TIP3    H2 9529   6.467   3.776   2.505  1.0170  0.8862 -0.7193
 3189TIP3   OH2 9530   0.661   3.431   4.959 -0.5793  0.1229  0.1495
 3189TIP3    H1 9531   0.738   3.487   4.970 -0.5048 -0.0155  0.3262
 3189TIP3    H2 9532   0.633   3.446   4.868  0.6901 -1.1354 -0.4851
 3190TIP3   OH2 9533   2.248   0.037   5.774 -0.0234  0.4627  0.0481
 3190TIP3    H1 9534   2.204  -0.047   5.765  1.5834 -0.2668 -1.9188
 3190TIP3    H2 9535   2.182   0.102   5.751 -0.6497 -0.4562 -0.8651
 3191TIP3   OH2 9536   0.016   2.504   0.883  0.5068  0.4225  0.1857
 3191TIP3    H1 9537   0.033   2.585   0.834  2.6439  0.1120  0.3186
 3191TIP3    H2 9538   0.102   2.466   0.897 -0.3217 -1.0899  1.5271
 3192TIP3   OH2 9539   5.524   6.580   0.629 -0.1708  0.0892  0.4584
 3192TIP3    H1 9540   5.514   6.548   0.718 -0.4486  0.8291  0.6996
 3192TIP3    H2 9541   5.618   6.585   0.615 -0.0999 -1.4768  0.1683
 3193TIP3   OH2 9542   4.458   6.370   3.127  0.5093  0.2725 -0.2893
 3193TIP3    H1 9543   4.456   6.392   3.034  1.7467  2.6009  0.1388
 3193TIP3    H2 9544   4.394   6.430   3.167  0.8730  0.1520  0.4904
 3194TIP3   OH2 9545   2.833   3.521   3.174 -0.7853  0.2164 -0.0854
 3194TIP3    H1 9546   2.827   3.425   3.173  0.0012  0.1709 -0.6871
 3194TIP3    H2 9547   2.915   3.541   3.129 -0.6472  1.1570  0.5554
 3195TIP3   OH2 9548   0.985   0.636   2.275 -0.1399  0.4023  0.3652
 3195TIP3    H1 9549   1.038   0.625   2.353 -0.9022 -2.3030  0.6172
 3195TIP3    H2 9550   0.955   0.727   2.278  0.6201  0.6299  2.6943
 3196TIP3   OH2 9551   3.119   3.392   3.222 -0.0804  0.0912 -0.0533
 3196TIP3    H1 9552   3.060   3.447   3.273 -2.5264 -2.4298  0.0252
 3196TIP3    H2 9553   3.207   3.426   3.243 -1.3530  4.3923 -0.6433
 3197TIP3   OH2 9554   1.712   2.674   1.049 -0.0681 -0.0783  0.4426
 3197TIP3    H1 9555   1.703   2.606   1.115 -1.8999  0.6106  0.9503
 3197TIP3    H2 9556   1.786   2.646   0.995 -0.8474 -2.5084  0.5587
 3198TIP3   OH2 9557   0.134   4.811   5.094 -0.6149 -0.6604 -0.1374
 3198TIP3    H1 9558   0.135   4.767   5.179 -1.3548 -0.4725 -0.0266
 3198TIP3    H2 9559   0.226   4.823   5.072 -0.3359  1.9964  2.0201
 3199TIP3   OH2 9560   5.754   2.665   5.549  0.0762  0.3558 -0.5216
 3199TIP3    H1 9561   5.766   2.592   5.488  0.1468 -0.3136  0.2729
 3199TIP3    H2 9562   5.660   2.663   5.570 -0.0920  1.0526 -1.1710
 3200TIP3   OH2 9563   0.069   4.958   3.562 -0.4690 -0.0227 -0.1246
 3200TIP3    H1 9564  -0.018   4.932   3.593 -0.0579  0.3088  1.3529
 3200TIP3    H2 9565   0.128   4.937   3.634  0.9017 -1.3733 -1.5474
 3201TIP3   OH2 9566   5.439   6.451   1.105 -0.0138  0.0537 -0.4591
 3201TIP3    H1 9567   5.473   6.433   1.193 -2.3302  0.7118  0.6487
 3201TIP3    H2 9568   5.367   6.389   1.094  0.4007 -0.1824 -2.0164
 3202TIP3   OH2 9569   3.309   1.045   2.324 -0.7985  0.5611  0.1285
 3202TIP3    H1 9570   3.250   1.008   2.390  0.3034 -0.4959  0.5789
 3202TIP3    H2 9571   3.381   1.084   2.375  1.1921 -2.1640 -0.3336
 3203TIP3   OH2 9572   6.475   5.504   1.299  0.0941  0.3852 -0.2925
 3203TIP3    H1 9573   6.500   5.413   1.317 -1.6446 -0.5124 -2.0606
 3203TIP3    H2 9574   6.518   5.554   1.369  2.2713 -1.5905 -0.0712
 3204TIP3   OH2 9575   4.110   1.611   0.639 -0.0166  0.2241 -0.2758
 3204TIP3    H1 9576   4.041   1.601   0.705 -0.2496 -1.9531 -0.7743
 3204TIP3    H2 9577   4.191   1.619   0.689 -0.1314 -1.9141  0.3336
 3205TIP3   OH2 9578   3.939   0.287   3.992 -0.0121 -0.1410  0.1882
 3205TIP3    H1 9579   3.981   0.335   4.063  0.4749  1.0196 -0.8625
 3205TIP3    H2 9580   3.893   0.353   3.941  1.4852 -0.5987 -1.8694
 3206TIP3   OH2 9581   4.421   5.975   2.549  0.0949  0.0925 -0.1530
 3206TIP3    H1 9582   4.507   5.936   2.565 -0.6535 -0.8892  1.7688
 3206TIP3    H2 9583   4.358   5.912   2.585 -1.3825  1.2091 -0.6636
 3207TIP3   OH2 9584   5.980   4.376   4.442 -0.3079 -0.0078 -0.9208
 3207TIP3    H1 9585   5.966   4.289   4.406  0.7570 -0.0069 -1.3621
 3207TIP3    H2 9586   6.039   4.362   4.516  0.2895  0.3957 -1.3169
 3208TIP3   OH2 9587   3.974   5.224   0.489 -0.5072 -0.2849 -0.0580
 3208TIP3    H1 9588   4.045   5.190   0.436  1.5025  2.3463  0.7347
 3208TIP3    H2 9589   3.992   5.194   0.577 -1.3581 -0.9615 -0.0937
 3209TIP3   OH2 9590   4.336   4.827   1.114  0.5084 -0.4703 -0.2972
 3209TIP3    H1 9591   4.265   4.847   1.175  0.7260 -0.3725 -0.0715
 3209TIP3    H2 9592   4.293   4.788   1.038  0.2023 -0.2842 -0.2199
 3210TIP3   OH2 9593   5.550   0.993   3.017  0.0212  0.2462  0.4212
 3210TIP3    H1 9594   5.578   0.960   2.932  2.6672  0.4842  1.1205
 3210TIP3    H2 9595   5.510   0.917   3.059 -0.5467 -0.0987 -0.6924
 3211TIP3   OH2 9596   6.792   3.754   4.940  0.2293 -0.0515  0.3743
 3211TIP3    H1 9597   6.881   3.729   4.914  0.4981 -0.3953  1.5543
 3211TIP3    H2 9598   6.756   3.798   4.863  0.6882 -1.7295 -0.8598
 3212TIP3   OH2 9599   5.130   3.866   4.617 -0.2897  0.4302 -0.1891
 3212TIP3    H1 9600   5.178   3.813   4.553 -1.4483 -1.6211  0.5558
 3212TIP3    H2 9601   5.043   3.878   4.577  0.3244  3.0056 -0.9507
 3213TIP3   OH2 9602   2.561   6.685   3.179 -0.1711  0.3770  0.1869
 3213TIP3    H1 9603   2.627   6.720   3.239  0.3506  0.3118 -0.3378
 3213TIP3    H2 9604   2.478   6.692   3.227  0.1865  0.6570  0.7711
 3214TIP3   OH2 9605   2.006   6.069   0.367  0.2590 -0.2676 -0.4550
 3214TIP3    H1 9606   2.016   6.163   0.353  1.2793 -0.4139 -0.7872
 3214TIP3    H2 9607   2.080   6.030   0.321 -0.2476 -1.2499 -0.4556
 3215TIP3   OH2 9608   0.301   6.785   4.515 -0.5697  0.1147  0.0712
 3215TIP3    H1 9609   0.207   6.775   4.500 -0.4550 -0.3830 -0.3170
 3215TIP3    H2 9610   0.325   6.712   4.572 -0.3833  0.1580  0.0493
 3216TIP3   OH2 9611   4.415   5.782   5.294 -0.8166 -0.3914  0.4270
 3216TIP3    H1 9612   4.509   5.767   5.310 -0.5486 -1.8291 -2.0415
 3216TIP3    H2 9613   4.396   5.864   5.340  1.2550 -0.8295  2.2615
 3217TIP3   OH2 9614   0.727   4.508   1.547  0.5968  0.2901 -0.2642
 3217TIP3    H1 9615   0.664   4.490   1.477  1.2205 -0.9150 -0.5374
 3217TIP3    H2 9616   0.674   4.517   1.626 -0.1821  2.3105 -0.9626
 3218TIP3   OH2 9617   6.156   4.557   5.308  0.6523 -0.2026  0.3907
 3218TIP3    H1 9618   6.159   4.461   5.305  0.0453 -0.2151  0.0736
 3218TIP3    H2 9619   6.068   4.577   5.341  1.0273  0.2334  1.1363
 3219TIP3   OH2 9620   3.913   3.020   2.798 -0.3342  0.8096  0.1080
 3219TIP3    H1 9621   3.844   2.954   2.805 -1.0695  1.5516  0.0891
 3219TIP3    H2 9622   3.989   2.972   2.765 -0.9183  0.0241 -0.1320
 3220TIP3   OH2 9623   3.165   3.832   3.627  0.2086  0.1861  0.1210
 3220TIP3    H1 9624   3.239   3.780   3.659 -0.1937 -0.9636 -0.7748
 3220TIP3    H2 9625   3.191   3.859   3.539 -0.8527 -1.1457 -0.6363
 3221TIP3   OH2 9626   1.062   1.790   5.612 -0.1067  0.2029 -0.2944
 3221TIP3    H1 9627   0.969   1.775   5.629  0.0190  0.3684  0.5600
 3221TIP3    H2 9628   1.073   1.885   5.620  0.5598 -0.0040  1.9500
 3222TIP3   OH2 9629   2.876   1.098   0.499 -0.3677  0.1343 -0.0755
 3222TIP3    H1 9630   2.859   1.017   0.452 -2.6959 -0.3865  1.4786
 3222TIP3    H2 9631   2.852   1.167   0.437 -2.8797 -0.5151  0.0932
 3223TIP3   OH2 9632   7.172   1.675   0.003 -0.3022  0.5255 -0.1371
 3223TIP3    H1 9633   7.098   1.649   0.059 -0.2999 -0.1087 -0.4160
 3223TIP3    H2 9634   7.232   1.719   0.062  0.7342 -2.0411  0.8894
 3224TIP3   OH2 9635   5.623   4.173   0.695 -0.0796 -0.2897 -0.6478
 3224TIP3    H1 9636   5.537   4.148   0.660 -0.7564  2.0253 -0.7770
 3224TIP3    H2 9637   5.610   4.177   0.789 -0.3453  0.7712 -0.7177
 3225TIP3   OH2 9638   0.765   0.325   3.449  0.7812  0.2902  0.0489
 3225TIP3    H1 9639   0.694   0.358   3.394 -1.6830 -1.6516  1.8309
 3225TIP3    H2 9640   0.808   0.258   3.396  1.9881  2.0676 -1.3677
 3226TIP3   OH2 9641   6.680   0.128   5.889 -0.6956  0.0750 -0.2164
 3226TIP3    H1 9642   6.735   0.050   5.884 -1.3154 -0.3475 -0.5445
 3226TIP3    H2 9643   6.735   0.197   5.850 -0.5491 -0.4328 -0.9481
 3227TIP3   OH2 9644   6.607   3.265   5.361 -0.2519  0.4085 -0.3467
 3227TIP3    H1 9645   6.649   3.271   5.275  1.7594 -0.7187  0.4565
 3227TIP3    H2 9646   6.579   3.174   5.367  0.1488  0.3219  0.3812
 3228TIP3   OH2 9647   2.086   0.523   4.180  0.1492 -0.0009 -0.0502
 3228TIP3    H1 9648   2.138   0.512   4.101  0.8530 -2.1641  0.6718
 3228TIP3    H2 9649   2.036   0.442   4.188  1.8773 -0.9050  2.9684
 3229TIP3   OH2 9650   3.072   5.923   2.441  0.0051 -0.2479 -0.3023
 3229TIP3    H1 9651   3.100   5.852   2.498  0.2616  0.0584 -0.0405
 3229TIP3    H2 9652   3.060   5.882   2.355  0.0342 -0.6269 -0.1260
 3230TIP3   OH2 9653   0.558   4.611   0.173  0.0469 -0.2441 -0.2455
 3230TIP3    H1 9654   0.566   4.562   0.091  1.8748 -0.8792  0.2753
 3230TIP3    H2 9655   0.470   4.589   0.206  0.0761 -1.5835 -1.0259
 3231TIP3   OH2 9656   3.785   1.007   3.471  0.1950 -0.2946 -0.5687
 3231TIP3    H1 9657   3.775   1.099   3.447  0.1543 -0.4540 -1.1987
 3231TIP3    H2 9658   3.695   0.977   3.490  0.1164 -0.3806 -1.0585
 3232TIP3   OH2 9659   6.262   2.929   2.859  0.4268  0.1145 -0.4016
 3232TIP3    H1 9660   6.227   3.017   2.844 -1.0358 -0.5181 -0.8967
 3232TIP3    H2 9661   6.350   2.943   2.893  0.8217  1.7539 -1.9720
 3233TIP3   OH2 9662   3.897   5.678   0.715  0.3017  0.0537 -0.3935
 3233TIP3    H1 9663   3.961   5.696   0.646  3.1099  0.4760  2.1447
 3233TIP3    H2 9664   3.914   5.587   0.739 -0.6947 -0.1079 -0.2650
 3234TIP3   OH2 9665   0.180   1.715   5.207 -0.2350 -0.1593  0.8636
 3234TIP3    H1 9666   0.217   1.639   5.252 -0.0693  1.3900  3.5121
 3234TIP3    H2 9667   0.252   1.777   5.201 -0.9571  0.7040  0.9230
 3235TIP3   OH2 9668   1.314   4.101   0.605 -0.0879  0.0028 -0.6584
 3235TIP3    H1 9669   1.278   4.190   0.614  0.9860  0.4899 -1.0921
 3235TIP3    H2 9670   1.236   4.045   0.604 -0.8011  0.9521 -0.6584
 3236TIP3   OH2 9671   5.163   0.558   3.958  1.0957  0.5224 -0.4995
 3236TIP3    H1 9672   5.211   0.627   4.002  0.1075  1.4900 -0.8751
 3236TIP3    H2 9673   5.071   0.577   3.978  0.8450 -1.1884  0.0966
 3237TIP3   OH2 9674   1.341   0.067   1.601  0.1406 -0.0419  0.0872
 3237TIP3    H1 9675   1.323   0.007   1.673  1.7515  0.5749  1.0674
 3237TIP3    H2 9676   1.292   0.146   1.623 -0.3558 -0.2845 -0.1424
 3238TIP3   OH2 9677   1.771   1.733   5.743 -0.1253 -0.0458 -0.4890
 3238TIP3    H1 9678   1.720   1.785   5.804  0.2296 -0.3027  0.0376
 3238TIP3    H2 9679   1.858   1.728   5.783 -0.1994 -1.1829 -0.4446
 3239TIP3   OH2 9680   5.202   3.363   1.931  0.0046  0.1897 -0.0258
 3239TIP3    H1 9681   5.207   3.407   2.016  2.4192 -0.5880  0.3101
 3239TIP3    H2 9682   5.154   3.282   1.949 -0.1088  0.3550  0.4394
 3240TIP3   OH2 9683   6.164   2.922   2.118  0.6721  0.1604  0.3568
 3240TIP3    H1 9684   6.132   2.944   2.205 -0.1466  0.1339  0.0727
 3240TIP3    H2 9685   6.234   2.985   2.101  0.0715  0.8986  0.5755
 3241TIP3   OH2 9686   3.874   1.128   5.110 -0.4935  0.0719 -0.0747
 3241TIP3    H1 9687   3.957   1.087   5.135 -0.7038 -0.3414 -0.0488
 3241TIP3    H2 9688   3.885   1.220   5.135  0.0122  0.0527 -0.2105
 3242TIP3   OH2 9689   7.131   3.327   4.120  0.3999 -0.4526  0.4875
 3242TIP3    H1 9690   7.067   3.331   4.048  0.9150  0.1181  0.0467
 3242TIP3    H2 9691   7.094   3.381   4.189  0.7838  0.5720 -0.0895
 3243TIP3   OH2 9692   0.523   1.220   2.114  0.2889  0.2170  0.0113
 3243TIP3    H1 9693   0.548   1.273   2.039 -0.7759  2.1833  0.9649
 3243TIP3    H2 9694   0.438   1.183   2.091  1.6116 -2.3790 -1.2118
 3244TIP3   OH2 9695   1.918   1.691   1.388  0.0924 -0.2932 -0.4346
 3244TIP3    H1 9696   1.969   1.615   1.416  0.3492 -0.2948 -0.9073
 3244TIP3    H2 9697   1.829   1.657   1.378  0.0794 -0.3863 -0.0314
 3245TIP3   OH2 9698   6.809   0.346   2.642  0.4876  0.3242 -0.0279
 3245TIP3    H1 9699   6.807   0.335   2.737  4.3654  0.7691  0.2843
 3245TIP3    H2 9700   6.813   0.441   2.629 -0.2873  0.2787 -0.6655
 3246TIP3   OH2 9701   6.725   3.564   0.036 -0.1470 -0.1635  0.3355
 3246TIP3    H1 9702   6.808   3.520   0.015  0.7887  1.6827 -0.0187
 3246TIP3    H2 9703   6.670   3.548  -0.041  1.0406  1.2468 -0.8786
 3247TIP3   OH2 9704   0.436   3.798   2.856 -0.1009 -0.0475  0.0837
 3247TIP3    H1 9705   0.471   3.801   2.767  0.2722 -0.2863  0.2170
 3247TIP3    H2 9706   0.343   3.779   2.845  0.2070 -1.4752 -0.2082
 3248TIP3   OH2 9707   1.239   3.826   5.487  0.7066 -0.1645  0.6258
 3248TIP3    H1 9708   1.276   3.752   5.439 -0.2994 -0.1965 -0.1297
 3248TIP3    H2 9709   1.269   3.813   5.577 -0.0605 -1.9227  0.6671
 3249TIP3   OH2 9710   4.509   1.590   5.310 -0.4462 -0.2072  0.4486
 3249TIP3    H1 9711   4.428   1.621   5.349 -0.9635  2.4239 -2.3550
 3249TIP3    H2 9712   4.555   1.669   5.282  1.9899 -1.7135 -0.2003
 3250TIP3   OH2 9713   3.206   0.049   0.630 -0.4126 -0.6774 -0.4562
 3250TIP3    H1 9714   3.194   0.024   0.722  0.3988 -0.8423 -0.3902
 3250TIP3    H2 9715   3.138   0.001   0.583 -0.2260 -1.3411 -0.0577
 3251TIP3   OH2 9716   1.556   0.162   5.272 -0.1673  0.5343  0.7543
 3251TIP3    H1 9717   1.623   0.169   5.340 -0.2831 -1.0203  1.0674
 3251TIP3    H2 9718   1.480   0.209   5.307 -0.0278  0.2517  1.4530
 3252TIP3   OH2 9719   4.918   3.976   2.084 -0.0396  0.2146  0.0165
 3252TIP3    H1 9720   4.866   4.041   2.036 -2.0125 -0.1554  1.4908
 3252TIP3    H2 9721   4.896   3.992   2.176 -0.9699 -2.7539  0.4276
 3253TIP3   OH2 9722   3.425   4.717   5.632 -0.2723 -0.2501  0.1023
 3253TIP3    H1 9723   3.374   4.789   5.594 -1.3783 -0.1855  1.6223
 3253TIP3    H2 9724   3.495   4.701   5.569 -1.5183  0.4203 -1.5152
 3254TIP3   OH2 9725   3.641   1.521   0.063 -0.3571 -0.3456  0.2765
 3254TIP3    H1 9726   3.630   1.577   0.140  0.3197  0.9936 -0.5602
 3254TIP3    H2 9727   3.647   1.582  -0.010 -1.7108 -1.6237 -0.9460
 3255TIP3   OH2 9728   0.596   4.743   3.626 -0.5084  0.6432 -0.0099
 3255TIP3    H1 9729   0.648   4.761   3.704 -0.4878 -2.7171  0.8958
 3255TIP3    H2 9730   0.508   4.774   3.647 -0.0503  1.6216  0.5149
 3256TIP3   OH2 9731   0.355   4.952   4.729 -0.0934 -0.6458  0.1255
 3256TIP3    H1 9732   0.262   4.943   4.752  0.0200 -1.0155  0.4580
 3256TIP3    H2 9733   0.395   4.871   4.761  0.5837  0.0672  1.1570
 3257TIP3   OH2 9734   0.908   6.139   2.995 -0.3307 -0.3073  0.3966
 3257TIP3    H1 9735   0.844   6.069   3.011  0.6521 -1.5408 -0.8431
 3257TIP3    H2 9736   0.934   6.128   2.904  0.6917  1.0030  0.4951
 3258TIP3   OH2 9737   7.095   2.509   4.012  0.0655 -0.0422 -0.2170
 3258TIP3    H1 9738   7.158   2.581   4.006 -0.5688  0.4830 -0.7582
 3258TIP3    H2 9739   7.134   2.438   3.962 -0.2601  0.6562 -1.4924
 3259TIP3   OH2 9740   3.381   5.111   5.656  0.4233 -0.5613 -0.4349
 3259TIP3    H1 9741   3.319   5.136   5.588  0.7455  1.3523 -0.0798
 3259TIP3    H2 9742   3.464   5.100   5.611  0.6028  0.5509 -0.3862
 3260TIP3   OH2 9743   7.074   2.357   3.608  0.1108  0.0308 -0.5809
 3260TIP3    H1 9744   7.158   2.312   3.619  0.5300  0.8122 -0.5303
 3260TIP3    H2 9745   7.010   2.286   3.603  0.7776 -0.5812 -0.6863
 3261TIP3   OH2 9746   6.515   4.658   0.434 -0.2166  0.9100  0.5901
 3261TIP3    H1 9747   6.434   4.706   0.449 -1.0297  0.0003 -0.6840
 3261TIP3    H2 9748   6.584   4.714   0.469 -1.4126  1.5863  1.9307
 3262TIP3   OH2 9749   2.433   1.530   3.844  0.3413 -0.3414 -0.5470
 3262TIP3    H1 9750   2.347   1.507   3.877  0.6393  0.7488  1.1062
 3262TIP3    H2 9751   2.446   1.621   3.870  2.4121 -0.7918  0.2198
 3263TIP3   OH2 9752   5.345   1.552   0.058 -0.7395  0.2365  0.1261
 3263TIP3    H1 9753   5.429   1.509   0.040 -1.4419 -1.2057  0.2000
 3263TIP3    H2 9754   5.363   1.645   0.043  1.0304  0.0381  0.7201
 3264TIP3   OH2 9755   3.422   1.584   2.461  0.7203 -0.1609  0.9289
 3264TIP3    H1 9756   3.381   1.504   2.493  0.9632 -0.1097  1.3740
 3264TIP3    H2 9757   3.455   1.561   2.374  2.1294 -1.0058  1.6473
 3265TIP3   OH2 9758   4.025   6.419   5.517  0.1697  0.0287 -0.3837
 3265TIP3    H1 9759   3.977   6.347   5.559  1.3149  0.7672  2.4049
 3265TIP3    H2 9760   3.957   6.482   5.494 -0.5442 -0.5805 -0.0018
 3266TIP3   OH2 9761   6.338   3.389   5.116  0.1979 -0.1336 -0.1363
 3266TIP3    H1 9762   6.429   3.360   5.117 -0.0248 -0.8940  1.5260
 3266TIP3    H2 9763   6.288   3.310   5.093 -0.1305 -0.0215  0.1896
 3267TIP3   OH2 9764   5.873   0.513   0.596 -0.2521  0.0391  0.5439
 3267TIP3    H1 9765   5.790   0.465   0.588 -1.7053  2.2372  1.6373
 3267TIP3    H2 9766   5.847   0.603   0.616  2.4270  0.7322  1.2499
 3268TIP3   OH2 9767   2.025   2.589   2.631  0.2840 -0.3743  0.1462
 3268TIP3    H1 9768   2.099   2.556   2.580  0.4075 -1.5786  1.0963
 3268TIP3    H2 9769   1.967   2.514   2.641 -0.0105 -0.0123  1.2924
 3269TIP3   OH2 9770   6.883   4.011   2.539 -0.6534 -0.0813  0.2740
 3269TIP3    H1 9771   6.857   3.998   2.448  1.7374  2.1100 -0.8064
 3269TIP3    H2 9772   6.901   4.104   2.547  0.7570 -0.4571  2.5654
 3270TIP3   OH2 9773   4.569   0.475   4.995  0.1760 -0.4848  0.5018
 3270TIP3    H1 9774   4.483   0.518   4.988  0.4941  0.3483  1.4948
 3270TIP3    H2 9775   4.630   0.539   4.958  0.4040 -0.9891 -0.0080
 3271TIP3   OH2 9776   1.251   1.240   5.797  0.4318  0.1785  1.7056
 3271TIP3    H1 9777   1.318   1.172   5.809  1.1364  0.6757  0.7845
 3271TIP3    H2 9778   1.177   1.194   5.757  0.7400 -0.1356  1.4900
 3272TIP3   OH2 9779   4.464   1.016   0.101 -0.0262 -0.1902  0.5120
 3272TIP3    H1 9780   4.476   1.040   0.193 -1.2507 -1.1940  0.9598
 3272TIP3    H2 9781   4.371   1.032   0.084  0.1787 -0.0610 -0.5470
 3273TIP3   OH2 9782   3.088   0.045   1.915 -0.0321 -0.6348  0.0107
 3273TIP3    H1 9783   3.142   0.123   1.906 -0.7050 -0.0838  0.7203
 3273TIP3    H2 9784   3.040   0.057   1.997 -1.0226 -1.2466 -0.4602
 3274TIP3   OH2 9785   2.016   5.455   5.024 -0.2487  0.1948 -0.2512
 3274TIP3    H1 9786   2.033   5.519   5.093 -1.0437 -0.7063  0.8342
 3274TIP3    H2 9787   2.082   5.387   5.037 -0.5491 -0.0955 -0.2069
 3275TIP3   OH2 9788   5.906   6.276   2.539  0.5503 -0.2212 -0.1227
 3275TIP3    H1 9789   5.811   6.277   2.526  0.4098 -1.6964  0.6000
 3275TIP3    H2 9790   5.919   6.319   2.623 -0.2148 -5.5171  3.1794
 3276TIP3   OH2 9791   3.123   2.282   2.375 -0.8004 -0.3395  0.6890
 3276TIP3    H1 9792   3.099   2.192   2.395 -2.2977 -0.3897 -1.0938
 3276TIP3    H2 9793   3.069   2.305   2.300  0.3498  1.6945  0.4215
 3277TIP3   OH2 9794   2.921   6.175   0.417 -0.4631  0.2148 -0.2547
 3277TIP3    H1 9795   3.005   6.222   0.418  0.0242 -0.6289  0.3487
 3277TIP3    H2 9796   2.885   6.191   0.330  0.7241 -0.0754 -0.8212
 3278TIP3   OH2 9797   5.663   1.346   2.382  0.0830 -0.6496 -0.2402
 3278TIP3    H1 9798   5.719   1.355   2.305  1.5907 -0.1308  0.8698
 3278TIP3    H2 9799   5.604   1.274   2.360 -0.3110  0.2325 -2.3211
 3279TIP3   OH2 9800   5.153   1.669   0.278  0.4863  0.9291  0.2502
 3279TIP3    H1 9801   5.165   1.762   0.296  2.2994  0.9657 -0.8362
 3279TIP3    H2 9802   5.178   1.659   0.186  0.5783 -0.6551  0.4174
 3280TIP3   OH2 9803   1.982   3.892   5.254  0.3408 -0.2536  0.1740
 3280TIP3    H1 9804   1.991   3.976   5.297 -1.3829  0.5635 -0.9418
 3280TIP3    H2 9805   2.042   3.897   5.179 -1.8864  1.2777 -1.6490
 3281TIP3   OH2 9806   2.900   3.746   0.419 -0.4617 -0.2918  0.0167
 3281TIP3    H1 9807   2.917   3.837   0.441  1.3972 -0.6417  0.1612
 3281TIP3    H2 9808   2.925   3.697   0.497 -2.2448 -0.8894  0.2501
 3282TIP3   OH2 9809   2.986   0.190   5.076  0.0975 -0.5458 -0.4868
 3282TIP3    H1 9810   3.068   0.238   5.086 -0.3179  0.2799 -0.8775
 3282TIP3    H2 9811   2.952   0.182   5.165  0.3844 -0.4969 -0.3722
 3283TIP3   OH2 9812   5.196   2.055   0.704  0.3039 -0.3609 -0.0195
 3283TIP3    H1 9813   5.165   1.974   0.744  1.0685 -0.7144 -0.1316
 3283TIP3    H2 9814   5.253   2.094   0.770 -0.1598  0.1510  0.0822
 3284TIP3   OH2 9815   5.238   3.602   0.864 -0.3472 -0.5546 -0.7311
 3284TIP3    H1 9816   5.190   3.622   0.783 -2.3323  0.6285  0.6415
 3284TIP3    H2 9817   5.169   3.589   0.929  1.1347  2.2857  1.6276
 3285TIP3   OH2 9818   2.928   5.036   5.585 -0.0532 -0.1393 -0.3720
 3285TIP3    H1 9819   2.945   4.952   5.542  1.2679 -0.1863  0.1741
 3285TIP3    H2 9820   2.910   5.013   5.676 -0.5614  0.1167 -0.4058
 3286TIP3   OH2 9821   7.095   6.619   2.922  0.5108 -0.5567 -0.4545
 3286TIP3    H1 9822   7.157   6.549   2.902 -0.9299 -1.9645 -0.1746
 3286TIP3    H2 9823   7.026   6.611   2.856  1.4702  2.2246 -1.9939
 3287TIP3   OH2 9824   6.029   0.060   1.805  0.0791 -0.4518  0.8456
 3287TIP3    H1 9825   6.012   0.102   1.890 -0.9896  3.2248 -0.9748
 3287TIP3    H2 9826   5.962  -0.008   1.799 -0.9689  0.3900  2.2474
 3288TIP3   OH2 9827   0.262   6.120   0.382 -0.2799 -0.5028 -0.7951
 3288TIP3    H1 9828   0.346   6.164   0.389 -0.7652  0.2797  0.6649
 3288TIP3    H2 9829   0.269   6.045   0.442  0.0329 -1.6015 -2.1600
 3289TIP3   OH2 9830   4.928   5.955   5.438  0.1297 -0.1939  0.2150
 3289TIP3    H1 9831   4.869   5.883   5.416  1.3527 -0.9819 -0.5669
 3289TIP3    H2 9832   5.011   5.933   5.395  0.7610  1.2988  0.5985
 3290TIP3   OH2 9833   2.520   3.067   3.777  0.4471  0.1636  0.6223
 3290TIP3    H1 9834   2.605   3.106   3.798  0.5600  0.9009 -1.0522
 3290TIP3    H2 9835   2.467   3.141   3.748 -0.4910 -0.4216  0.8331
 3291TIP3   OH2 9836   4.276   2.615   0.445 -0.3018 -0.3821 -0.1445
 3291TIP3    H1 9837   4.266   2.528   0.406 -0.3617 -0.5179  0.1747
 3291TIP3    H2 9838   4.349   2.655   0.398  0.0417 -0.7880  0.0465
 3292TIP3   OH2 9839   2.157   4.727   1.087 -0.0553  0.6338 -0.4469
 3292TIP3    H1 9840   2.180   4.796   1.150 -0.4221  0.7374 -0.4257
 3292TIP3    H2 9841   2.118   4.774   1.014 -0.5774  0.4251 -0.3071
 3293TIP3   OH2 9842   6.318   2.755   4.666  0.1536  0.2245  0.2187
 3293TIP3    H1 9843   6.408   2.759   4.634  0.5171 -1.2947  0.9186
 3293TIP3    H2 9844   6.264   2.750   4.587  0.8963 -1.4802 -0.2314
 3294TIP3   OH2 9845   0.914   6.606   5.514 -0.0132  0.1273 -0.5036
 3294TIP3    H1 9846   0.995   6.658   5.513  1.1401 -1.4913  1.3155
 3294TIP3    H2 9847   0.916   6.557   5.431  0.8694  0.1209 -0.4872
 3295TIP3   OH2 9848   2.063   0.727   4.472 -0.0804  0.7394 -0.0353
 3295TIP3    H1 9849   2.096   0.732   4.382  0.0469  0.6765  0.0067
 3295TIP3    H2 9850   2.141   0.708   4.525 -0.4043 -0.9842 -0.1057
 3296TIP3   OH2 9851   3.899   0.626   4.076  0.3242 -0.3844 -0.3456
 3296TIP3    H1 9852   3.851   0.660   4.001  0.4458  1.2799  0.2728
 3296TIP3    H2 9853   3.932   0.704   4.120  0.7942 -1.3446  1.0783
 3297TIP3   OH2 9854   3.189   2.137   1.575  0.2528 -0.3678 -0.0072
 3297TIP3    H1 9855   3.188   2.218   1.524  0.7540  0.8597  1.8395
 3297TIP3    H2 9856   3.131   2.155   1.650  1.6796 -1.0792  1.3256
 3298TIP3   OH2 9857   2.494   5.881   1.604  0.3526  0.2030  0.4548
 3298TIP3    H1 9858   2.435   5.819   1.559  0.0279 -2.2398  3.8816
 3298TIP3    H2 9859   2.436   5.950   1.635 -0.0750 -0.1376  0.4413
 3299TIP3   OH2 9860   3.034   5.466   4.612  0.2852  0.3129  0.3581
 3299TIP3    H1 9861   3.057   5.396   4.672  0.2128  0.1624  0.2128
 3299TIP3    H2 9862   2.954   5.505   4.649 -0.5211 -0.6338 -0.3301
 3300TIP3   OH2 9863   1.414   3.615   1.107 -0.5348  0.0257 -0.4728
 3300TIP3    H1 9864   1.372   3.554   1.167  0.2498  0.0465  0.1254
 3300TIP3    H2 9865   1.399   3.701   1.146  0.3055  0.0076 -0.0719
 3301TIP3   OH2 9866   2.889   0.601   1.410 -0.1989 -0.0989  0.1080
 3301TIP3    H1 9867   2.872   0.552   1.490 -1.8971  0.3228  0.0285
 3301TIP3    H2 9868   2.828   0.563   1.346  1.0341 -0.3403 -0.9680
 3302TIP3   OH2 9869   0.630   3.351   3.067  0.1900  0.0437  0.4716
 3302TIP3    H1 9870   0.618   3.443   3.041 -0.6601 -0.2585 -0.2698
 3302TIP3    H2 9871   0.710   3.351   3.119  1.2334  0.9112 -1.0368
 3303TIP3   OH2 9872   5.217   5.237   1.475 -0.3020 -0.3970  0.8476
 3303TIP3    H1 9873   5.207   5.314   1.531  0.2465  0.1325  0.2250
 3303TIP3    H2 9874   5.287   5.186   1.516  0.0952 -0.0122  0.6553
 3304TIP3   OH2 9875   0.720   6.133   5.663 -0.1183 -0.7127 -0.7623
 3304TIP3    H1 9876   0.676   6.119   5.747  0.2786 -1.9791 -0.7447
 3304TIP3    H2 9877   0.706   6.226   5.644  0.6368 -0.1556  1.1793
 3305TIP3   OH2 9878   4.866   1.532   0.344  0.8183 -0.1457 -0.8226
 3305TIP3    H1 9879   4.840   1.612   0.300  0.0090  1.0042  1.5509
 3305TIP3    H2 9880   4.954   1.549   0.377  1.2921 -0.8643 -1.6822
 3306TIP3   OH2 9881   5.422   4.306   4.449 -0.0718 -0.1903  0.1753
 3306TIP3    H1 9882   5.352   4.340   4.395  0.3951 -1.0686 -1.0365
 3306TIP3    H2 9883   5.502   4.336   4.407  0.3647 -2.6310 -0.9465
 3307TIP3   OH2 9884   1.386   5.124   5.521  0.7087  0.0221  0.3956
 3307TIP3    H1 9885   1.345   5.108   5.606  0.4041 -2.5665 -0.1518
 3307TIP3    H2 9886   1.422   5.039   5.495  1.6201  0.9531 -1.6457
 3308TIP3   OH2 9887   0.158   1.964   2.214 -0.1028 -0.0759 -0.0931
 3308TIP3    H1 9888   0.099   1.972   2.139 -0.9983 -2.8972  0.1961
 3308TIP3    H2 9889   0.100   1.971   2.291  0.1455 -1.1229  0.2154
 3309TIP3   OH2 9890   4.392   0.824   5.241 -0.2464  0.2330  0.1912
 3309TIP3    H1 9891   4.458   0.846   5.307  1.2182 -1.0888 -0.7449
 3309TIP3    H2 9892   4.389   0.901   5.184  1.2705 -0.0575 -0.3286
 3310TIP3   OH2 9893   0.885   4.716   2.096  0.0319  0.1445 -0.1566
 3310TIP3    H1 9894   0.874   4.622   2.088 -0.2407 -0.0880  2.2431
 3310TIP3    H2 9895   0.968   4.735   2.053  0.5172 -1.3312  0.1005
 3311TIP3   OH2 9896   2.048   5.697   0.158 -0.0047  0.0581  0.0168
 3311TIP3    H1 9897   2.082   5.750   0.087 -0.1807 -0.7080 -0.6482
 3311TIP3    H2 9898   2.092   5.612   0.149  0.5342  0.1710  1.2690
 3312TIP3   OH2 9899   6.587   1.927   0.638 -0.2240 -0.8682  0.1151
 3312TIP3    H1 9900   6.609   1.988   0.708  1.5997  0.6121 -1.6259
 3312TIP3    H2 9901   6.657   1.860   0.641  0.2949 -0.3842 -0.7018
 3313TIP3   OH2 9902   2.555   4.914   4.380  0.4820 -0.4268 -0.0671
 3313TIP3    H1 9903   2.616   4.934   4.310 -0.1552 -0.6287 -0.6936
 3313TIP3    H2 9904   2.530   4.823   4.365 -0.3872 -0.1843 -0.1529
 3314TIP3   OH2 9905   4.024   5.518   3.406  0.1579 -0.4674  0.2947
 3314TIP3    H1 9906   3.999   5.598   3.360  1.2964 -0.3526 -0.1691
 3314TIP3    H2 9907   3.947   5.494   3.458 -1.0446 -0.3998 -1.3933
 3315TIP3   OH2 9908   7.034   3.240   0.616  0.0863  0.2807  0.2149
 3315TIP3    H1 9909   6.943   3.232   0.589 -0.4315  2.0445  1.2556
 3315TIP3    H2 9910   7.060   3.151   0.639 -1.0042 -0.4315 -1.1547
 3316TIP3   OH2 9911   3.621   6.247   4.257  0.7285  0.0630 -0.3444
 3316TIP3    H1 9912   3.564   6.238   4.333  0.0203  1.6622 -0.6451
 3316TIP3    H2 9913   3.606   6.337   4.226  2.4188  0.0844 -1.2343
 3317TIP3   OH2 9914   4.002   4.301   2.098  0.1982  0.5970 -0.0350
 3317TIP3    H1 9915   3.970   4.350   2.174  0.1653  0.0752  0.2911
 3317TIP3    H2 9916   4.087   4.342   2.077 -0.6500  1.9864 -0.9059
 3318TIP3   OH2 9917   5.962   5.599   2.360  0.1809  0.0314  0.1851
 3318TIP3    H1 9918   5.995   5.562   2.278  1.8172  0.3394  0.6666
 3318TIP3    H2 9919   5.994   5.690   2.360 -1.0386  0.4811  0.5044
 3319TIP3   OH2 9920   3.431   0.538   3.054 -0.5344 -0.1216  0.3166
 3319TIP3    H1 9921   3.448   0.462   3.109 -1.0274  0.9345  1.9858
 3319TIP3    H2 9922   3.517   0.581   3.046 -0.4028 -0.4403 -0.0069
 3320TIP3   OH2 9923   1.396   0.308   0.328 -0.4987 -0.9180  0.4702
 3320TIP3    H1 9924   1.352   0.341   0.407 -1.1284  0.0587 -0.2646
 3320TIP3    H2 9925   1.489   0.309   0.351 -0.7004 -1.1517  1.3731
 3321TIP3   OH2 9926   3.034   4.959   3.453 -0.1037 -0.3114 -0.1394
 3321TIP3    H1 9927   2.964   4.895   3.463  0.1850 -0.5391  0.4690
 3321TIP3    H2 9928   3.002   5.018   3.385 -0.4406 -1.0038 -0.5998
 3322TIP3   OH2 9929   4.581   5.625   2.889 -0.1103 -0.6545 -0.2580
 3322TIP3    H1 9930   4.626   5.670   2.960 -0.3375 -0.2807 -0.3479
 3322TIP3    H2 9931   4.504   5.679   2.871  0.1387 -0.5391 -1.0386
 3323TIP3   OH2 9932   1.467   0.485   3.995  0.2602 -0.0536 -0.1923
 3323TIP3    H1 9933   1.375   0.491   4.021 -0.0232 -0.2379 -1.1114
 3323TIP3    H2 9934   1.503   0.572   4.011 -0.3179  0.2857 -0.6879
 3324TIP3   OH2 9935   2.637   0.311   3.636 -0.8054 -0.6196  0.2134
 3324TIP3    H1 9936   2.658   0.339   3.725 -0.8060  1.8792 -0.5030
 3324TIP3    H2 9937   2.695   0.237   3.620 -0.9425 -1.2649  2.3330
 3325TIP3   OH2 9938   0.090   3.818   1.111  0.2939  0.4091 -0.0279
 3325TIP3    H1 9939   0.033   3.839   1.037  0.7465 -0.1844 -0.5548
 3325TIP3    H2 9940   0.168   3.778   1.071  0.1727 -0.7242  0.8102
 3326TIP3   OH2 9941   0.485   4.496   3.699 -0.5186  0.6741 -0.0269
 3326TIP3    H1 9942   0.509   4.535   3.783 -0.2345  0.1158  0.1521
 3326TIP3    H2 9943   0.420   4.557   3.662 -1.6732  0.2394  1.2153
 3327TIP3   OH2 9944   1.351   4.862   0.649  0.1817  0.1657 -1.0047
 3327TIP3    H1 9945   1.386   4.950   0.641  0.5367  0.3155  1.5071
 3327TIP3    H2 9946   1.287   4.868   0.720  0.3252 -1.6227 -0.6817
 3328TIP3   OH2 9947   2.025   5.032   3.048 -0.0005 -0.3347 -0.0234
 3328TIP3    H1 9948   1.930   5.037   3.040  0.0299 -1.2315 -1.3522
 3328TIP3    H2 9949   2.057   5.077   2.969  0.6707 -0.1381  0.3561
 3329TIP3   OH2 9950   1.115   6.239   5.594 -0.0899  0.5515 -0.9196
 3329TIP3    H1 9951   1.168   6.193   5.659 -1.5678  0.7757  0.4907
 3329TIP3    H2 9952   1.123   6.186   5.515  0.5061 -0.5889 -0.1302
 3330TIP3   OH2 9953   1.203   1.333   3.207 -0.5578  0.0224 -0.1798
 3330TIP3    H1 9954   1.233   1.396   3.272  1.0562 -0.5643 -0.3077
 3330TIP3    H2 9955   1.233   1.369   3.123 -0.1828 -0.5909 -0.3178
 3331TIP3   OH2 9956   0.603   2.883   5.823  0.2073  0.5190 -0.4300
 3331TIP3    H1 9957   0.633   2.798   5.791  1.7718  1.8418 -2.6776
 3331TIP3    H2 9958   0.533   2.908   5.763 -0.2758  0.8270  0.2467
 3332TIP3   OH2 9959   6.733   3.732   1.827  0.0724 -0.2053 -0.5844
 3332TIP3    H1 9960   6.749   3.703   1.737 -4.3673  1.1671 -2.1285
 3332TIP3    H2 9961   6.721   3.651   1.877  2.8330 -0.9917 -1.0320
 3333TIP3   OH2 9962   0.973   5.379   3.349  0.0134 -0.1386  0.2580
 3333TIP3    H1 9963   0.904   5.365   3.284 -1.2465  1.3641  1.2233
 3333TIP3    H2 9964   1.054   5.365   3.300 -0.9074  0.5925 -1.5711
 3334TIP3   OH2 9965   0.529   5.072   1.557  0.0172  0.1370  0.2067
 3334TIP3    H1 9966   0.542   5.150   1.611  0.1225  0.2491  0.0235
 3334TIP3    H2 9967   0.434   5.061   1.552  0.0072  0.1564  0.3712
 3335TIP3   OH2 9968   1.580   5.086   2.535  0.2666 -0.2165  0.0492
 3335TIP3    H1 9969   1.498   5.073   2.582 -0.1973 -0.1312 -0.7197
 3335TIP3    H2 9970   1.557   5.140   2.459  0.6691 -1.6862 -1.1861
 3336TIP3   OH2 9971   0.113   1.589   4.014 -0.0509  0.0269 -0.2103
 3336TIP3    H1 9972   0.127   1.684   4.008  0.3550  0.0174  0.4387
 3336TIP3    H2 9973   0.151   1.565   4.099 -1.8086 -0.4313  0.4857
 3337TIP3   OH2 9974   6.165   1.999   4.795 -0.0792 -0.1881 -0.8878
 3337TIP3    H1 9975   6.199   1.954   4.718  1.8554  0.9469 -0.7575
 3337TIP3    H2 9976   6.109   2.069   4.760  0.2476 -0.0973 -1.2317
 3338TIP3   OH2 9977   5.197   3.500   2.180  0.1676  0.0072 -0.2025
 3338TIP3    H1 9978   5.291   3.482   2.173 -0.0785 -0.8075 -2.1404
 3338TIP3    H2 9979   5.192   3.588   2.217  1.7135  0.2160 -0.4154
 3339TIP3   OH2 9980   3.803   3.184   1.262  0.2085  0.1596 -0.3136
 3339TIP3    H1 9981   3.709   3.202   1.258  0.1479 -0.2624 -0.9259
 3339TIP3    H2 9982   3.814   3.103   1.212  0.8567  0.0367  0.0201
 3340TIP3   OH2 9983   5.709   2.581   1.833 -0.1624  0.3170  0.4996
 3340TIP3    H1 9984   5.656   2.503   1.814  1.5051 -0.1739 -2.8407
 3340TIP3    H2 9985   5.777   2.549   1.894 -0.7246 -0.2799  0.8318
 3341TIP3   OH2 9986   1.889   1.867   0.068 -0.2111  0.7358  0.3313
 3341TIP3    H1 9987   1.796   1.888   0.072 -0.0999  1.2690  0.2350
 3341TIP3    H2 9988   1.917   1.900  -0.018 -0.1070 -0.1589  0.0046
 3342TIP3   OH2 9989   0.698   6.021   2.102 -0.1697 -0.0181  0.0049
 3342TIP3    H1 9990   0.629   6.024   2.168 -0.9029 -1.0425 -0.6819
 3342TIP3    H2 9991   0.677   6.094   2.043  0.4775  0.8863  0.8640
 3343TIP3   OH2 9992   3.139   2.357   2.834 -0.1128  0.3351  0.3157
 3343TIP3    H1 9993   3.073   2.312   2.887  1.3634 -0.9066  1.1689
 3343TIP3    H2 9994   3.220   2.351   2.885  0.4937  2.7237 -0.2151
 3344TIP3   OH2 9995   0.806   4.323   4.760  0.0529 -1.1467 -0.1285
 3344TIP3    H1 9996   0.870   4.272   4.809  1.1477 -1.0008 -1.3751
 3344TIP3    H2 9997   0.723   4.278   4.776  0.8258 -2.7386 -0.4034
 3345TIP3   OH2 9998   0.144   1.308   1.398  0.3374  0.2366  0.3979
 3345TIP3    H1 9999   0.109   1.362   1.468 -0.6727  2.0346 -1.4139
 3345TIP3    H210000   0.093   1.227   1.402 -2.0417  1.6064 -0.2654
 3346TIP3   OH210001   4.316   2.766   3.542 -0.0532 -0.0338 -0.2407
 3346TIP3    H110002   4.396   2.773   3.594 -1.2563  0.5445  1.6283
 3346TIP3    H210003   4.246   2.768   3.606 -1.5723 -1.2051 -1.7811
 3347TIP3   OH210004   3.864   1.852   0.072 -0.0743  0.1836 -0.2225
 3347TIP3    H110005   3.959   1.849   0.077 -0.0550 -1.1934 -0.7904
 3347TIP3    H210006   3.843   1.805  -0.009 -1.2365  0.4659 -0.1051
 3348TIP3   OH210007   1.882   1.762   2.184 -0.4135 -0.8217 -0.0477
 3348TIP3    H110008   1.945   1.708   2.231  0.1356 -0.8639 -0.8090
 3348TIP3    H210009   1.887   1.848   2.226  0.1008 -0.8441 -0.0655
 3349TIP3   OH210010   3.315   3.142   5.333 -0.1759  0.0734  0.4322
 3349TIP3    H110011   3.373   3.075   5.300  0.2953  0.4489  0.4875
 3349TIP3    H210012   3.255   3.096   5.392  0.8043 -0.1321  1.2868
 3350TIP3   OH210013   4.728   4.140   3.615  0.5385 -0.0035 -0.4175
 3350TIP3    H110014   4.674   4.143   3.694  1.8647 -0.1262  0.5104
 3350TIP3    H210015   4.809   4.097   3.642  1.5884  1.2215 -1.4848
 3351TIP3   OH210016   1.176   5.925   4.719  0.8488 -0.2477  0.2002
 3351TIP3    H110017   1.252   5.867   4.732  0.2423 -1.0332  0.3185
 3351TIP3    H210018   1.101   5.867   4.724  0.3095  0.1543 -2.1041
 3352TIP3   OH210019   0.117   2.269   4.256  0.4326  0.3174  0.3368
 3352TIP3    H110020   0.189   2.213   4.287  0.8706 -0.0160 -1.1830
 3352TIP3    H210021   0.042   2.211   4.252  1.0442 -0.3973 -1.8913
 3353TIP3   OH210022   1.359   0.495   1.051  0.7016 -0.5776  0.1647
 3353TIP3    H110023   1.327   0.585   1.063  0.3188 -0.6290 -0.4580
 3353TIP3    H210024   1.287   0.440   1.082  0.7224 -0.6795  0.0266
 3354TIP3   OH210025   3.619   2.459   0.554 -0.1682 -0.4079  0.1922
 3354TIP3    H110026   3.693   2.408   0.586  0.7868  0.6186 -0.3496
 3354TIP3    H210027   3.552   2.448   0.622  0.6344 -0.9744  0.9105
 3355TIP3   OH210028   0.923   5.978   3.317 -0.2514  0.0606  0.6012
 3355TIP3    H110029   0.917   5.928   3.235 -0.6907  1.8470 -0.5138
 3355TIP3    H210030   0.908   5.913   3.385 -0.7933 -1.3297 -0.7640
 3356TIP3   OH210031   6.200   3.943   0.996 -0.3069 -0.5426  0.5553
 3356TIP3    H110032   6.139   3.942   0.922  0.3848  0.6177 -0.0628
 3356TIP3    H210033   6.193   3.856   1.034 -1.3434 -0.8705 -0.3300
 3357TIP3   OH210034   1.007   0.698   1.075 -0.5220 -0.4802  0.1028
 3357TIP3    H110035   1.049   0.673   0.993  0.0550 -1.9837  0.8299
 3357TIP3    H210036   0.955   0.622   1.100 -1.4787  0.3236  0.6454
 3358TIP3   OH210037   1.789   2.533   2.902  0.0885  0.4394  0.2823
 3358TIP3    H110038   1.824   2.500   2.819  0.0583  0.6044  0.2021
 3358TIP3    H210039   1.850   2.500   2.968 -0.5523 -0.6888  0.3224
 3359TIP3   OH210040   6.469   3.902   2.803 -0.2245  0.0022 -0.5906
 3359TIP3    H110041   6.468   3.888   2.708 -1.4203  1.4707 -0.8327
 3359TIP3    H210042   6.397   3.963   2.819  0.3129  0.2266  1.2023
 3360TIP3   OH210043   0.382   2.205   0.122 -0.1287 -0.2216  0.0331
 3360TIP3    H110044   0.364   2.125   0.171 -1.6448 -0.3624 -0.6872
 3360TIP3    H210045   0.461   2.241   0.162 -3.0343  1.5998  5.0789
 3361TIP3   OH210046   1.656   4.824   1.787  0.0745 -0.3715 -0.1695
 3361TIP3    H110047   1.745   4.795   1.806  0.3695  0.1786 -0.6565
 3361TIP3    H210048   1.625   4.862   1.869  1.1190  1.4642 -0.5612
 3362TIP3   OH210049   5.603   1.091   2.299 -0.3704  0.3078  0.4729
 3362TIP3    H110050   5.546   1.114   2.226  2.5934 -0.3516 -2.2868
 3362TIP3    H210051   5.545   1.085   2.375 -3.7751  0.3334 -1.9310
 3363TIP3   OH210052   2.539   5.581   3.050  0.0777  0.0048  0.0128
 3363TIP3    H110053   2.502   5.529   2.979 -0.1807 -2.1820  1.6563
 3363TIP3    H210054   2.470   5.644   3.073 -0.7332 -0.8169 -0.1349
 3364TIP3   OH210055   2.566   5.892   3.548  0.2615 -0.1593  0.1408
 3364TIP3    H110056   2.643   5.933   3.588  0.2013 -1.3624  1.5760
 3364TIP3    H210057   2.540   5.825   3.611 -2.2693  0.5424 -0.0785
 3365TIP3   OH210058   1.579   1.004   5.220 -0.2110 -0.5201  0.0472
 3365TIP3    H110059   1.622   1.009   5.134 -0.8871 -2.6244 -0.4908
 3365TIP3    H210060   1.576   1.094   5.251  1.1892  0.1396 -1.5799
 3366TIP3   OH210061   3.103   2.517   0.450  0.3897  0.0371  0.0896
 3366TIP3    H110062   3.074   2.597   0.406  2.5728  0.3709 -0.9067
 3366TIP3    H210063   3.058   2.446   0.405 -0.6526  0.6144  0.1928
 3367TIP3   OH210064   3.804   0.016   5.625 -0.3594  0.4094 -0.3871
 3367TIP3    H110065   3.810   0.063   5.708 -2.7888  1.1735 -0.5863
 3367TIP3    H210066   3.839   0.077   5.560  0.9518  0.0457 -0.0714
 3368TIP3   OH210067   2.436   5.651   0.205 -0.1404  1.1977  0.0626
 3368TIP3    H110068   2.508   5.706   0.235  0.3767  0.8422 -0.5086
 3368TIP3    H210069   2.441   5.655   0.109 -1.8194  2.3976 -0.0252
 3369TIP3   OH210070   6.274   1.362   1.584 -0.2640  0.0352 -0.3153
 3369TIP3    H110071   6.199   1.410   1.619 -1.3702  0.5847 -3.1958
 3369TIP3    H210072   6.323   1.427   1.535  0.4767 -0.9462 -0.8955
 3370TIP3   OH210073   2.120   6.075   3.250  0.0617 -0.0544 -0.1715
 3370TIP3    H110074   2.196   6.037   3.293 -1.0859 -0.4929  1.5552
 3370TIP3    H210075   2.055   6.086   3.319 -2.0537 -1.2080 -1.8265
 3371TIP3   OH210076   3.904   3.386   3.509  0.2058  0.6664 -0.5382
 3371TIP3    H110077   3.873   3.458   3.453  1.6877  0.1993 -2.0361
 3371TIP3    H210078   3.926   3.428   3.592 -0.1549  1.7366 -0.9684
 3372TIP3   OH210079   2.209   1.173   2.007  0.6093  0.7742  0.4756
 3372TIP3    H110080   2.285   1.131   1.967  0.4655  1.3296 -0.4150
 3372TIP3    H210081   2.245   1.221   2.082  0.8828 -0.2770  1.0378
 3373TIP3   OH210082   0.499   4.792   2.914 -0.7074 -0.4952  0.8927
 3373TIP3    H110083   0.546   4.710   2.930 -0.7034 -0.4143  1.3154
 3373TIP3    H210084   0.480   4.791   2.821 -0.2418 -0.7293  0.7991
 3374TIP3   OH210085   2.684   4.956   4.115  0.0276 -0.1244  0.0892
 3374TIP3    H110086   2.760   5.008   4.143 -0.2379 -1.1875  3.2170
 3374TIP3    H210087   2.721   4.870   4.093 -0.2680 -1.1121  3.0301
 3375TIP3   OH210088   1.600   0.545   2.843  0.4538  0.0171  0.1392
 3375TIP3    H110089   1.566   0.592   2.767  0.9223 -1.5502 -1.0861
 3375TIP3    H210090   1.693   0.535   2.826  1.0308  1.5740  2.0122
 3376TIP3   OH210091   1.218   4.744   1.697 -0.2082  0.6781  0.2442
 3376TIP3    H110092   1.301   4.703   1.722 -1.0917 -0.1966  1.9935
 3376TIP3    H210093   1.151   4.693   1.744 -2.1587 -1.0267 -3.9430
 3377TIP3   OH210094   7.168   3.945   1.327 -0.2745 -0.6186  0.0791
 3377TIP3    H110095   7.219   3.884   1.274 -0.6607 -0.8029 -0.0810
 3377TIP3    H210096   7.109   3.890   1.378 -1.5047 -0.3401 -0.9800
 3378TIP3   OH210097   2.977   1.895   4.162  0.3655  1.3660 -0.0495
 3378TIP3    H110098   2.979   1.979   4.115  1.1625 -0.1441 -2.9792
 3378TIP3    H210099   3.056   1.850   4.131 -0.2372 -0.6110  1.1643
 3379TIP3   OH210100   2.441   4.719   1.784 -0.2997 -0.0509  0.0496
 3379TIP3    H110101   2.384   4.688   1.713  0.6814  1.1369 -1.3312
 3379TIP3    H210102   2.448   4.645   1.843 -1.6453 -0.8956 -0.7837
 3380TIP3   OH210103   2.405   6.470   2.779  0.0582  0.1314 -0.8029
 3380TIP3    H110104   2.362   6.387   2.760  0.4160 -0.4275  0.7255
 3380TIP3    H210105   2.405   6.517   2.695 -0.4342 -1.2638 -1.6075
 3381TIP3   OH210106   1.307   1.786   4.004 -0.1690  0.2085 -0.4786
 3381TIP3    H110107   1.347   1.784   4.090 -0.5800 -0.7027 -0.3015
 3381TIP3    H210108   1.356   1.853   3.956  1.2570 -0.5518 -0.1358
 3382TIP3   OH210109   3.362   4.506   2.897 -0.0151  0.3722 -0.1479
 3382TIP3    H110110   3.449   4.546   2.893  0.3305 -0.4131 -1.0345
 3382TIP3    H210111   3.312   4.560   2.958  1.0663  0.8941  0.2844
 3383TIP3   OH210112   5.436   0.015   3.406  0.0948 -0.0094 -0.6742
 3383TIP3    H110113   5.375   0.015   3.480 -0.7700  0.2953 -1.3744
 3383TIP3    H210114   5.513   0.062   3.439  0.6904 -1.9063  0.7833
 3384TIP3   OH210115   0.109   4.021   1.578 -0.4732 -0.1679  0.2804
 3384TIP3    H110116   0.122   3.984   1.491 -1.4665  1.4813 -0.6307
 3384TIP3    H210117   0.105   4.116   1.563 -2.1753  0.0862  1.8802
 3385TIP3   OH210118   0.118   2.941   0.914  0.0789  0.3324  0.1908
 3385TIP3    H110119   0.145   2.855   0.883 -0.3021  0.3690 -0.2503
 3385TIP3    H210120   0.163   2.952   0.998  0.0510 -0.3315  0.2936
 3386TIP3   OH210121   1.041   6.690   2.934 -0.4300  0.3712  0.1404
 3386TIP3    H110122   1.061   6.767   2.880  0.1491  0.3174  0.2626
 3386TIP3    H210123   0.987   6.635   2.878 -1.1912  1.0438  0.1954
 3387TIP3   OH210124   1.346   5.816   5.778 -0.0898 -0.3864  0.0343
 3387TIP3    H110125   1.322   5.747   5.716  0.8025  0.3009 -1.1316
 3387TIP3    H210126   1.267   5.830   5.831 -1.4282  0.0318 -1.9508
 3388TIP3   OH210127   0.952   6.649   3.679  0.1809  0.1760 -0.2176
 3388TIP3    H110128   1.009   6.714   3.720  0.1783 -0.3163  0.5768
 3388TIP3    H210129   0.929   6.687   3.594  0.1110  1.2487  0.2740
 3389TIP3   OH210130   3.390   6.312   0.887  0.0676  0.3659  0.4766
 3389TIP3    H110131   3.334   6.238   0.910 -1.6271  1.9263  1.6999
 3389TIP3    H210132   3.376   6.375   0.958  1.5016  1.8322 -0.4802
 3390TIP3   OH210133   7.141   6.502   0.405 -0.0128  0.2440  1.0692
 3390TIP3    H110134   7.228   6.470   0.379 -1.2228 -1.0912 -1.7382
 3390TIP3    H210135   7.132   6.473   0.496  1.4644 -2.0224  0.5942
 3391TIP3   OH210136   5.233   2.474   2.389 -0.0901 -0.4162 -0.2545
 3391TIP3    H110137   5.203   2.540   2.451  0.9785 -0.4414  0.3269
 3391TIP3    H210138   5.312   2.437   2.429  0.9787 -0.0271 -1.8894
 3392TIP3   OH210139   4.502   1.884   0.240  0.1070  0.2814 -0.5009
 3392TIP3    H110140   4.505   1.836   0.157  0.3874  1.7180 -1.3477
 3392TIP3    H210141   4.504   1.976   0.215 -3.1371  0.8735  0.9517
 3393TIP3   OH210142   2.106   6.350   2.428  0.1425 -0.3796 -0.5425
 3393TIP3    H110143   2.017   6.338   2.393 -0.3522 -0.4293  0.6839
 3393TIP3    H210144   2.115   6.444   2.439  0.5019 -0.3189 -1.2842
 3394TIP3   OH210145   2.824   0.094   3.622  0.6734 -0.0019 -0.1928
 3394TIP3    H110146   2.894   0.150   3.655  1.6083 -0.8165 -0.7625
 3394TIP3    H210147   2.836   0.011   3.668  0.9783 -0.6096 -1.3531
 3395TIP3   OH210148   0.295   5.249   2.128 -0.3174 -0.0045 -0.9283
 3395TIP3    H110149   0.350   5.307   2.074 -1.3480  0.5552 -1.4077
 3395TIP3    H210150   0.229   5.308   2.166  0.0997 -0.4720  0.5766
 3396TIP3   OH210151   5.044   4.805   0.559  0.6092  0.3310  0.0455
 3396TIP3    H110152   5.055   4.897   0.583 -1.0325  0.4294  0.5028
 3396TIP3    H210153   4.954   4.799   0.526  0.0960 -1.4232  1.6156
 3397TIP3   OH210154   3.464   0.765   2.601  0.5927 -0.6887 -0.0173
 3397TIP3    H110155   3.499   0.854   2.604 -1.1424  0.0157  0.5678
 3397TIP3    H210156   3.515   0.717   2.666 -0.5936  0.7374  2.0840
 3398TIP3   OH210157   4.359   5.360   2.203  0.1656 -0.5397 -0.2349
 3398TIP3    H110158   4.303   5.419   2.254  2.2800  1.3169  0.1217
 3398TIP3    H210159   4.365   5.402   2.117  0.2048 -1.2539 -0.5843
 3399TIP3   OH210160   6.253   5.751   5.511 -0.2256 -0.1406 -0.4493
 3399TIP3    H110161   6.255   5.799   5.594 -0.3346 -0.2672 -0.3741
 3399TIP3    H210162   6.251   5.659   5.536  0.5523 -0.2046 -0.5991
 3400TIP3   OH210163   0.360   0.839   1.458  0.2488  0.4634 -0.2161
 3400TIP3    H110164   0.340   0.884   1.376 -0.2886  0.2384 -0.2066
 3400TIP3    H210165   0.454   0.820   1.452 -0.1395 -1.2038 -1.5934
 3401TIP3   OH210166   1.186   4.140   1.054  0.0437 -0.6121  0.2427
 3401TIP3    H110167   1.164   4.067   1.111  1.8421  0.0865  1.9526
 3401TIP3    H210168   1.134   4.213   1.089  0.6941 -0.3269  0.6347
 3402TIP3   OH210169   2.385   3.969   2.227  0.0941 -0.3019 -0.2939
 3402TIP3    H110170   2.444   4.001   2.159 -1.4656  1.0617 -1.0864
 3402TIP3    H210171   2.325   3.911   2.180  0.1145 -0.7912  0.2821
 3403TIP3   OH210172   1.258   4.668   3.333  0.6946 -0.3888 -0.3230
 3403TIP3    H110173   1.269   4.707   3.247 -0.4447 -1.4709 -0.9936
 3403TIP3    H210174   1.324   4.711   3.388  0.7894  1.0106 -1.4847
 3404TIP3   OH210175   0.614   3.603   1.206  0.1664  0.0154  0.0203
 3404TIP3    H110176   0.651   3.595   1.118 -1.2697  1.6601 -0.7971
 3404TIP3    H210177   0.689   3.626   1.261  1.3058 -2.1620 -0.4900
 3405TIP3   OH210178   3.996   2.619   1.567 -0.0658  0.0034 -0.1042
 3405TIP3    H110179   3.912   2.626   1.611 -1.2251  1.1551 -2.3177
 3405TIP3    H210180   4.060   2.615   1.638 -1.8269  1.0687  1.6614
 3406TIP3   OH210181   3.784   3.694   2.709 -0.4182 -0.1473  0.1959
 3406TIP3    H110182   3.730   3.680   2.787 -0.8497  0.4018 -0.0010
 3406TIP3    H210183   3.748   3.773   2.669  1.5435  1.2299  0.9547
 3407TIP3   OH210184   7.164   2.366   5.496  0.2237  1.3639 -0.0026
 3407TIP3    H110185   7.143   2.319   5.576 -0.8640  1.7140 -0.0632
 3407TIP3    H210186   7.120   2.315   5.427  2.7682 -0.0730 -0.6751
 3408TIP3   OH210187   5.385   4.273   3.712 -0.2205 -0.1008 -0.1823
 3408TIP3    H110188   5.392   4.243   3.621 -0.7774 -0.5620 -0.0797
 3408TIP3    H210189   5.336   4.204   3.756 -0.9101  0.6251  0.2267
 3409TIP3   OH210190   3.586   2.706   3.717  0.1381 -0.1720  0.6449
 3409TIP3    H110191   3.546   2.682   3.634 -0.9156 -1.1574  1.4051
 3409TIP3    H210192   3.661   2.647   3.726 -1.2252 -1.8731  1.5274
 3410TIP3   OH210193   1.290   2.464   2.096 -0.3721  0.9748 -0.1601
 3410TIP3    H110194   1.280   2.409   2.173  1.0812  3.3389  1.8535
 3410TIP3    H210195   1.216   2.525   2.101 -1.9164 -0.5810 -2.3089
 3411TIP3   OH210196   1.158   4.277   0.756  0.0570  0.0800  0.3108
 3411TIP3    H110197   1.068   4.303   0.737 -0.4391 -0.7824  1.3792
 3411TIP3    H210198   1.166   4.283   0.851  1.3094  0.6784  0.1844
 3412TIP3   OH210199   2.133   2.094   1.679 -0.0297 -0.0813  0.7023
 3412TIP3    H110200   2.152   2.115   1.771 -0.8039 -4.4092  2.1122
 3412TIP3    H210201   2.050   2.045   1.683  1.0251 -2.3476 -1.9658
 3413TIP3   OH210202   5.779   2.700   5.855  0.2367  0.5035  0.3547
 3413TIP3    H110203   5.778   2.790   5.887 -3.1764  0.9207 -0.5108
 3413TIP3    H210204   5.759   2.707   5.761 -0.7364 -1.1288  0.3837
 3414TIP3   OH210205   0.412   4.416   4.804 -0.3992  0.1748  0.2859
 3414TIP3    H110206   0.464   4.336   4.803  0.8671  0.9552 -0.8677
 3414TIP3    H210207   0.455   4.472   4.868 -1.4610 -0.1370  1.3149
 3415TIP3   OH210208   1.064   6.546   3.171 -0.0965 -0.5968  0.3292
 3415TIP3    H110209   1.133   6.479   3.174  1.8193  1.2614  0.9567
 3415TIP3    H210210   1.069   6.582   3.082  0.5991  0.3111  0.7115
 3416TIP3   OH210211   2.713   1.545   3.040 -0.1052 -0.2541  0.2746
 3416TIP3    H110212   2.648   1.565   2.973  1.0016  0.6529 -0.5529
 3416TIP3    H210213   2.663   1.499   3.108 -1.1602 -1.6515 -1.3731
 3417TIP3   OH210214   2.014   0.073   0.765 -0.8247 -0.0581  0.3095
 3417TIP3    H110215   2.018   0.104   0.856  0.2516  0.2714  0.1699
 3417TIP3    H210216   2.078   0.001   0.762  0.4673  1.0755 -0.5850
 3418TIP3   OH210217   1.281   4.547   0.133 -0.0035  0.4808  0.6114
 3418TIP3    H110218   1.228   4.519   0.058  2.1769  1.2475 -1.3232
 3418TIP3    H210219   1.219   4.592   0.190 -1.2619  2.8899 -2.3453
 3419TIP3   OH210220   3.693   1.652   5.804  0.2003  0.2705 -0.4783
 3419TIP3    H110221   3.707   1.598   5.727  2.1163  2.6546 -1.9490
 3419TIP3    H210222   3.779   1.687   5.826 -0.8569  2.5136  0.5007
 3420TIP3   OH210223   5.054   0.934   1.927  0.2786  0.0310 -0.0217
 3420TIP3    H110224   5.125   0.926   1.863 -0.7807 -2.2573 -0.9882
 3420TIP3    H210225   5.001   0.856   1.915 -1.9460  1.2381  1.2951
 3421TIP3   OH210226   6.717   3.751   0.544  0.0804 -0.0314  0.1366
 3421TIP3    H110227   6.785   3.684   0.554  0.7905  0.4471 -1.2288
 3421TIP3    H210228   6.639   3.713   0.584  0.3506 -1.8353 -0.9675
 3422TIP3   OH210229   5.540   6.381   5.627  0.1460  0.1706  0.3661
 3422TIP3    H110230   5.519   6.384   5.721  1.2294 -0.9028  0.6711
 3422TIP3    H210231   5.562   6.471   5.604 -0.6177  0.5394  1.0131
 3423TIP3   OH210232   7.072   2.355   1.409 -1.0079 -0.4554 -0.0953
 3423TIP3    H110233   6.977   2.340   1.405 -1.0334 -0.2596 -0.2234
 3423TIP3    H210234   7.095   2.392   1.324 -1.0297  0.6657  0.3705
 3424TIP3   OH210235   1.184   5.477   2.160  0.2212 -0.6868 -0.2735
 3424TIP3    H110236   1.134   5.411   2.209  1.5138 -1.1908  0.4308
 3424TIP3    H210237   1.119   5.522   2.107 -1.0295 -1.0946  0.8468
 3425TIP3   OH210238   3.069   0.223   3.498 -0.1835  0.3283 -0.2923
 3425TIP3    H110239   2.986   0.251   3.459  0.0961  1.1520 -0.3308
 3425TIP3    H210240   3.086   0.137   3.459 -1.0963  0.0696 -0.1579
 3426TIP3   OH210241   5.668   1.509   5.448 -0.0986  0.0625  0.7883
 3426TIP3    H110242   5.715   1.426   5.450  0.7568  0.5268  0.8249
 3426TIP3    H210243   5.593   1.496   5.506  0.4051 -0.4766  1.3345
 3427TIP3   OH210244   0.271   5.250   4.634  0.4777 -0.5179 -0.2960
 3427TIP3    H110245   0.240   5.308   4.704 -1.1848 -0.5093 -1.0067
 3427TIP3    H210246   0.248   5.296   4.553  0.9477 -1.2641 -0.8626
 3428TIP3   OH210247   3.813   2.483   5.534 -0.4288  0.1577  0.0675
 3428TIP3    H110248   3.854   2.396   5.531 -0.0587  0.3370 -2.6184
 3428TIP3    H210249   3.753   2.478   5.608  0.3878 -2.0010  0.6802
 3429TIP3   OH210250   4.034   3.571   1.107  0.8190  0.2063  0.8084
 3429TIP3    H110251   4.026   3.486   1.065 -1.9609  1.3005 -1.1427
 3429TIP3    H210252   4.099   3.557   1.176  2.0035 -2.9161 -0.7349
 3430TIP3   OH210253   3.705   0.659   3.090 -0.3379  0.0018  0.3167
 3430TIP3    H110254   3.752   0.612   3.159  0.8930  0.3176 -0.2595
 3430TIP3    H210255   3.654   0.726   3.135 -1.3354 -1.2419  1.0692
 3431TIP3   OH210256   1.093   1.308   1.735  0.0933  0.0991 -0.1945
 3431TIP3    H110257   1.119   1.268   1.818  1.0383 -1.2084 -1.0784
 3431TIP3    H210258   1.125   1.248   1.668 -1.0269  0.8973 -1.5108
 3432TIP3   OH210259   1.819   1.112   1.451 -0.2219  0.6210  0.5115
 3432TIP3    H110260   1.751   1.155   1.398 -0.4900 -0.6296 -0.2120
 3432TIP3    H210261   1.852   1.180   1.509 -1.8254  1.3665  0.5973
 3433TIP3   OH210262   6.379   6.194   4.407  0.1137 -0.7604  0.1037
 3433TIP3    H110263   6.462   6.224   4.443 -0.1812  0.7010 -0.3835
 3433TIP3    H210264   6.404   6.126   4.344  0.9711 -0.1178 -0.2720
 3434TIP3   OH210265   1.915   2.562   0.241  0.0414 -0.2457  0.0479
 3434TIP3    H110266   1.978   2.493   0.260  1.0299 -0.1024 -2.3054
 3434TIP3    H210267   1.958   2.615   0.174 -1.4088  1.6292  0.5117
 3435TIP3   OH210268   0.305   2.884   3.045 -0.1577  0.4006  0.1307
 3435TIP3    H110269   0.271   2.973   3.032  0.3988  0.7267  0.8106
 3435TIP3    H210270   0.262   2.853   3.124  1.7806  1.2010  1.5950
 3436TIP3   OH210271   1.158   4.384   3.904 -0.0389  0.0643 -0.2649
 3436TIP3    H110272   1.149   4.344   3.990 -0.7194 -1.2082 -0.9022
 3436TIP3    H210273   1.151   4.311   3.842  2.2024  0.6942 -1.3595
 3437TIP3   OH210274   2.852   1.336   1.699  0.2736  0.4976  0.9333
 3437TIP3    H110275   2.821   1.358   1.787  1.2637  3.0522  0.7227
 3437TIP3    H210276   2.805   1.397   1.641 -1.0947 -1.7749 -0.4975
 3438TIP3   OH210277   3.885   2.323   1.243  0.0647 -0.2850  0.6674
 3438TIP3    H110278   3.798   2.286   1.232 -0.3497  0.4136  1.4894
 3438TIP3    H210279   3.940   2.275   1.181 -1.2883  0.5943 -1.3315
 3439TIP3   OH210280   6.657   6.524   1.950 -0.5222 -0.1097 -0.1150
 3439TIP3    H110281   6.564   6.512   1.930 -0.5398  1.5855 -1.1945
 3439TIP3    H210282   6.659   6.595   2.014  0.1351  1.4728 -1.8437
 3440TIP3   OH210283   6.102   2.782   4.520 -0.3787  0.1267 -0.3672
 3440TIP3    H110284   6.026   2.826   4.557 -1.7941 -1.4639 -1.2642
 3440TIP3    H210285   6.104   2.810   4.428 -0.6346 -0.7979 -0.6635
 3441TIP3   OH210286   6.548   2.391   2.292  0.4085 -0.2744  0.5995
 3441TIP3    H110287   6.623   2.394   2.233 -0.6140 -0.5067 -0.7651
 3441TIP3    H210288   6.542   2.299   2.318 -0.0509 -0.4834 -0.1972
 3442TIP3   OH210289   7.132   0.202   5.812 -0.8901 -0.6600  0.3285
 3442TIP3    H110290   7.081   0.240   5.884 -0.6405 -1.9914  1.2323
 3442TIP3    H210291   7.141   0.110   5.835 -0.5801 -1.0629 -1.3004
 3443TIP3   OH210292   3.265   6.081   0.917  0.3029  0.4031 -0.2464
 3443TIP3    H110293   3.214   6.073   0.837 -0.7781  0.0289  0.4615
 3443TIP3    H210294   3.285   5.991   0.943  1.4291  0.5484 -0.5693
 3444TIP3   OH210295   2.690   0.054   2.324  0.2044 -0.3118  0.2290
 3444TIP3    H110296   2.644  -0.020   2.363  0.9676 -0.7091  0.3976
 3444TIP3    H210297   2.667   0.050   2.231 -0.3905 -0.2835  0.3726
 3445TIP3   OH210298   5.762   5.836   1.833 -0.2832  0.0253 -0.0613
 3445TIP3    H110299   5.713   5.783   1.770 -1.7809  2.1178 -0.7537
 3445TIP3    H210300   5.792   5.911   1.782 -0.8405  1.3739  1.5305
 3446TIP3   OH210301   3.353   5.264   5.207 -0.0602 -0.6149 -0.1415
 3446TIP3    H110302   3.305   5.225   5.280  1.0150 -1.5657  0.0779
 3446TIP3    H210303   3.349   5.358   5.223 -2.5894 -0.5651 -0.6042
 3447TIP3   OH210304   1.412   6.751   4.525 -0.5387 -0.4789 -0.2353
 3447TIP3    H110305   1.372   6.791   4.447 -0.6700 -2.3812 -1.2093
 3447TIP3    H210306   1.501   6.786   4.527 -0.4139 -0.6932 -1.4712
 3448TIP3   OH210307   2.038   0.400   2.063 -0.2519  0.0808  0.1913
 3448TIP3    H110308   2.055   0.494   2.053 -0.6309  0.3098  1.4688
 3448TIP3    H210309   1.951   0.396   2.104  0.0573 -0.7949  0.7865
 3449TIP3   OH210310   2.150   6.132   2.976 -0.1036  0.1091 -0.3179
 3449TIP3    H110311   2.110   6.110   3.060  1.1222  1.8137  0.7892
 3449TIP3    H210312   2.078   6.136   2.914 -0.8780 -2.7149  0.2446
 3450TIP3   OH210313   5.451   1.554   4.204  0.0918  0.0200  0.1587
 3450TIP3    H110314   5.457   1.586   4.294  0.7213  2.8038 -0.7691
 3450TIP3    H210315   5.359   1.535   4.191 -0.1290  0.3405  1.1687
 3451TIP3   OH210316   6.974   0.186   3.124 -0.2792  0.1622 -0.0395
 3451TIP3    H110317   7.014   0.104   3.154  0.1893  0.3884 -0.0435
 3451TIP3    H210318   6.899   0.198   3.183 -1.0781 -0.8858 -0.7897
 3452TIP3   OH210319   4.137   4.557   2.183 -1.1709 -0.0404  0.7797
 3452TIP3    H110320   4.193   4.635   2.180  1.4486 -1.7531  1.6773
 3452TIP3    H210321   4.049   4.591   2.197  0.1997  2.7305  4.0900
 3453TIP3   OH210322   4.783   2.980   4.004 -0.7003 -0.6913  0.2919
 3453TIP3    H110323   4.846   2.966   3.933  0.0077  1.5481  0.3854
 3453TIP3    H210324   4.829   3.038   4.065 -2.4931  0.2206  0.8434
 3454TIP3   OH210325   3.501   2.379   2.010  0.2986 -0.0605 -0.2587
 3454TIP3    H110326   3.568   2.443   1.988  0.1196  0.2955  0.2138
 3454TIP3    H210327   3.532   2.340   2.092  0.5336 -0.7601 -0.6730
 3455TIP3   OH210328   2.681   1.491   2.708  0.1506  0.1830 -0.0372
 3455TIP3    H110329   2.715   1.468   2.622  0.5056 -0.4536  0.2684
 3455TIP3    H210330   2.713   1.422   2.766  0.7391  1.1292  0.7985
 3456TIP3   OH210331   6.627   5.987   1.662  0.0805  0.0313  0.3998
 3456TIP3    H110332   6.538   5.954   1.675  0.5809 -1.3509  0.4544
 3456TIP3    H210333   6.615   6.069   1.613 -1.1734 -0.6797 -0.5527
 3457TIP3   OH210334   1.593   3.674   0.398  0.7412 -0.0780 -0.6294
 3457TIP3    H110335   1.667   3.672   0.337  0.5538  0.8623 -0.9046
 3457TIP3    H210336   1.610   3.749   0.454  0.5572 -0.5295  0.0459
 3458TIP3   OH210337   2.119   2.739   0.595  0.0942  0.3403  0.2844
 3458TIP3    H110338   2.175   2.764   0.668  0.8486  0.6284 -0.3777
 3458TIP3    H210339   2.177   2.736   0.520 -0.7925  0.7169 -0.4407
 3459TIP3   OH210340   3.475   4.902   3.154  0.4907 -0.6534 -0.4076
 3459TIP3    H110341   3.435   4.929   3.237  0.3641 -2.1182  0.0327
 3459TIP3    H210342   3.520   4.981   3.123  1.3293 -0.3023  1.5154
 3460TIP3   OH210343   4.581   3.919   1.310  0.2738  0.0523  0.3240
 3460TIP3    H110344   4.531   3.970   1.246 -0.0827 -0.6410  0.0397
 3460TIP3    H210345   4.537   3.935   1.393  0.5112  0.6564  0.3403
 3461TIP3   OH210346   5.472   6.542   3.073 -0.3624 -0.2467  0.4573
 3461TIP3    H110347   5.434   6.476   3.015  0.1148 -1.6561  1.6594
 3461TIP3    H210348   5.445   6.514   3.161 -0.4266  1.3700  0.9706
 3462TIP3   OH210349   0.051   5.970   5.210 -0.2890  0.6371  0.2470
 3462TIP3    H110350   0.080   6.047   5.162 -1.3444 -0.0021 -1.4939
 3462TIP3    H210351  -0.018   6.003   5.268  0.8482  1.3729  1.2383
 3463TIP3   OH210352   0.972   2.751   0.038 -0.8615  0.3703  0.3643
 3463TIP3    H110353   0.960   2.838  -0.001  1.6686 -0.9433 -3.9606
 3463TIP3    H210354   0.896   2.701   0.009 -1.0653  0.4559  0.7400
 3464TIP3   OH210355   6.483   6.259   5.290 -0.3853 -0.0029 -0.2145
 3464TIP3    H110356   6.494   6.187   5.228 -0.3493 -1.6690  1.6211
 3464TIP3    H210357   6.400   6.239   5.334  0.4668  0.1023  1.5056
 3465TIP3   OH210358   4.177   3.465   4.819 -0.0235  0.4234 -0.5240
 3465TIP3    H110359   4.217   3.385   4.853  0.4459 -0.0215 -2.0550
 3465TIP3    H210360   4.136   3.506   4.896 -0.8194 -1.5829  0.1731
 3466TIP3   OH210361   2.751   3.178   3.860  0.3694 -0.6053  0.1282
 3466TIP3    H110362   2.808   3.247   3.826 -0.2626  0.0391  0.3376
 3466TIP3    H210363   2.810   3.119   3.907  1.1039 -0.9320 -1.1619
 3467TIP3   OH210364   2.373   1.460   5.734  0.6129 -0.0728 -0.6656
 3467TIP3    H110365   2.359   1.444   5.641  1.0627 -0.7559 -0.6253
 3467TIP3    H210366   2.303   1.411   5.778  0.4644  0.1621 -0.6389
 3468TIP3   OH210367   6.696   2.370   3.994  0.4119  0.5130 -0.1100
 3468TIP3    H110368   6.687   2.295   4.053 -0.1026  1.0041  0.4587
 3468TIP3    H210369   6.690   2.333   3.906  2.3532 -0.3950  0.0938
 3469TIP3   OH210370   6.409   4.729   1.114  0.0379  0.9494  0.5362
 3469TIP3    H110371   6.333   4.787   1.104 -0.4339  0.1981 -0.4337
 3469TIP3    H210372   6.374   4.641   1.100  0.7135  0.4002  2.1191
 3470TIP3   OH210373   2.646   4.433   3.408  0.1186 -0.5542  0.0886
 3470TIP3    H110374   2.635   4.498   3.477  1.5336  0.5067 -0.6338
 3470TIP3    H210375   2.657   4.350   3.455 -1.6437 -0.3023  1.0268
 3471TIP3   OH210376  -0.005   1.032   1.508 -0.6790  0.3003  0.7330
 3471TIP3    H110377   0.029   1.002   1.424 -0.4222  1.5230  0.3808
 3471TIP3    H210378   0.022   0.965   1.571 -0.3439 -0.3138 -0.0597
 3472TIP3   OH210379   2.622   1.186   4.701 -0.0691  0.2557  0.3268
 3472TIP3    H110380   2.546   1.148   4.657 -0.2856 -0.2075  1.0720
 3472TIP3    H210381   2.641   1.266   4.652 -1.6989  0.9565  0.7700
 3473TIP3   OH210382   3.676   2.428   0.138  0.0632  0.5595  0.0359
 3473TIP3    H110383   3.657   2.500   0.198 -1.5348  1.1101 -1.0808
 3473TIP3    H210384   3.759   2.392   0.169 -0.2757  1.3914  2.0178
 3474TIP3   OH210385   0.736   3.803   1.582  0.3019 -0.6000 -0.1889
 3474TIP3    H110386   0.684   3.723   1.574 -1.1605  0.4030 -1.5960
 3474TIP3    H210387   0.671   3.873   1.575  1.3676  0.7578  2.2138
 3475TIP3   OH210388   5.874   1.622   0.055 -0.2661  0.5706 -0.2034
 3475TIP3    H110389   5.882   1.548   0.116 -1.1349  0.8866  0.3207
 3475TIP3    H210390   5.891   1.699   0.110 -2.5058  0.9701  0.0251
 3476TIP3   OH210391   1.209   4.929   5.246 -0.1332 -0.4248  0.1835
 3476TIP3    H110392   1.241   4.843   5.273 -0.1029 -0.8155 -1.0020
 3476TIP3    H210393   1.140   4.909   5.182 -0.3799  0.4326  0.1728
 3477TIP3   OH210394   6.437   6.255   2.708  0.0011 -0.2944  0.1225
 3477TIP3    H110395   6.513   6.254   2.650  0.9192 -1.6921  1.2962
 3477TIP3    H210396   6.432   6.345   2.739  1.8363 -0.3969  0.8298
 3478TIP3   OH210397   1.113   3.734   2.350  0.4363  0.6480 -0.2604
 3478TIP3    H110398   1.131   3.819   2.309 -3.2649  0.8828 -1.7339
 3478TIP3    H210399   1.086   3.678   2.277 -0.2807 -0.8379  1.0958
 3479TIP3   OH210400   5.916   3.555   1.126 -0.2534 -0.3952 -0.3257
 3479TIP3    H110401   5.896   3.636   1.081  0.7360 -1.3700 -2.6874
 3479TIP3    H210402   5.832   3.512   1.139 -0.5368 -0.1983 -1.4997
 3480TIP3   OH210403   6.841   0.945   3.979  0.1438 -0.1914 -0.0199
 3480TIP3    H110404   6.768   0.971   3.922  0.6628  0.8400 -0.2223
 3480TIP3    H210405   6.918   0.984   3.939  0.4139  1.3176  1.8588
 3481TIP3   OH210406   3.354   0.302   0.951 -0.2420 -0.1614 -0.1584
 3481TIP3    H110407   3.258   0.308   0.945 -0.2037 -1.2011 -2.6114
 3481TIP3    H210408   3.371   0.209   0.960  0.5915 -0.3571 -2.9211
 3482TIP3   OH210409   1.113   1.194   0.934 -0.3784 -0.2285 -0.1360
 3482TIP3    H110410   1.070   1.123   0.982 -0.0882  0.5656  1.3691
 3482TIP3    H210411   1.194   1.210   0.984 -0.1996  0.8167 -0.7400
 3483TIP3   OH210412   7.067   6.146   3.648 -0.2123 -0.4481 -0.3427
 3483TIP3    H110413   7.141   6.104   3.604  1.8223  2.5849 -0.1055
 3483TIP3    H210414   7.088   6.138   3.742  0.1159  0.8431 -0.2910
 3484TIP3   OH210415   3.303   1.926   5.135 -0.2887  0.2472  0.0142
 3484TIP3    H110416   3.293   2.017   5.106 -0.2757  0.8451  1.7415
 3484TIP3    H210417   3.397   1.910   5.130 -0.4706 -0.3754 -2.1784
 3485TIP3   OH210418   3.943   1.368   5.168  0.4850 -0.1043  0.4091
 3485TIP3    H110419   3.889   1.445   5.151 -1.5044 -1.1713  1.5182
 3485TIP3    H210420   3.962   1.373   5.262  0.0689 -1.0974  0.5549
 3486TIP3   OH210421   0.049   2.604   5.542 -0.2011  0.2531 -0.3858
 3486TIP3    H110422   0.141   2.604   5.568 -0.1400  1.5377 -0.5582
 3486TIP3    H210423   0.038   2.522   5.494  0.1641 -1.2785  1.9677
 3487TIP3   OH210424   4.667   3.353   0.198 -0.3390  0.2319  0.1280
 3487TIP3    H110425   4.718   3.341   0.118 -0.5293  0.8514 -0.0910
 3487TIP3    H210426   4.658   3.448   0.207 -0.5417  0.1589  0.7423
 3488TIP3   OH210427   1.252   0.377   0.537 -0.5689 -0.2872  0.1010
 3488TIP3    H110428   1.199   0.457   0.534 -0.4143 -0.1898 -0.0289
 3488TIP3    H210429   1.256   0.355   0.630  0.8706  0.8497  0.3374
 3489TIP3   OH210430   1.307   3.119   3.063  0.6127  0.5010 -0.7402
 3489TIP3    H110431   1.281   3.181   2.996 -1.4586 -0.9760 -1.4045
 3489TIP3    H210432   1.300   3.033   3.021 -0.4544 -0.4620  1.2326
 3490TIP3   OH210433   3.093   3.216   3.012  0.1820  0.3061  0.5163
 3490TIP3    H110434   3.131   3.279   2.951  4.0831  0.6114  2.9315
 3490TIP3    H210435   3.059   3.270   3.083  1.5140 -0.1391  1.5367
 3491TIP3   OH210436   1.202   2.805   1.241 -0.6085 -0.1282  0.7165
 3491TIP3    H110437   1.248   2.808   1.157  0.0887  2.1458  1.0935
 3491TIP3    H210438   1.134   2.739   1.229  1.3051 -1.9733 -0.6122
 3492TIP3   OH210439   2.903   0.283   2.904 -0.5470 -0.1018 -0.1281
 3492TIP3    H110440   2.957   0.318   2.975  1.4675 -1.4939 -0.8924
 3492TIP3    H210441   2.850   0.357   2.876  1.5809  1.5984  0.1195
 3493TIP3   OH210442   0.014   6.396   2.821 -0.2016  0.3998 -0.6431
 3493TIP3    H110443   0.053   6.399   2.733  0.0734  0.2119 -0.5270
 3493TIP3    H210444   0.028   6.306   2.850  1.9018  1.0534  0.5842
 3494TIP3   OH210445   6.289   2.115   4.428  0.3375 -0.3842  0.4602
 3494TIP3    H110446   6.293   2.210   4.439  1.2907 -0.3088 -0.3516
 3494TIP3    H210447   6.376   2.092   4.396 -0.4430 -1.2929 -1.0849
 3495TIP3   OH210448   1.821   2.735   4.822  0.4698  0.0115 -0.3933
 3495TIP3    H110449   1.830   2.654   4.773 -0.1921 -1.3096  1.5467
 3495TIP3    H210450   1.727   2.745   4.837  0.5627  0.9871 -0.3638
 3496TIP3   OH210451   1.270   5.753   5.014 -0.0018 -0.8347 -0.3435
 3496TIP3    H110452   1.290   5.761   4.921  0.5781 -0.9316 -0.2290
 3496TIP3    H210453   1.174   5.746   5.018 -0.0385 -0.6317 -0.9149
 3497TIP3   OH210454   0.075   1.111   2.726  0.4459 -0.3702  0.0221
 3497TIP3    H110455   0.084   1.089   2.634  1.3690 -1.1184  0.2726
 3497TIP3    H210456   0.135   1.052   2.771 -0.0695 -0.0993  1.1168
 3498TIP3   OH210457   1.044   1.137   2.257  0.1933 -0.2492 -0.7108
 3498TIP3    H110458   1.137   1.153   2.268 -0.1726  1.2292  0.5823
 3498TIP3    H210459   1.009   1.219   2.221 -1.3223  1.2242  3.5063
 3499TIP3   OH210460   6.442   5.979   4.052 -0.2998  0.4161  0.0574
 3499TIP3    H110461   6.366   6.029   4.083 -1.0577 -0.6670 -0.0107
 3499TIP3    H210462   6.434   5.979   3.957  0.0637  0.7195  0.0255
 3500TIP3   OH210463   4.231   1.280   5.309 -0.0964 -0.4547  0.6901
 3500TIP3    H110464   4.266   1.244   5.390 -0.3173  1.2680  1.5726
 3500TIP3    H210465   4.201   1.368   5.331 -0.5136 -0.0763 -1.1704
 3501TIP3   OH210466   4.218   4.332   0.508  0.7436 -0.2936  0.4016
 3501TIP3    H110467   4.219   4.416   0.460  0.8283  0.2628  1.3572
 3501TIP3    H210468   4.299   4.288   0.480 -0.2901 -1.0032 -1.6891
 3502TIP3   OH210469   3.722   3.371   1.464 -0.2767  0.3268  0.1022
 3502TIP3    H110470   3.768   3.297   1.423  0.1806  0.8067 -0.2768
 3502TIP3    H210471   3.703   3.430   1.391 -1.3489  0.2229  0.2825
 3503TIP3   OH210472   3.810   4.978   4.846  0.2391 -0.7460  0.2608
 3503TIP3    H110473   3.840   4.905   4.901 -0.1331 -1.6981 -0.7885
 3503TIP3    H210474   3.883   5.041   4.850  0.9940 -1.6037  0.3712
 3504TIP3   OH210475   6.664   2.209   3.244 -0.2178  0.1459  0.1669
 3504TIP3    H110476   6.572   2.225   3.265 -0.5501 -0.3082 -0.8821
 3504TIP3    H210477   6.670   2.114   3.234  0.1039  0.2690 -0.8988
 3505TIP3   OH210478   3.875   3.891   0.396 -0.0072 -0.0601 -0.2414
 3505TIP3    H110479   3.812   3.961   0.410  1.7136  1.3577  0.8415
 3505TIP3    H210480   3.949   3.914   0.452  0.7082 -2.6603 -0.0115
 3506TIP3   OH210481   1.532   1.421   2.358 -0.9186  0.3827 -0.3268
 3506TIP3    H110482   1.528   1.415   2.263 -1.6015 -3.0603 -0.2214
 3506TIP3    H210483   1.625   1.423   2.379 -0.7409  3.1893 -1.0207
 3507TIP3   OH210484   7.173   6.368   0.669  0.1043 -0.4139 -0.2547
 3507TIP3    H110485   7.122   6.292   0.696  0.1431 -0.1066  0.7239
 3507TIP3    H210486   7.180   6.422   0.748  1.9545 -0.4502 -0.3387
 3508TIP3   OH210487   2.649   0.682   3.849  0.0914 -0.4706  0.5540
 3508TIP3    H110488   2.570   0.682   3.795  0.1578  1.3128  0.4006
 3508TIP3    H210489   2.678   0.591   3.849 -0.0837 -0.6025 -2.1541
 3509TIP3   OH210490   2.912   0.363   0.188  0.4193 -0.4205  0.2921
 3509TIP3    H110491   2.883   0.316   0.111  0.4545  1.9105 -1.2364
 3509TIP3    H210492   2.858   0.442   0.190  3.0233  1.5118  0.3220
 3510TIP3   OH210493   3.346   4.020   0.866 -0.1963 -0.5154  0.1232
 3510TIP3    H110494   3.281   3.995   0.932 -1.1188  1.8327  0.1845
 3510TIP3    H210495   3.423   4.044   0.916 -0.1133 -0.9116  0.1919
 3511TIP3   OH210496   5.826   4.100   1.332 -0.0707 -0.5485  0.0891
 3511TIP3    H110497   5.736   4.133   1.321  0.2860  0.4074 -0.0914
 3511TIP3    H210498   5.816   4.005   1.339 -0.9429 -0.6561 -1.8828
 3512TIP3   OH210499   4.336   0.241   0.956  0.1109  0.4276 -0.6684
 3512TIP3    H110500   4.274   0.308   0.930 -0.4379  0.5705  0.8801
 3512TIP3    H210501   4.305   0.161   0.912 -2.0086  0.1983  1.0355
 3513TIP3   OH210502   0.338   1.935   5.113  0.1453  0.0605 -0.0499
 3513TIP3    H110503   0.374   2.013   5.155  0.8092  0.9244 -2.0636
 3513TIP3    H210504   0.264   1.968   5.062  0.7330 -0.5191 -1.3156
 3514TIP3   OH210505   3.851   6.243   0.572  0.4647  0.2336  0.2810
 3514TIP3    H110506   3.794   6.194   0.513  0.4825  0.7228 -0.1492
 3514TIP3    H210507   3.900   6.302   0.515  2.7369 -1.4098  0.4089
 3515TIP3   OH210508   4.439   5.094   1.015 -0.7239  0.3110  0.6020
 3515TIP3    H110509   4.362   5.149   1.031 -1.3326 -0.4589  0.4196
 3515TIP3    H210510   4.416   5.010   1.055 -0.4854 -0.3055 -0.5207
 3516TIP3   OH210511   6.703   3.509   3.517 -0.0761 -0.0426 -0.8213
 3516TIP3    H110512   6.770   3.577   3.528  0.8811 -0.5102 -3.1051
 3516TIP3    H210513   6.624   3.557   3.492 -0.5946  0.4893  1.5959
 3517TIP3   OH210514   5.472   4.312   0.081  0.3174  0.1897  0.3060
 3517TIP3    H110515   5.405   4.332   0.147 -1.4310 -1.2348 -0.9105
 3517TIP3    H210516   5.490   4.396   0.038  0.6718  0.9239  1.8512
 3518TIP3   OH210517   1.717   6.585   4.730 -0.1698  0.3412 -0.4073
 3518TIP3    H110518   1.745   6.498   4.702  1.0760  0.1967  1.1178
 3518TIP3    H210519   1.686   6.628   4.651 -0.5599 -1.3949 -1.2380
 3519TIP3   OH210520   0.197  -0.024   0.419 -0.3265 -0.1016  0.5353
 3519TIP3    H110521   0.292  -0.033   0.416 -0.2953  0.1001  0.8618
 3519TIP3    H210522   0.182   0.068   0.440 -0.6119  0.1248 -0.5615
 3520TIP3   OH210523   0.607   6.680   0.498  0.0243 -0.1256 -0.0471
 3520TIP3    H110524   0.533   6.659   0.441 -0.1618  0.5792 -0.0773
 3520TIP3    H210525   0.589   6.632   0.579 -0.4322 -0.0190 -0.0791
 3521TIP3   OH210526   5.680   5.625   0.495  0.1265 -0.5740 -0.4915
 3521TIP3    H110527   5.705   5.546   0.448 -0.3126 -0.6808 -0.5539
 3521TIP3    H210528   5.616   5.595   0.560 -0.4737 -0.1893 -0.8968
 3522TIP3   OH210529   6.420   4.892   5.489  0.7634  0.0809  0.8026
 3522TIP3    H110530   6.496   4.912   5.435  1.0248  1.1149  1.5373
 3522TIP3    H210531   6.403   4.799   5.472  0.6140  0.4627 -1.3150
 3523TIP3   OH210532   4.620   1.154   2.181 -0.6301 -0.1326 -0.3298
 3523TIP3    H110533   4.637   1.231   2.234  0.1511 -1.4726  1.4594
 3523TIP3    H210534   4.704   1.110   2.174 -1.5916 -2.4176  1.3540
 3524TIP3   OH210535   6.780   0.975   5.124 -0.7640  0.1617 -0.0188
 3524TIP3    H110536   6.835   0.902   5.093 -0.1597 -0.0855  1.5251
 3524TIP3    H210537   6.797   0.979   5.218  1.0182  3.7603 -0.3066
 3525TIP3   OH210538   3.839   0.181   0.569  0.2212  0.5948  0.0967
 3525TIP3    H110539   3.776   0.138   0.511  0.2158  1.1258 -0.2934
 3525TIP3    H210540   3.807   0.161   0.657  0.5444 -0.6911 -0.0630
 3526TIP3   OH210541   3.637   1.686   5.321  0.1232  0.2688  0.4463
 3526TIP3    H110542   3.626   1.695   5.416  0.3782 -1.5641  0.6749
 3526TIP3    H210543   3.558   1.640   5.293  1.4642 -2.0693  0.2878
 3527TIP3   OH210544   5.907   1.583   4.819 -0.7228 -0.1637  0.2812
 3527TIP3    H110545   5.857   1.661   4.795  0.7241  0.4747 -0.8400
 3527TIP3    H210546   5.890   1.521   4.748 -0.7971 -0.3620  0.4705
 3528TIP3   OH210547   5.233   5.794   4.979  0.3691  0.1582 -0.8278
 3528TIP3    H110548   5.304   5.791   4.916  0.6479  1.1196 -0.5736
 3528TIP3    H210549   5.259   5.862   5.042 -0.8841  0.7074 -0.8730
 3529TIP3   OH210550   6.950   5.342   1.368 -0.6607  0.0582 -0.2659
 3529TIP3    H110551   6.959   5.390   1.450  0.7246 -1.5337  0.5725
 3529TIP3    H210552   6.916   5.256   1.393 -1.4981 -0.0163 -1.5321
 3530TIP3   OH210553   3.299   5.601   4.514  0.1877  0.5856 -0.0059
 3530TIP3    H110554   3.293   5.506   4.508 -2.1893  0.6173  0.7170
 3530TIP3    H210555   3.218   5.627   4.557  0.7313  2.9635 -0.2859
 3531TIP3   OH210556   4.741   3.605   0.900  0.8062  0.0953 -0.1554
 3531TIP3    H110557   4.725   3.654   0.820  2.4077 -0.5762 -0.9366
 3531TIP3    H210558   4.710   3.662   0.971 -3.7250 -0.5748 -1.2988
 3532TIP3   OH210559   0.159   6.213   3.175  0.2189 -0.3917 -0.2751
 3532TIP3    H110560   0.079   6.186   3.130  0.0762 -0.9490  0.2962
 3532TIP3    H210561   0.128   6.268   3.247  0.4949  1.1798 -1.3035
 3533TIP3   OH210562   5.915   0.803   3.118 -0.8042  0.3128  0.3053
 3533TIP3    H110563   5.976   0.859   3.070 -0.2635  0.0948  0.7322
 3533TIP3    H210564   5.850   0.864   3.155  0.1952  0.7658  1.3914
 3534TIP3   OH210565   1.175   5.788   1.993  0.4193 -0.0745 -0.1896
 3534TIP3    H110566   1.120   5.859   2.026 -0.4018 -1.1050  0.7294
 3534TIP3    H210567   1.114   5.715   1.979  1.2392 -0.6034 -1.1420
 3535TIP3   OH210568   6.582   0.166   4.248 -0.6282 -0.4265 -0.3953
 3535TIP3    H110569   6.582   0.258   4.220  0.2089 -0.0623  0.7310
 3535TIP3    H210570   6.498   0.132   4.218 -0.3054  0.2684 -2.2154
 3536TIP3   OH210571   3.153   2.939   2.255 -0.1454 -0.8813 -0.3453
 3536TIP3    H110572   3.155   2.909   2.345  0.2045  1.0504  0.3448
 3536TIP3    H210573   3.166   3.034   2.261 -2.4070 -0.3519 -2.2653
 3537TIP3   OH210574   4.309   2.511   0.086  0.2339 -0.5089  0.4049
 3537TIP3    H110575   4.308   2.444   0.155  0.0173  1.0636  2.0053
 3537TIP3    H210576   4.234   2.490   0.031 -0.6694 -0.7845  1.6934
 3538TIP3   OH210577   0.831   1.110   5.784 -0.4411 -0.3241  0.5388
 3538TIP3    H110578   0.755   1.156   5.821 -0.0073  0.5261  0.3902
 3538TIP3    H210579   0.866   1.170   5.718 -0.0375 -0.9981  0.1271
 3539TIP3   OH210580   2.517   4.163   5.090  0.0717 -0.3242  0.1523
 3539TIP3    H110581   2.492   4.253   5.069  1.7848  0.0228 -0.5909
 3539TIP3    H210582   2.441   4.127   5.135 -1.1278  1.0997 -0.6394
 3540TIP3   OH210583   4.083   2.435   2.345 -0.4498  0.0948 -0.1215
 3540TIP3    H110584   4.130   2.354   2.365 -1.3095 -0.3625  0.0795
 3540TIP3    H210585   4.135   2.476   2.275  0.2951 -0.3442  0.1625
 3541TIP3   OH210586   0.297   2.498   1.909  0.0435  0.0005  0.2966
 3541TIP3    H110587   0.308   2.488   1.815 -0.6085  1.3502  0.0499
 3541TIP3    H210588   0.381   2.531   1.941  1.1776 -2.9593  0.6514
 3542TIP3   OH210589   6.375   3.852   2.243  0.1229  0.5556  0.2450
 3542TIP3    H110590   6.286   3.815   2.243  1.4109 -3.1207 -1.9255
 3542TIP3    H210591   6.407   3.837   2.155  3.6959 -0.5143  1.5381
 3543TIP3   OH210592   2.463   0.938   0.557 -0.1680  0.3118 -0.7399
 3543TIP3    H110593   2.428   0.869   0.614  0.8711 -1.7289 -2.4392
 3543TIP3    H210594   2.466   1.016   0.613 -1.6212 -0.9371  1.1952
 3544TIP3   OH210595   4.843   5.180   0.320 -0.0375  0.5741  0.2672
 3544TIP3    H110596   4.886   5.190   0.405  1.6862  0.7429 -0.5701
 3544TIP3    H210597   4.826   5.269   0.290 -0.0789  0.5331  0.1656
 3545TIP3   OH210598   6.677   1.263   2.454  0.0171  0.1720  0.7538
 3545TIP3    H110599   6.666   1.168   2.453  0.6601  0.0938 -0.5591
 3545TIP3    H210600   6.768   1.276   2.480 -0.0647  0.4379  0.9140
 3546TIP3   OH210601   1.975   3.035   0.541  0.1653  0.1470 -0.3862
 3546TIP3    H110602   2.059   2.994   0.562  0.3198  0.7949  0.2700
 3546TIP3    H210603   1.969   3.110   0.599 -1.8221 -1.0634  1.1162
 3547TIP3   OH210604   3.325   3.809   2.507 -0.2608  0.1570  0.0362
 3547TIP3    H110605   3.383   3.804   2.582  1.9336  2.6001 -1.3539
 3547TIP3    H210606   3.372   3.764   2.437 -0.7330  0.7710 -0.6973
 3548TIP3   OH210607   5.039   6.127   5.089  0.1873  0.7091  0.1421
 3548TIP3    H110608   4.989   6.207   5.101  1.9956  1.8824  0.0946
 3548TIP3    H210609   5.105   6.149   5.023  0.1259 -1.1135 -0.5999
 3549TIP3   OH210610   1.864   0.185   1.887 -0.2979  0.0469 -0.1740
 3549TIP3    H110611   1.842   0.104   1.932  0.9287 -0.9624 -1.2794
 3549TIP3    H210612   1.924   0.230   1.946  0.3029 -0.6614 -0.2221
 3550TIP3   OH210613   4.044   3.580   1.946  0.3717  0.0421  0.0076
 3550TIP3    H110614   3.954   3.577   1.914  0.2065  1.1747  0.3183
 3550TIP3    H210615   4.037   3.616   2.035  1.0282 -0.9258  0.4738
 3551TIP3   OH210616   5.524   4.202   1.763 -0.5616  0.3795  0.2990
 3551TIP3    H110617   5.614   4.232   1.755  0.0438 -1.0834  1.1593
 3551TIP3    H210618   5.500   4.173   1.675 -0.3368  1.1349 -0.0144
 3552TIP3   OH210619   2.105   2.443   3.813  0.2681 -0.0000 -0.0080
 3552TIP3    H110620   2.045   2.368   3.820  0.2750  0.0321  0.4239
 3552TIP3    H210621   2.168   2.417   3.746 -1.4025  0.7823 -2.0060
 3553TIP3   OH210622   6.687   1.845   2.117 -0.2268 -0.3567  0.7823
 3553TIP3    H110623   6.647   1.903   2.053 -0.7776  0.2128  1.6275
 3553TIP3    H210624   6.739   1.784   2.065 -0.0199  0.5899 -0.1493
 3554TIP3   OH210625   2.607   0.013   3.459  0.2544 -0.0859  0.0913
 3554TIP3    H110626   2.659   0.005   3.539 -0.1090  0.8219  0.4346
 3554TIP3    H210627   2.622   0.102   3.429 -3.1049  1.1985  1.6682
 3555TIP3   OH210628   6.724   4.676   4.074  0.2231 -0.5515  0.1347
 3555TIP3    H110629   6.757   4.677   4.164  1.1187 -0.5236 -0.1780
 3555TIP3    H210630   6.631   4.656   4.083  0.0968  0.3492  1.1294
 3556TIP3   OH210631   1.960   1.433   1.267  0.4402 -0.2670  0.2216
 3556TIP3    H110632   1.897   1.476   1.210  2.6658  3.5103  0.2765
 3556TIP3    H210633   2.032   1.407   1.209  0.8439 -0.3496  0.7454
 3557TIP3   OH210634   3.894   0.906   5.529 -0.1904  0.1910  0.0444
 3557TIP3    H110635   3.981   0.895   5.492 -0.2828  1.4332 -0.6071
 3557TIP3    H210636   3.848   0.824   5.511 -0.4322  0.9202 -3.1868
 3558TIP3   OH210637   3.436   3.215   0.761  0.5414 -0.3210  0.3970
 3558TIP3    H110638   3.370   3.282   0.779 -0.4109 -1.0779 -0.1434
 3558TIP3    H210639   3.520   3.258   0.778 -0.0593  0.8917  0.3995
 3559TIP3   OH210640   1.453   1.936   4.849 -0.1550 -0.0179  0.3203
 3559TIP3    H110641   1.519   1.911   4.784 -1.2490 -1.1213 -0.4093
 3559TIP3    H210642   1.443   2.031   4.837 -1.7134 -0.4063 -2.5617
 3560TIP3   OH210643   3.140   6.344   4.335 -0.2453 -0.6744 -0.1260
 3560TIP3    H110644   3.193   6.321   4.259 -2.0420 -1.5168 -1.2032
 3560TIP3    H210645   3.082   6.414   4.303 -0.4918 -0.4937  0.6917
 3561TIP3   OH210646   4.723   6.743   0.452  0.0081 -0.1411 -0.4186
 3561TIP3    H110647   4.717   6.680   0.523  0.0020  0.0127 -0.2829
 3561TIP3    H210648   4.817   6.757   0.439 -0.0045  0.5916  0.2329
 3562TIP3   OH210649   0.224   3.536   1.702  0.2566  0.7963  0.4074
 3562TIP3    H110650   0.187   3.481   1.771 -1.9464  0.8590 -0.6244
 3562TIP3    H210651   0.206   3.625   1.731  0.8176  0.8854  0.5000
 3563TIP3   OH210652   0.652   5.162   0.873 -0.7509  0.8588  0.3242
 3563TIP3    H110653   0.641   5.157   0.778  2.4863  1.1227 -0.1773
 3563TIP3    H210654   0.563   5.172   0.907 -2.1177 -0.3592 -2.5684
 3564TIP3   OH210655   2.838   6.463   0.400 -0.2708  0.3621  0.2813
 3564TIP3    H110656   2.848   6.407   0.323  0.4761  0.9366 -0.0556
 3564TIP3    H210657   2.804   6.545   0.366 -0.3024  0.4866  0.6134
 3565TIP3   OH210658   5.737   2.692   3.028  0.1669 -0.5075 -0.1178
 3565TIP3    H110659   5.779   2.761   2.976 -0.4566  0.9625  1.2260
 3565TIP3    H210660   5.803   2.667   3.092 -0.1159 -0.0419  0.3635
 3566TIP3   OH210661   5.722   2.178   3.866  0.3576  0.1551  0.2664
 3566TIP3    H110662   5.802   2.231   3.869  0.7403 -0.3679 -0.4427
 3566TIP3    H210663   5.667   2.222   3.801  1.1421 -0.9352 -1.1711
 3567TIP3   OH210664   3.086   1.334   5.086 -0.2240  0.3706  0.2043
 3567TIP3    H110665   3.006   1.304   5.129 -0.4548 -1.8203 -1.5967
 3567TIP3    H210666   3.056   1.398   5.022 -0.4114  0.2331  0.1547
 3568TIP3   OH210667   1.338   3.105   1.715 -0.0618 -0.0988 -0.4627
 3568TIP3    H110668   1.366   3.022   1.677 -0.4555 -0.0193 -0.9251
 3568TIP3    H210669   1.243   3.099   1.718 -0.1317  0.5875 -1.0744
 3569TIP3   OH210670   3.756   1.500   4.645 -0.0674  0.1659  0.0366
 3569TIP3    H110671   3.737   1.469   4.734  1.1842  0.9146  0.5895
 3569TIP3    H210672   3.690   1.458   4.590  0.2633 -1.7748  1.0549
 3570TIP3   OH210673   5.181   3.444   5.412 -0.0011  0.2967 -0.5115
 3570TIP3    H110674   5.268   3.452   5.452  0.0559  0.4251 -0.6621
 3570TIP3    H210675   5.137   3.377   5.464  0.4290 -0.2658 -0.8573
 3571TIP3   OH210676   2.467   6.622   2.476  0.7572 -0.2171  0.2033
 3571TIP3    H110677   2.519   6.552   2.438 -0.3516 -0.1469 -1.5340
 3571TIP3    H210678   2.528   6.695   2.485  1.5023 -0.8579  0.4002
 3572TIP3   OH210679   5.568   5.757   5.603 -0.1318 -0.0106 -0.4381
 3572TIP3    H110680   5.473   5.746   5.604 -0.0428 -0.8777 -0.7000
 3572TIP3    H210681   5.587   5.805   5.684 -0.8600  0.8471 -0.7606
 3573TIP3   OH210682   0.149   5.931   2.305  0.1079 -0.3330 -0.0793
 3573TIP3    H110683   0.162   6.020   2.272 -0.6763 -0.4833 -0.8242
 3573TIP3    H210684   0.220   5.919   2.369 -0.2248  1.0830  0.5965
 3574TIP3   OH210685   5.881   6.783   4.427  0.1495  0.2728 -0.3726
 3574TIP3    H110686   5.895   6.707   4.483  0.0979 -0.8677 -1.8225
 3574TIP3    H210687   5.968   6.806   4.395  0.0516  0.2030 -0.6937
 3575TIP3   OH210688   0.117   3.436   1.081  0.1079 -0.0252  0.0646
 3575TIP3    H110689   0.054   3.415   1.012 -0.1909  0.5288  0.1568
 3575TIP3    H210690   0.066   3.432   1.161  0.1637  0.5229  0.1307
 3576TIP3   OH210691   4.710   0.500   3.283 -0.1930 -0.4100  0.0139
 3576TIP3    H110692   4.656   0.564   3.238  0.5777  0.3423  0.1200
 3576TIP3    H210693   4.724   0.538   3.370  2.6005  0.7294 -0.8150
 3577TIP3   OH210694   6.054   1.291   4.653 -0.2087 -0.6215 -0.3666
 3577TIP3    H110695   5.977   1.348   4.655 -0.2837 -0.7470  2.0066
 3577TIP3    H210696   6.068   1.266   4.744  1.5106 -2.1522 -1.0049
 3578TIP3   OH210697   0.990   0.825   3.532  0.3141  0.0907  0.4635
 3578TIP3    H110698   0.967   0.743   3.489  0.4255  0.1078  0.3694
 3578TIP3    H210699   1.037   0.875   3.465  1.2230 -0.2224  0.8410
 3579TIP3   OH210700   4.491   4.783   4.409  0.7549 -0.0861  0.4675
 3579TIP3    H110701   4.494   4.694   4.375  0.7732 -0.5845  1.7564
 3579TIP3    H210702   4.581   4.801   4.436  1.0752  0.8617 -1.0597
 3580TIP3   OH210703   4.496   3.614   4.196 -0.4406  0.3990 -0.2223
 3580TIP3    H110704   4.503   3.519   4.196 -1.3042  0.3227 -0.0935
 3580TIP3    H210705   4.402   3.631   4.206 -0.3975  1.2524 -1.0964
 3581TIP3   OH210706   1.078   2.532   2.814 -0.5899  0.7090  0.3340
 3581TIP3    H110707   1.064   2.610   2.867  0.3335  0.5998  0.7591
 3581TIP3    H210708   1.064   2.459   2.874 -1.2875  0.5379 -0.0211
 3582TIP3   OH210709   6.124   1.945   3.421 -0.2718  0.2132  0.4040
 3582TIP3    H110710   6.100   1.955   3.513  0.0320 -1.5555  0.7191
 3582TIP3    H210711   6.058   1.887   3.385  0.5888 -0.5285 -0.0263
 3583TIP3   OH210712   1.124   2.246   3.239 -0.1041  0.4543  0.0783
 3583TIP3    H110713   1.124   2.289   3.324 -1.0475  2.3173 -0.8087
 3583TIP3    H210714   1.215   2.247   3.211  0.3039 -0.6649  1.2558
 3584TIP3   OH210715   0.819   4.363   1.114  0.3451 -0.3228  0.1060
 3584TIP3    H110716   0.868   4.414   1.049 -0.9183  0.2094 -0.4680
 3584TIP3    H210717   0.743   4.418   1.135 -1.4306 -2.1903 -1.0115
 3585TIP3   OH210718   0.644   0.128   4.196 -0.2926  0.5167 -0.5113
 3585TIP3    H110719   0.720   0.076   4.219 -1.1485 -0.5248  0.0398
 3585TIP3    H210720   0.610   0.088   4.115 -0.1808  1.0659 -0.8391
 3586TIP3   OH210721   1.537   5.668   0.522  0.4315 -0.4181  0.2919
 3586TIP3    H110722   1.536   5.572   0.528 -0.4707 -0.3314  1.9862
 3586TIP3    H210723   1.465   5.696   0.578  0.2509  1.2496 -0.7259
 3587TIP3   OH210724   7.120   4.458   1.267 -0.0891  0.2374 -0.6747
 3587TIP3    H110725   7.049   4.478   1.328  0.6970 -0.2145  0.4375
 3587TIP3    H210726   7.094   4.499   1.185 -1.2438  0.7742 -0.0655
 3588TIP3   OH210727   4.225   2.987   2.846  0.6595  0.0166 -0.0339
 3588TIP3    H110728   4.255   2.899   2.826  1.2820  0.1357  0.3686
 3588TIP3    H210729   4.191   2.982   2.936  1.4959  0.3780  0.3114
 3589TIP3   OH210730   7.066   4.718   2.937  0.2137 -0.5735 -0.4176
 3589TIP3    H110731   7.079   4.633   2.895  0.1259 -1.5392  1.4207
 3589TIP3    H210732   7.043   4.776   2.865  0.5926 -2.0160 -1.7781
 3590TIP3   OH210733   5.861   4.077   3.442 -0.4572 -0.0039 -0.1213
 3590TIP3    H110734   5.946   4.036   3.454 -0.6698 -1.0519 -1.8184
 3590TIP3    H210735   5.832   4.099   3.530  1.3834  0.0371  0.5250
 3591TIP3   OH210736   4.722   1.317   3.631 -0.4560 -0.4481 -0.1935
 3591TIP3    H110737   4.787   1.253   3.657 -0.7800  0.0746  2.1304
 3591TIP3    H210738   4.762   1.402   3.650 -1.3076 -0.0708 -0.0144
 3592TIP3   OH210739   1.162   0.222   5.695  0.3066  0.0348 -0.7222
 3592TIP3    H110740   1.167   0.211   5.790 -2.9445  1.6063 -0.2195
 3592TIP3    H210741   1.087   0.167   5.669  0.1436  0.8767 -2.1116
 3593TIP3   OH210742   0.785   1.362   2.228 -0.3120 -0.6498  0.0525
 3593TIP3    H110743   0.706   1.350   2.282  1.5207 -0.4652  2.9955
 3593TIP3    H210744   0.765   1.440   2.175 -2.2187 -0.7973  0.4620
 3594TIP3   OH210745   2.918  -0.016   1.298  0.0872 -0.3371  0.0044
 3594TIP3    H110746   2.888   0.041   1.227 -3.3191  0.0418  1.5582
 3594TIP3    H210747   2.962   0.043   1.359  0.4491 -0.1706 -0.4086
 3595TIP3   OH210748   2.871   5.788   4.872 -0.4126  0.1655  0.2217
 3595TIP3    H110749   2.900   5.874   4.900  3.7576 -0.8881 -0.1510
 3595TIP3    H210750   2.844   5.799   4.781  1.8750  0.8726 -0.4317
 3596TIP3   OH210751   5.171   4.559   2.946 -0.3307 -0.5914 -0.2202
 3596TIP3    H110752   5.266   4.553   2.958 -0.1942 -1.7340 -1.6418
 3596TIP3    H210753   5.135   4.525   3.028  0.4985 -1.0807 -0.0419
 3597TIP3   OH210754   6.763   5.959   1.892  0.2040  0.1207  0.7670
 3597TIP3    H110755   6.710   5.959   1.813  0.6191 -0.6590  0.4811
 3597TIP3    H210756   6.842   6.008   1.868 -0.7317  2.0980  1.4625
 3598TIP3   OH210757   2.405   4.873   3.093 -0.2871  0.0640 -0.1938
 3598TIP3    H110758   2.410   4.934   3.167 -1.0701  2.7466 -2.2243
 3598TIP3    H210759   2.419   4.927   3.016  1.6123 -2.8202 -2.0418
 3599TIP3   OH210760   1.525   3.211   0.232  0.1692 -0.0717 -0.3616
 3599TIP3    H110761   1.461   3.204   0.304 -0.4091  2.0194 -0.6023
 3599TIP3    H210762   1.476   3.187   0.154 -0.1291  0.7674 -0.4437
 3600TIP3   OH210763   0.337   1.209   1.640  0.5141 -0.1777  0.2613
 3600TIP3    H110764   0.400   1.276   1.615 -0.2875  1.0761  1.4536
 3600TIP3    H210765   0.283   1.196   1.562  1.9342 -0.9631 -0.6350
 3601TIP3   OH210766   1.812   2.804   1.940  0.0343 -0.1869 -0.3145
 3601TIP3    H110767   1.727   2.840   1.965 -0.0411 -1.8291  2.1066
 3601TIP3    H210768   1.852   2.872   1.885 -2.3805  1.0550 -0.6571
 3602TIP3   OH210769   5.019   3.198   0.098  0.2299  0.3888  0.4011
 3602TIP3    H110770   4.982   3.216   0.185 -0.7522 -2.2373  0.6241
 3602TIP3    H210771   4.969   3.255   0.039 -0.9166  0.3319  1.2735
 3603TIP3   OH210772   6.908   2.196   2.002  0.1585  0.5094 -0.7215
 3603TIP3    H110773   6.991   2.203   2.050 -0.0630  0.4258 -0.3155
 3603TIP3    H210774   6.917   2.117   1.950  0.8208  1.1814 -1.6539
 3604TIP3   OH210775   6.182   3.728   3.581  0.5145  0.1580  0.0736
 3604TIP3    H110776   6.253   3.697   3.526  0.3980 -0.4799  0.2715
 3604TIP3    H210777   6.112   3.664   3.568  0.2317  0.3936  0.4138
 3605TIP3   OH210778   4.615   2.568   1.694  0.1535 -0.1354  0.2230
 3605TIP3    H110779   4.675   2.560   1.620 -0.3041 -0.9802 -0.0712
 3605TIP3    H210780   4.536   2.607   1.656 -0.4301 -1.4267  0.0368
 3606TIP3   OH210781   0.775   2.050   0.378 -0.4872  0.5371  0.0586
 3606TIP3    H110782   0.780   1.992   0.302 -2.5129  1.7895 -1.1131
 3606TIP3    H210783   0.841   2.015   0.439  1.5766 -0.2164 -2.4161
 3607TIP3   OH210784   5.330   3.821   3.647  0.4293 -0.6703 -0.0142
 3607TIP3    H110785   5.361   3.796   3.734  0.8244 -1.0875 -0.2696
 3607TIP3    H210786   5.409   3.844   3.599  0.1753 -0.0841 -0.1516
 3608TIP3   OH210787   5.724   6.479   1.545 -0.2281 -1.0600  0.3236
 3608TIP3    H110788   5.814   6.447   1.555  0.2953  0.5014  0.8054
 3608TIP3    H210789   5.700   6.514   1.630 -0.6040  0.2414 -0.2903
 3609TIP3   OH210790   2.169   5.581   1.786 -0.5259  0.6253 -0.2013
 3609TIP3    H110791   2.120   5.512   1.830  0.4506  1.5788  2.5922
 3609TIP3    H210792   2.261   5.552   1.790 -0.1638  1.7943  0.5572
 3610TIP3   OH210793   5.438   1.901   2.482  0.2096  0.0570  0.3480
 3610TIP3    H110794   5.463   1.875   2.570  1.0063  1.1127  0.4496
 3610TIP3    H210795   5.389   1.982   2.494 -2.0915 -1.1759  0.0197
 3611TIP3   OH210796   2.047   2.760   2.978 -0.6288  0.0196  0.4102
 3611TIP3    H110797   1.958   2.787   2.953 -1.6103 -1.4018  2.1296
 3611TIP3    H210798   2.041   2.740   3.071  1.4364 -0.4218  0.4996
 3612TIP3   OH210799   6.935   2.899   4.989  0.1193  0.1380 -0.3195
 3612TIP3    H110800   6.952   2.950   5.069  1.1039 -1.4412  0.5381
 3612TIP3    H210801   6.841   2.907   4.976 -0.3600 -0.8282  1.9563
 3613TIP3   OH210802   6.486   1.295   1.749 -0.0900  0.2121 -0.2144
 3613TIP3    H110803   6.436   1.339   1.680 -1.7488  0.1551  0.8942
 3613TIP3    H210804   6.504   1.208   1.713  2.0737  1.2302 -1.8903
 3614TIP3   OH210805   6.279   5.467   0.802  0.5476 -0.3276  0.0226
 3614TIP3    H110806   6.351   5.416   0.838  0.6597  0.1788  0.5269
 3614TIP3    H210807   6.208   5.456   0.865  0.0375 -1.1509 -0.6716
 3615TIP3   OH210808   4.585   4.572   4.619  0.5108 -0.3474  0.2299
 3615TIP3    H110809   4.603   4.548   4.528  0.2365 -0.8032  0.2935
 3615TIP3    H210810   4.518   4.640   4.614 -0.2920 -1.1240  0.1237
 3616TIP3   OH210811   7.033   0.810   4.361  0.0183 -0.5346  0.8183
 3616TIP3    H110812   7.044   0.716   4.342 -0.4989 -0.5837  0.7432
 3616TIP3    H210813   7.034   0.852   4.275 -2.5652 -0.7824  0.5746
 3617TIP3   OH210814   6.770   0.530   0.739  0.0733  0.6149 -0.5822
 3617TIP3    H110815   6.746   0.575   0.658 -1.7833 -0.3966 -0.6605
 3617TIP3    H210816   6.686   0.505   0.778  0.9778 -1.0421  0.4177
 3618TIP3   OH210817   0.105   1.980   4.983  0.2470  0.0932  0.3596
 3618TIP3    H110818   0.073   1.949   4.898 -0.6271 -0.8644  1.0114
 3618TIP3    H210819   0.026   1.987   5.037  0.7912  0.6915  1.1008
 3619TIP3   OH210820   3.173   2.973   0.325 -0.3167  0.7822  0.3851
 3619TIP3    H110821   3.268   2.985   0.330 -0.3250  0.9579  0.0685
 3619TIP3    H210822   3.138   3.061   0.320 -0.4098  0.6717 -1.1962
 3620TIP3   OH210823   0.500   4.767   5.677  0.2065  0.4415 -0.7132
 3620TIP3    H110824   0.485   4.861   5.669  0.6252  0.6479  0.7706
 3620TIP3    H210825   0.494   4.749   5.771 -1.8996 -1.3729 -1.1013
 3621TIP3   OH210826   1.818   3.032   3.238 -0.7750 -0.0453  0.1596
 3621TIP3    H110827   1.840   3.090   3.166  0.3554 -0.4714  0.1413
 3621TIP3    H210828   1.896   3.033   3.294 -1.0244 -0.9686  0.5351
 3622TIP3   OH210829   6.796   0.947   1.685  0.1302  0.4549 -0.5516
 3622TIP3    H110830   6.840   0.863   1.701  1.5483  1.4961  1.3596
 3622TIP3    H210831   6.826   0.973   1.598  0.4750 -0.5222 -0.7397
 3623TIP3   OH210832   0.136   2.184   5.309 -0.2390 -0.0942 -0.8356
 3623TIP3    H110833   0.052   2.157   5.344 -0.5759 -0.3880 -1.8300
 3623TIP3    H210834   0.132   2.161   5.216  1.3135 -1.0402 -0.7079
 3624TIP3   OH210835   6.497   2.616   4.390 -0.0661  0.5889  0.4188
 3624TIP3    H110836   6.583   2.597   4.429  0.1658  0.7086 -0.0230
 3624TIP3    H210837   6.497   2.569   4.307 -1.1727 -0.9331  1.2429
 3625TIP3   OH210838   2.463   1.368   1.934  0.7168 -0.3608  0.3901
 3625TIP3    H110839   2.530   1.414   1.985 -1.3152  1.2086  1.8497
 3625TIP3    H210840   2.386   1.425   1.940 -0.5547 -1.7135 -1.8325
 3626TIP3   OH210841   6.046   6.655   3.140 -0.3360 -0.3590 -0.3411
 3626TIP3    H110842   6.135   6.683   3.160 -0.9119  1.7995 -0.5963
 3626TIP3    H210843   6.004   6.647   3.226 -0.2771 -0.0051 -0.2776
 3627TIP3   OH210844   6.297   2.320   3.122  0.3646 -0.3608 -0.2903
 3627TIP3    H110845   6.340   2.240   3.090  0.9332 -1.8980  3.6679
 3627TIP3    H210846   6.217   2.288   3.164 -1.1314  1.6508 -1.4682
 3628TIP3   OH210847   5.191   6.451   1.275 -0.1504 -0.0751 -0.1417
 3628TIP3    H110848   5.102   6.419   1.289 -0.7918  1.3268 -0.7891
 3628TIP3    H210849   5.218   6.486   1.360  0.1948 -1.4096  0.3199
 3629TIP3   OH210850   2.242   0.111   2.189 -0.3016  0.1305 -0.4919
 3629TIP3    H110851   2.274   0.074   2.107  0.2561 -1.0431  0.2482
 3629TIP3    H210852   2.241   0.206   2.173  2.6419  0.1693 -0.8636
 3630TIP3   OH210853   5.103   3.931   0.963  0.0338  0.3017  0.1824
 3630TIP3    H110854   5.167   3.982   1.012 -1.4309  0.9285  1.4924
 3630TIP3    H210855   5.076   3.861   1.023  1.1508 -1.3900 -1.1752
 3631TIP3   OH210856   1.092   4.724   0.740  0.3521 -0.0240 -0.0702
 3631TIP3    H110857   1.092   4.819   0.729  0.2803  0.3345  2.3817
 3631TIP3    H210858   1.004   4.697   0.714 -0.9819  1.1770  2.7597
 3632TIP3   OH210859   2.332   4.264   0.312 -0.3118 -0.7332  0.1314
 3632TIP3    H110860   2.337   4.235   0.403 -0.6372  0.0325  0.3991
 3632TIP3    H210861   2.343   4.359   0.316  0.7014 -0.7971 -0.7256
 3633TIP3   OH210862   6.434   2.347   0.166  0.0303  0.1976 -0.4839
 3633TIP3    H110863   6.443   2.330   0.260  3.2901 -1.7969 -0.9998
 3633TIP3    H210864   6.463   2.438   0.156 -1.9692  1.0115  0.5515
 3634TIP3   OH210865   5.113   0.056   3.344  0.4947 -0.4606 -0.3413
 3634TIP3    H110866   5.143   0.137   3.302 -1.1177  0.6737  0.6299
 3634TIP3    H210867   5.148   0.060   3.433 -1.3023  0.2399  0.3830
 3635TIP3   OH210868   6.915   4.814   1.030 -0.0908  0.4795 -0.4788
 3635TIP3    H110869   6.984   4.770   1.080 -1.9628 -1.4701  0.5434
 3635TIP3    H210870   6.939   4.907   1.032  2.0196 -0.0242  0.5422
 3636TIP3   OH210871   0.395   5.616   1.747  0.2695  0.1803  0.3783
 3636TIP3    H110872   0.351   5.589   1.666  0.0347 -1.8564  1.1298
 3636TIP3    H210873   0.397   5.712   1.742 -1.7094  0.2119 -0.9998
 3637TIP3   OH210874   3.991   4.701   3.567 -0.0520  0.3487 -0.2527
 3637TIP3    H110875   3.973   4.687   3.660  0.2000  0.2464 -0.2176
 3637TIP3    H210876   3.971   4.618   3.525 -2.7655  1.1308 -0.7108
 3638TIP3   OH210877   5.165   1.028   1.447 -0.8536  0.4733 -0.1837
 3638TIP3    H110878   5.191   1.009   1.356 -1.6448  1.1470 -0.5592
 3638TIP3    H210879   5.070   1.037   1.443 -1.0260 -0.6172  0.9317
 3639TIP3   OH210880   4.839   3.697   3.859  0.2327  0.3166 -0.8325
 3639TIP3    H110881   4.749   3.689   3.890  0.4952 -0.9158 -0.3455
 3639TIP3    H210882   4.888   3.731   3.934  0.3041  0.3081 -0.8751
 3640TIP3   OH210883   6.816   6.757   5.058  0.7034 -0.2150 -0.0952
 3640TIP3    H110884   6.869   6.825   5.100 -0.6128  0.4156  0.6149
 3640TIP3    H210885   6.726   6.779   5.083  0.2018 -1.8967 -0.3494
 3641TIP3   OH210886   4.188   3.068   2.535 -0.1131 -0.0475  0.3772
 3641TIP3    H110887   4.277   3.040   2.558 -1.2598 -3.6909  0.9346
 3641TIP3    H210888   4.164   3.130   2.604  0.7446 -1.8068  2.3586
 3642TIP3   OH210889   6.850   5.339   3.643 -0.0246 -0.2412 -0.5199
 3642TIP3    H110890   6.897   5.255   3.642  2.3549  1.0094 -1.4098
 3642TIP3    H210891   6.917   5.404   3.665 -1.4202  1.6197 -1.4476
 3643TIP3   OH210892   3.272   5.690   5.600 -0.4235 -0.6709  0.4324
 3643TIP3    H110893   3.341   5.687   5.534 -0.7128 -0.4831  0.1171
 3643TIP3    H210894   3.261   5.599   5.627  0.7317 -0.5669  1.3154
 3644TIP3   OH210895   2.328   6.648   4.705  0.4314 -0.1963  0.1835
 3644TIP3    H110896   2.319   6.715   4.637 -3.1942 -0.9368 -0.2338
 3644TIP3    H210897   2.316   6.695   4.787 -1.7009 -0.1746 -0.0907
 3645TIP3   OH210898   0.630   1.832   2.343 -0.4143 -0.4133 -0.3123
 3645TIP3    H110899   0.711   1.814   2.294 -0.1844  2.1183 -1.0296
 3645TIP3    H210900   0.560   1.823   2.278 -0.3527  0.4451 -0.5225
 3646TIP3   OH210901   5.953   1.179   4.021 -0.7369  0.0013  0.1034
 3646TIP3    H110902   5.909   1.256   3.984 -1.8427  0.9435  3.0548
 3646TIP3    H210903   5.883   1.133   4.068 -0.0095 -2.6858 -1.2566
 3647TIP3   OH210904   1.963   2.727   2.354 -0.1671  0.4659 -0.4086
 3647TIP3    H110905   2.023   2.730   2.280  1.0766  0.3514  0.5748
 3647TIP3    H210906   2.007   2.776   2.424  0.0895 -1.9545  1.2360
 3648TIP3   OH210907   2.927   1.182   3.557 -0.0898 -0.1381 -0.2550
 3648TIP3    H110908   2.863   1.124   3.597 -0.4279 -0.4312 -1.1983
 3648TIP3    H210909   2.903   1.270   3.588  0.0685 -0.4179  0.7053
 3649TIP3   OH210910   2.654   3.357   1.287  0.2644 -0.3846  0.3441
 3649TIP3    H110911   2.592   3.297   1.329  1.5701 -1.0377  1.4030
 3649TIP3    H210912   2.653   3.331   1.195 -1.7062  0.2323  0.1574
 3650TIP3   OH210913   4.729   3.700   1.479 -0.0281  0.4531  0.5576
 3650TIP3    H110914   4.821   3.706   1.453  0.4130 -1.5125  1.5015
 3650TIP3    H210915   4.683   3.759   1.419  2.1462  3.7659  1.8512
 3651TIP3   OH210916   4.031   5.055   0.700 -0.3848 -0.1563  0.3911
 3651TIP3    H110917   4.024   5.015   0.787 -0.7335  0.4148  0.6323
 3651TIP3    H210918   3.953   5.026   0.654 -0.9731  0.7473  0.7860
 3652TIP3   OH210919   0.994   4.583   1.732  0.2450 -0.0699  0.0422
 3652TIP3    H110920   0.922   4.598   1.670 -0.9104 -0.6958  1.1909
 3652TIP3    H210921   0.973   4.499   1.772  2.0013 -0.5882 -0.0775
 3653TIP3   OH210922   2.958   4.110   1.973  0.0529 -0.2980 -0.2964
 3653TIP3    H110923   3.026   4.087   1.909 -0.0878 -1.0955 -0.1730
 3653TIP3    H210924   2.878   4.118   1.922  0.1930  0.4080 -0.4086
 3654TIP3   OH210925   0.727   5.086   5.738  0.2790 -0.5662  0.0235
 3654TIP3    H110926   0.778   5.014   5.701  1.3304  0.2794 -0.2085
 3654TIP3    H210927   0.787   5.160   5.740 -1.0704  0.6124 -0.7260
 3655TIP3   OH210928   1.395   2.167   1.456  0.4747 -0.2283 -0.4772
 3655TIP3    H110929   1.478   2.187   1.412 -0.3551 -0.1361 -2.0801
 3655TIP3    H210930   1.346   2.116   1.392 -0.5343 -0.6700  0.6249
 3656TIP3   OH210931   3.804   4.880   1.680 -0.1250 -0.6341 -0.1893
 3656TIP3    H110932   3.786   4.814   1.747  1.2897  1.2205  2.2007
 3656TIP3    H210933   3.863   4.942   1.724 -4.8754  4.9120 -0.4189
 3657TIP3   OH210934   3.243   3.527   5.705  0.1819  0.6704 -0.0099
 3657TIP3    H110935   3.323   3.479   5.685  0.6684  1.5389 -0.2357
 3657TIP3    H210936   3.196   3.530   5.622 -0.8796 -1.2341  0.4910
 3658TIP3   OH210937   5.697   0.944   1.035 -0.3022 -0.0750  0.1926
 3658TIP3    H110938   5.731   0.962   1.123  1.5203  0.0978 -0.5169
 3658TIP3    H210939   5.744   1.005   0.978 -0.2011 -1.3360 -1.1349
 3659TIP3   OH210940   0.681   1.431   3.169 -0.2432 -0.1641 -0.0765
 3659TIP3    H110941   0.681   1.342   3.134 -0.4479  0.0727 -0.6915
 3659TIP3    H210942   0.724   1.484   3.101 -2.1078  0.5827 -0.7593
 3660TIP3   OH210943   3.525   4.748   1.117 -0.0247 -0.0327 -0.1916
 3660TIP3    H110944   3.493   4.837   1.104  0.2594  0.1914  0.6270
 3660TIP3    H210945   3.449   4.693   1.097 -0.5855  0.4482  0.5625
 3661TIP3   OH210946   0.011   1.842   2.693 -0.2433  0.2252  0.3487
 3661TIP3    H110947   0.057   1.845   2.777  0.0296 -0.1346  0.2127
 3661TIP3    H210948  -0.016   1.933   2.677 -0.8321  0.1950  1.1207
 3662TIP3   OH210949   3.618   3.866   5.103  0.1948 -0.5731 -0.0765
 3662TIP3    H110950   3.530   3.903   5.109  0.3398 -0.3096  0.5027
 3662TIP3    H210951   3.628   3.841   5.011  0.1217  0.8778 -0.4962
 3663TIP3   OH210952   0.313   5.878   2.545  0.4936 -0.7507 -0.3237
 3663TIP3    H110953   0.306   5.886   2.641 -0.0145  1.6943 -0.4956
 3663TIP3    H210954   0.406   5.868   2.528  0.8299  0.8863  0.3683
 3664TIP3   OH210955   0.343   0.482   5.032  0.8131 -0.3095 -0.4223
 3664TIP3    H110956   0.373   0.395   5.059  0.9616  0.2088  1.1809
 3664TIP3    H210957   0.251   0.485   5.057  1.2655  0.6266  1.3187
 3665TIP3   OH210958   2.910   2.793   1.370 -0.0263  0.2992  0.0928
 3665TIP3    H110959   2.959   2.723   1.327  1.1452  2.3302 -2.1340
 3665TIP3    H210960   2.839   2.749   1.416  1.4160 -2.4138 -0.1080
 3666TIP3   OH210961   0.543   3.054   4.010 -0.5707 -0.2074 -0.1545
 3666TIP3    H110962   0.569   3.110   4.082 -1.7640 -0.5946  0.6113
 3666TIP3    H210963   0.572   3.100   3.931  2.0534 -0.4572  0.5797
 3667TIP3   OH210964   2.067   5.195   5.633  0.2648 -0.7014 -0.2217
 3667TIP3    H110965   2.050   5.101   5.627 -1.5194 -0.5211  1.1774
 3667TIP3    H210966   1.993   5.229   5.684  1.9838  1.1432  1.1516
 3668TIP3   OH210967   2.701   0.298   5.628 -0.5387  0.0323  0.2488
 3668TIP3    H110968   2.730   0.354   5.700  0.0177  0.4407 -0.2783
 3668TIP3    H210969   2.627   0.345   5.590  0.4608  0.8991 -0.7406
 3669TIP3   OH210970   0.039   0.718   3.576  0.6636 -0.2670 -0.1770
 3669TIP3    H110971   0.041   0.796   3.631 -0.4239 -0.7504  0.5969
 3669TIP3    H210972  -0.030   0.736   3.512  2.7524  0.8096 -2.2553
 3670TIP3   OH210973   6.606   2.546   1.960 -0.4964  0.2615  0.4528
 3670TIP3    H110974   6.612   2.588   1.874 -0.8261 -0.6714 -0.0419
 3670TIP3    H210975   6.668   2.594   2.015 -1.4365  1.9009  0.1370
 3671TIP3   OH210976   4.308   1.376   4.574 -0.2478  0.3574  0.3897
 3671TIP3    H110977   4.316   1.471   4.563 -0.4579  0.3346  0.0028
 3671TIP3    H210978   4.328   1.361   4.666  1.1007  0.6270  0.1702
 3672TIP3   OH210979   5.818   5.035   5.470  1.0656 -0.2908 -0.9460
 3672TIP3    H110980   5.869   5.116   5.466  0.5901  0.0280 -0.7151
 3672TIP3    H210981   5.865   4.981   5.533  0.6742  0.3256 -0.1047
 3673TIP3   OH210982   1.081   4.317   4.504  0.5910  0.1095  0.4500
 3673TIP3    H110983   1.159   4.348   4.550  0.3207 -1.4367  2.0434
 3673TIP3    H210984   1.107   4.232   4.468  0.7524  1.1910 -2.2549
 3674TIP3   OH210985   6.835   3.243   2.931  0.1142 -0.4040  0.0789
 3674TIP3    H110986   6.833   3.152   2.962  1.2412 -0.7554 -0.7982
 3674TIP3    H210987   6.879   3.238   2.846  0.8969  1.0526  0.3654
 3675TIP3   OH210988   3.612   5.489   5.332  0.7695 -0.0774 -0.1912
 3675TIP3    H110989   3.555   5.421   5.296 -1.1733  0.9853  0.7211
 3675TIP3    H210990   3.652   5.448   5.409 -2.2801  0.4118  1.8325
 3676TIP3   OH210991   2.220   1.599   1.158 -0.3405 -0.6181 -0.4289
 3676TIP3    H110992   2.250   1.510   1.143 -0.9799 -0.7386 -1.0265
 3676TIP3    H210993   2.271   1.629   1.234  0.2496 -1.3029 -0.5441
 3677TIP3   OH210994   6.234   0.430   4.975  0.0727 -0.1226  0.1520
 3677TIP3    H110995   6.294   0.356   4.965  0.1978  0.2570 -2.6733
 3677TIP3    H210996   6.152   0.390   5.007  1.3951 -0.7643  3.0971
 3678TIP3   OH210997   5.401   0.154   2.483 -0.3546  0.1124  1.3345
 3678TIP3    H110998   5.332   0.183   2.543 -0.1752 -0.3634  1.7855
 3678TIP3    H210999   5.445   0.083   2.531 -2.6970 -3.0840 -0.8099
 3679TIP3   OH211000   1.377   0.370   5.061  0.2091 -0.0906 -1.1993
 3679TIP3    H111001   1.318   0.332   4.996  0.0541 -0.1805 -1.0079
 3679TIP3    H211002   1.457   0.389   5.012 -0.8282  2.4825 -2.0821
 3680TIP3   OH211003   4.908   6.593   3.881 -0.4141  0.1345 -0.4815
 3680TIP3    H111004   4.863   6.545   3.812  1.3296 -1.2264 -0.7395
 3680TIP3    H211005   5.001   6.580   3.863  0.1099 -0.1099  2.0030
 3681TIP3   OH211006   6.295   0.392   5.294 -0.1572 -0.6506  0.1503
 3681TIP3    H111007   6.325   0.375   5.383  1.9951 -0.4581 -0.4681
 3681TIP3    H211008   6.265   0.483   5.295  0.3616 -0.4824  0.5536
 3682TIP3   OH211009   5.022   3.183   5.458  0.5438  0.1587 -0.1140
 3682TIP3    H111010   5.076   3.156   5.384  0.1891  1.7314 -0.9951
 3682TIP3    H211011   4.932   3.168   5.429  0.4214 -0.0193  0.3415
 3683TIP3   OH211012   4.770   6.660   2.861  0.3328 -0.3565 -0.6470
 3683TIP3    H111013   4.762   6.599   2.934  1.7098 -1.3014 -1.2290
 3683TIP3    H211014   4.845   6.715   2.884  0.1423  0.0125 -0.8955
 3684TIP3   OH211015   1.729   0.982   2.747 -0.2929 -0.5847  0.1256
 3684TIP3    H111016   1.640   0.980   2.714 -1.3303 -0.1048  2.6222
 3684TIP3    H211017   1.774   0.911   2.702 -1.7393 -0.4295 -1.6470
 3685TIP3   OH211018   2.901   5.777   4.333 -0.2086  0.1513  0.0106
 3685TIP3    H111019   2.958   5.747   4.263  0.9685  0.5630  0.7543
 3685TIP3    H211020   2.821   5.725   4.324 -0.0800  0.1781 -1.5976
 3686TIP3   OH211021   4.769   2.834   1.880  0.6070  0.1446  0.2600
 3686TIP3    H111022   4.862   2.826   1.856  0.6074  1.4606 -0.2488
 3686TIP3    H211023   4.723   2.829   1.796  0.3354  1.0250  0.3482
 3687TIP3   OH211024   3.652   4.043   4.825  0.2893 -0.3097 -0.2250
 3687TIP3    H111025   3.716   4.096   4.777  0.3901 -0.8585 -0.7145
 3687TIP3    H211026   3.634   4.093   4.905 -0.3589  0.9265 -1.1230
 3688TIP3   OH211027   0.134   6.007   5.523 -0.0264 -0.3513 -0.0052
 3688TIP3    H111028   0.145   6.089   5.475  0.4260 -0.0679  0.5731
 3688TIP3    H211029   0.210   6.003   5.581 -0.9014 -0.3480  1.1777
 3689TIP3   OH211030   1.650   1.523   1.474 -0.0316 -0.1700  0.4509
 3689TIP3    H111031   1.658   1.433   1.443  0.2875  0.3708 -1.1263
 3689TIP3    H211032   1.590   1.517   1.549  0.7966 -1.8119  1.0391
 3690TIP3   OH211033   5.585   3.788   0.484 -0.6625 -0.0419 -0.4216
 3690TIP3    H111034   5.537   3.706   0.476 -0.6198 -0.2018  0.8311
 3690TIP3    H211035   5.667   3.773   0.438 -0.9546 -0.4462 -0.8223
 3691TIP3   OH211036   6.451   2.918   2.279 -0.3519  0.2083  0.3462
 3691TIP3    H111037   6.372   2.866   2.265 -0.2079  0.3467 -1.1488
 3691TIP3    H211038   6.451   2.937   2.372 -0.7066 -2.0159  0.8511
 3692TIP3   OH211039   1.964   2.285   4.345  0.4606 -0.0219  0.5875
 3692TIP3    H111040   1.983   2.256   4.434  0.7997 -2.7702 -0.2940
 3692TIP3    H211041   2.049   2.310   4.309  0.3867  0.6659  0.8781
 3693TIP3   OH211042   5.702   1.228   3.765 -0.9068  0.3654 -0.1979
 3693TIP3    H111043   5.728   1.293   3.700 -1.9040  0.6285 -0.3337
 3693TIP3    H211044   5.635   1.175   3.723  0.1103 -1.0006 -0.2159
 3694TIP3   OH211045   6.254   1.191   2.218  0.3009  0.3520  0.0390
 3694TIP3    H111046   6.315   1.190   2.144 -1.0454 -1.3220 -1.1339
 3694TIP3    H211047   6.171   1.164   2.180 -0.4008 -0.7484  2.1984
 3695TIP3   OH211048   3.432   6.298   3.300 -0.2145  0.1886 -0.2594
 3695TIP3    H111049   3.517   6.298   3.255  0.1101 -1.0616  0.3060
 3695TIP3    H211050   3.373   6.255   3.238  0.1377 -1.1449  0.2828
 3696TIP3   OH211051   6.227   2.749   1.092  0.2962 -0.1754 -0.3089
 3696TIP3    H111052   6.246   2.719   1.180 -2.9019 -0.9062  0.2477
 3696TIP3    H211053   6.223   2.669   1.039 -0.5060 -0.0161 -0.5066
 3697TIP3   OH211054   3.027   3.000   1.189  0.0102 -0.4995  0.0940
 3697TIP3    H111055   3.088   3.029   1.257 -0.2426  0.8516 -0.2230
 3697TIP3    H211056   2.973   2.933   1.232  0.2898 -0.1366  1.0301
 3698TIP3   OH211057   2.732   4.919   2.106 -0.3562 -0.3139  0.8377
 3698TIP3    H111058   2.779   4.967   2.038 -0.8118 -0.2618  0.5474
 3698TIP3    H211059   2.795   4.908   2.177 -0.0034  0.0038  0.5761
 3699TIP3   OH211060   6.535   6.668   5.096  0.0894  0.4850  0.4229
 3699TIP3    H111061   6.477   6.619   5.038 -0.4879  0.8367  0.6882
 3699TIP3    H211062   6.523   6.759   5.069  0.4334  0.5681  0.5531
 3700TIP3   OH211063   0.547   6.044   4.255  0.4976 -0.1851 -0.6197
 3700TIP3    H111064   0.611   6.070   4.320  1.3347 -0.8000 -1.1719
 3700TIP3    H211065   0.580   6.081   4.173 -0.0669 -0.1671 -0.8421
 3701TIP3   OH211066   6.329   0.778   1.270 -0.2380  0.0694 -0.4557
 3701TIP3    H111067   6.243   0.813   1.246 -1.4545 -0.9010  2.1316
 3701TIP3    H211068   6.331   0.690   1.232 -1.4090 -0.7784  1.3085
 3702TIP3   OH211069   3.372   1.642   1.100  0.6746  0.4619  0.0074
 3702TIP3    H111070   3.306   1.707   1.125  1.0006  0.5737  0.5877
 3702TIP3    H211071   3.453   1.692   1.094  0.5418  0.5246 -1.6968
 3703TIP3   OH211072   0.000   5.071   3.348 -0.1441 -0.4385 -0.2738
 3703TIP3    H111073  -0.022   5.161   3.369  1.7843  0.1259 -0.4315
 3703TIP3    H211074   0.039   5.037   3.428  0.8063 -0.5275 -0.7577
 3704TIP3   OH211075   4.811   3.890   5.735  0.1393 -0.0059 -0.0410
 3704TIP3    H111076   4.824   3.918   5.645 -2.4182 -0.4187 -0.6230
 3704TIP3    H211077   4.866   3.813   5.745  1.0961  0.5394 -0.9705
 3705TIP3   OH211078   3.329   1.838   2.046  0.0035  1.0702 -0.3515
 3705TIP3    H111079   3.351   1.855   2.137 -1.1234 -1.0873  0.4000
 3705TIP3    H211080   3.385   1.765   2.020 -3.3161 -2.1369  0.5161
 3706TIP3   OH211081   3.741   0.795   5.065 -0.1332  0.0749 -0.0164
 3706TIP3    H111082   3.737   0.878   5.112  0.4995  0.0193  0.1428
 3706TIP3    H211083   3.694   0.812   4.983 -2.6013 -0.2570  1.2305
 3707TIP3   OH211084   6.215   2.705   2.730  0.6751 -0.3308 -0.5081
 3707TIP3    H111085   6.294   2.746   2.694  1.7185  0.3683  2.3293
 3707TIP3    H211086   6.196   2.755   2.809 -2.3896 -0.7875 -0.8465
 3708TIP3   OH211087   0.839   1.337   1.104  0.3044  0.1935  0.1213
 3708TIP3    H111088   0.933   1.327   1.119  0.4532 -0.4094 -1.0353
 3708TIP3    H211089   0.801   1.254   1.134  0.6173 -1.0653 -2.5641
 3709TIP3   OH211090   3.359   2.607   0.510  0.1033 -0.4469 -0.6721
 3709TIP3    H111091   3.273   2.585   0.473  0.0209 -1.4823  0.0857
 3709TIP3    H211092   3.352   2.581   0.602  1.3517 -0.8868 -0.6856
 3710TIP3   OH211093   1.724   5.877   4.121 -0.0126  0.1879  0.2059
 3710TIP3    H111094   1.787   5.943   4.151 -0.9607  1.2884 -0.1516
 3710TIP3    H211095   1.668   5.861   4.197  0.0712 -0.0280  0.2219
 3711TIP3   OH211096   4.439   1.911   5.755  0.4388  0.1340 -0.6507
 3711TIP3    H111097   4.463   1.999   5.728 -0.6182  0.1803 -1.4584
 3711TIP3    H211098   4.392   1.874   5.681 -0.2618 -0.6574  0.1539
 3712TIP3   OH211099   0.137   1.740   4.467 -0.0886 -0.0137  0.0793
 3712TIP3    H111100   0.199   1.671   4.492  0.2527 -0.2233 -1.2809
 3712TIP3    H211101   0.055   1.694   4.452  0.1685 -0.1642 -0.9438
 3713TIP3   OH211102   5.834   2.598   5.211  0.7631 -0.1461 -0.6743
 3713TIP3    H111103   5.818   2.679   5.259  1.4842  0.3007 -1.1661
 3713TIP3    H211104   5.906   2.556   5.258  0.4499 -0.4646 -0.4720
 3714TIP3   OH211105   4.953   3.468   3.189 -0.3276  0.1940 -0.5250
 3714TIP3    H111106   4.866   3.497   3.217 -0.3897 -0.9217  0.4836
 3714TIP3    H211107   5.011   3.541   3.211 -0.4222 -0.4815  2.3323
 3715TIP3   OH211108   2.323   6.732   3.332  0.0257 -0.0130  0.1572
 3715TIP3    H111109   2.245   6.687   3.365  0.2143 -0.4679 -0.0007
 3715TIP3    H211110   2.295   6.822   3.317 -0.3283 -0.0470  0.5982
 3716TIP3   OH211111   2.233   0.132   1.616  0.2971 -0.3234  0.4016
 3716TIP3    H111112   2.249   0.218   1.577  0.3292 -0.8797 -0.8505
 3716TIP3    H211113   2.319   0.103   1.647  0.0049  0.8423  2.4928
 3717TIP3   OH211114   0.862   4.076   1.036 -0.2735 -0.4251 -0.1030
 3717TIP3    H111115   0.845   4.167   1.061 -0.7274 -0.0735 -1.5410
 3717TIP3    H211116   0.951   4.078   1.000 -0.0255 -0.7034  0.4803
 3718TIP3   OH211117   5.753   5.952   4.839 -0.2749  0.3951 -0.0735
 3718TIP3    H111118   5.745   6.045   4.863 -1.3044 -0.0596  1.5266
 3718TIP3    H211119   5.800   5.913   4.912  1.9505 -0.0399 -1.6582
 3719TIP3   OH211120   0.047   2.723   0.722 -0.5832 -0.4996 -0.2610
 3719TIP3    H111121  -0.006   2.783   0.669 -1.2637 -1.1133 -0.2924
 3719TIP3    H211122   0.078   2.657   0.660 -0.0329 -0.3161 -0.1846
 3720TIP3   OH211123   1.392   6.477   0.995 -0.3241  0.0847 -0.4700
 3720TIP3    H111124   1.470   6.517   0.959 -0.2700 -0.0056 -0.4527
 3720TIP3    H211125   1.387   6.511   1.085  0.7073 -1.3299  0.1437
 3721TIP3   OH211126   2.366   3.131   5.301  0.3475  0.0461  0.3381
 3721TIP3    H111127   2.337   3.222   5.310  0.3056 -0.0273  1.0178
 3721TIP3    H211128   2.321   3.099   5.223 -0.5285  0.2753  0.7305
 3722TIP3   OH211129   6.239   2.753   1.595  0.1971  0.0743  0.3098
 3722TIP3    H111130   6.284   2.835   1.573 -0.0316  0.2980  0.6617
 3722TIP3    H211131   6.239   2.751   1.691  1.8915 -1.2774  0.3223
 3723TIP3   OH211132   6.761   0.536   3.760 -0.5116  0.0439 -0.4407
 3723TIP3    H111133   6.799   0.485   3.831  1.1168  1.3398 -0.3187
 3723TIP3    H211134   6.715   0.472   3.707 -1.2045 -1.0524  1.3963
 3724TIP3   OH211135   0.774   3.325   1.683  0.5973 -0.4558  0.0108
 3724TIP3    H111136   0.738   3.355   1.600  1.5248  0.7576  0.0191
 3724TIP3    H211137   0.770   3.229   1.678  1.6518 -0.4364 -1.8838
 3725TIP3   OH211138   0.913   5.824   3.534 -0.3346  0.8962 -0.2963
 3725TIP3    H111139   0.937   5.740   3.495 -0.9774  0.9617 -0.8497
 3725TIP3    H211140   0.985   5.845   3.594 -0.1746 -0.0511 -0.1501
 3726TIP3   OH211141   5.617   1.738   3.018  0.0726  0.1981 -0.5085
 3726TIP3    H111142   5.600   1.753   2.925 -0.2792 -1.2623 -0.6934
 3726TIP3    H211143   5.570   1.808   3.062  1.4134  1.7841 -1.4698
 3727TIP3   OH211144   6.556   2.896   5.582 -0.1901  0.2375  0.3600
 3727TIP3    H111145   6.531   2.832   5.515  2.6064 -0.7909  0.1716
 3727TIP3    H211146   6.484   2.893   5.645 -1.8074 -0.4585 -1.4060
 3728TIP3   OH211147   5.656   2.378   0.868  0.2098  0.2248 -0.9181
 3728TIP3    H111148   5.688   2.453   0.918 -0.4065 -0.1135  0.0020
 3728TIP3    H211149   5.599   2.417   0.801  0.7239  0.6455 -1.1271
 3729TIP3   OH211150   1.975   4.333   2.636  0.3640  0.9344 -0.2297
 3729TIP3    H111151   2.013   4.333   2.723 -0.3544 -0.2726  0.1066
 3729TIP3    H211152   2.022   4.264   2.589 -1.1844 -0.4330  0.1313
 3730TIP3   OH211153   5.945   4.462   5.097 -0.2331  0.3191 -0.6116
 3730TIP3    H111154   5.974   4.418   5.018 -0.1227  0.3211 -0.5719
 3730TIP3    H211155   5.985   4.413   5.169 -0.5663  0.1416 -0.5437
 3731TIP3   OH211156   0.852   2.605   5.245 -0.2232  0.3251  0.4721
 3731TIP3    H111157   0.880   2.556   5.168 -0.6474  1.6964 -0.5786
 3731TIP3    H211158   0.774   2.653   5.217  0.2962  1.7768  1.3832
 3732TIP3   OH211159   3.962   2.746   1.336 -0.4193 -0.4896  0.0351
 3732TIP3    H111160   3.961   2.696   1.418  0.7119 -0.0453  0.3476
 3732TIP3    H211161   4.017   2.822   1.356 -0.7580  0.0067 -0.9205
 3733TIP3   OH211162   0.071   0.762   5.690 -0.2780  0.2114  0.1091
 3733TIP3    H111163  -0.000   0.824   5.704 -2.5840 -2.3041  0.2971
 3733TIP3    H211164   0.052   0.690   5.749  2.2289 -0.7653 -0.1716
 3734TIP3   OH211165   1.898   0.617   2.749 -0.3599  0.0276 -0.1074
 3734TIP3    H111166   1.930   0.674   2.818  1.6289 -0.9980 -0.1261
 3734TIP3    H211167   1.884   0.675   2.674 -0.7369  0.8473  0.5820
 3735TIP3   OH211168   0.186   0.907   0.148  0.2947 -0.1754  0.0582
 3735TIP3    H111169   0.161   0.861   0.229 -1.6049 -2.1016 -1.5066
 3735TIP3    H211170   0.225   0.839   0.093  0.1810  0.7557 -1.2124
 3736TIP3   OH211171   1.158   3.124   3.967 -0.1757  0.9656  0.3508
 3736TIP3    H111172   1.168   3.070   3.889 -2.9538  1.6088 -0.5459
 3736TIP3    H211173   1.222   3.088   4.029  0.7796 -0.7912 -1.5253
 3737TIP3   OH211174   6.861   3.777   3.523 -0.5572  0.8650 -0.0944
 3737TIP3    H111175   6.852   3.808   3.613  1.9545 -0.8619  0.8720
 3737TIP3    H211176   6.925   3.835   3.483  1.7338 -0.9200  0.7348
 3738TIP3   OH211177   4.104   0.784   5.759  0.5799 -0.3696  0.1376
 3738TIP3    H111178   4.027   0.730   5.745 -0.2858  0.9159 -0.2579
 3738TIP3    H211179   4.135   0.806   5.672  0.9743 -0.2829  0.2942
 3739TIP3   OH211180   1.981   6.045   3.523  0.0699  0.3451 -0.1400
 3739TIP3    H111181   1.902   6.072   3.476  0.1753 -0.1829 -0.6404
 3739TIP3    H211182   1.951   5.973   3.580  0.0945  0.4677  0.0275
 3740TIP3   OH211183   1.780   6.334   0.107  0.0624  0.3280  0.3676
 3740TIP3    H111184   1.699   6.285   0.097 -0.0319  0.3831  0.8533
 3740TIP3    H211185   1.846   6.282   0.061 -0.1576  0.0517  0.3682
 3741TIP3   OH211186   3.951   3.145   5.218  1.2440 -0.1207  1.0513
 3741TIP3    H111187   3.919   3.145   5.127  2.1018  1.8083  0.6931
 3741TIP3    H211188   4.021   3.079   5.218  1.3973  0.0220  0.2417
 3742TIP3   OH211189   0.892   6.676   4.537 -0.3984 -0.1189 -0.0902
 3742TIP3    H111190   0.975   6.630   4.524  0.8423  2.0041 -0.0640
 3742TIP3    H211191   0.826   6.607   4.528  1.3330 -1.8999 -0.0475
 3743TIP3   OH211192   4.102   4.214   4.633  0.2359  0.6662  0.5834
 3743TIP3    H111193   4.158   4.281   4.596  0.1242  1.1045  1.1915
 3743TIP3    H211194   4.139   4.131   4.602  0.3574  1.0089 -0.1832
 3744TIP3   OH211195   1.709   4.241   0.108  0.1901 -0.7503  0.1148
 3744TIP3    H111196   1.642   4.300   0.143  0.8868  0.0859  0.0658
 3744TIP3    H211197   1.764   4.220   0.184  0.2136 -0.9798  0.0350
 3745TIP3   OH211198   4.243   6.743   2.826 -0.6630  0.1625 -0.1020
 3745TIP3    H111199   4.171   6.798   2.857  0.7391  1.3914  1.0976
 3745TIP3    H211200   4.276   6.789   2.749 -1.5002 -0.7234 -1.0248
 3746TIP3   OH211201   0.108   5.713   0.787  0.4366 -0.1769  0.7348
 3746TIP3    H111202   0.158   5.671   0.717  2.5106  1.8668  0.8753
 3746TIP3    H211203   0.109   5.806   0.765 -3.6148  0.0241  0.6539
 3747TIP3   OH211204   2.366   5.896   4.741  0.4971  0.4415 -0.1218
 3747TIP3    H111205   2.390   5.982   4.706  1.7249  0.3875  0.5186
 3747TIP3    H211206   2.297   5.864   4.683  1.2718  1.0945 -1.4380
 3748TIP3   OH211207   6.461   2.188   4.658  0.1716 -0.7278  0.0389
 3748TIP3    H111208   6.544   2.233   4.672 -0.9718  1.5541 -0.0611
 3748TIP3    H211209   6.407   2.213   4.733 -1.5184  0.6644 -1.5439
 3749TIP3   OH211210   4.282   5.769   1.445 -1.1325  0.2025 -0.4738
 3749TIP3    H111211   4.242   5.822   1.376 -3.0990  0.0244  0.4798
 3749TIP3    H211212   4.211   5.714   1.477 -0.1844  0.0389  1.4665
 3750TIP3   OH211213   6.537   2.172   2.714  0.1117  0.3726  0.3505
 3750TIP3    H111214   6.531   2.247   2.654  1.1090 -0.3161 -0.6362
 3750TIP3    H211215   6.453   2.173   2.761 -0.3402  1.4450 -0.4343
 3751TIP3   OH211216   0.100   1.619   5.542  0.0689  0.0133 -0.6313
 3751TIP3    H111217   0.154   1.567   5.482 -0.6621 -1.4095 -0.0991
 3751TIP3    H211218   0.087   1.702   5.496  1.5846 -0.1107 -1.3484
 3752TIP3   OH211219   4.164   2.034   5.716 -0.8032 -0.2558  0.0881
 3752TIP3    H111220   4.224   2.053   5.644 -0.0139 -0.5711  0.6617
 3752TIP3    H211221   4.169   1.940   5.729 -0.7352 -0.1684  0.7401
 3753TIP3   OH211222   6.867   4.692   0.786  0.2701 -0.3550  0.2818
 3753TIP3    H111223   6.863   4.764   0.848  1.2854 -1.0437  1.1797
 3753TIP3    H211224   6.951   4.704   0.740  0.7362 -1.2754  0.8584
 3754TIP3   OH211225   5.076   2.138   2.939 -0.6144 -0.0268 -0.0031
 3754TIP3    H111226   5.057   2.109   3.028 -1.0079  1.8367  0.5694
 3754TIP3    H211227   5.014   2.209   2.923  0.5095  0.7309 -1.1664
 3755TIP3   OH211228   1.461   2.880   1.658 -0.1761  0.0507 -0.3802
 3755TIP3    H111229   1.443   2.860   1.566 -2.7762  0.3494 -0.0192
 3755TIP3    H211230   1.484   2.795   1.697 -0.9053 -0.4148 -0.9390
 3756TIP3   OH211231   5.653   0.879   1.569  0.3881  0.4059  0.6640
 3756TIP3    H111232   5.594   0.804   1.575 -0.3026  0.8837 -0.0297
 3756TIP3    H211233   5.741   0.842   1.580  0.0930 -0.5752 -0.1653
 3757TIP3   OH211234   3.014   1.412   1.276 -0.8871 -0.1215  0.0321
 3757TIP3    H111235   2.941   1.353   1.295 -1.0727  0.5565  1.5547
 3757TIP3    H211236   2.974   1.484   1.227 -1.3758  0.5004  1.2946
 3758TIP3   OH211237   4.136   3.910   0.560 -0.0145 -0.3508 -0.5829
 3758TIP3    H111238   4.131   3.973   0.489 -2.6590 -1.4075 -1.4454
 3758TIP3    H211239   4.202   3.847   0.532  0.9121  0.6891 -0.8127
 3759TIP3   OH211240   3.444   4.460   2.032  0.0981  0.4105  0.6574
 3759TIP3    H111241   3.517   4.461   2.094  1.4006 -1.9165 -0.7142
 3759TIP3    H211242   3.483   4.491   1.950  0.0869 -2.3822 -0.5075
 3760TIP3   OH211243   4.412   0.643   2.264  0.4969  0.0574 -0.6826
 3760TIP3    H111244   4.478   0.578   2.289  1.6249  2.3671  3.2272
 3760TIP3    H211245   4.460   0.725   2.257 -1.7325  1.7247  1.6975
 3761TIP3   OH211246   2.212   3.075   4.732  0.1244  0.2973 -0.2429
 3761TIP3    H111247   2.134   3.021   4.719  1.6064 -1.7092 -1.2672
 3761TIP3    H211248   2.179   3.154   4.776 -2.5125 -0.3223 -0.9036
 3762TIP3   OH211249   6.642   0.143   2.580 -0.1440  0.3631 -0.3826
 3762TIP3    H111250   6.706   0.212   2.595 -1.2490  1.2151  0.5667
 3762TIP3    H211251   6.559   0.179   2.610 -0.5986 -1.7097  1.1109
 3763TIP3   OH211252   0.546   0.640   5.242 -0.0715 -0.3304 -0.2726
 3763TIP3    H111253   0.615   0.684   5.192  1.2502 -0.1041  1.6627
 3763TIP3    H211254   0.471   0.700   5.237  0.0761 -0.2332 -1.7803
 3764TIP3   OH211255   5.205   1.370   5.514  0.2536 -0.3389 -0.4009
 3764TIP3    H111256   5.120   1.334   5.539 -0.8350  2.1081 -0.2415
 3764TIP3    H211257   5.212   1.352   5.420 -1.1326  0.6282 -0.7196
 3765TIP3   OH211258   3.954   3.307   1.043 -0.4220 -0.7136  0.3784
 3765TIP3    H111259   3.930   3.252   0.968  0.0789 -0.0491 -0.2925
 3765TIP3    H211260   3.899   3.276   1.114 -1.2578 -1.0609 -0.3946
 3766TIP3   OH211261   6.587   6.201   4.157 -0.2598 -0.2295 -0.6644
 3766TIP3    H111262   6.608   6.182   4.066  0.1735  1.1831 -0.8846
 3766TIP3    H211263   6.499   6.239   4.154 -0.7232 -1.2381 -0.3434
 3767TIP3   OH211264   6.937   4.925   4.124 -0.1063  0.2476  0.5060
 3767TIP3    H111265   6.877   4.898   4.193  1.6633 -3.1054  0.9405
 3767TIP3    H211266   6.881   4.939   4.047 -1.5780 -1.4356  1.2159
 3768TIP3   OH211267   6.287   6.546   2.701 -0.1327  0.6284 -0.6064
 3768TIP3    H111268   6.313   6.636   2.723 -1.0919  0.8783 -0.4194
 3768TIP3    H211269   6.241   6.515   2.779  0.0315  0.0326 -0.7414
 3769TIP3   OH211270   5.124   6.330   4.510  0.6335  0.4507  0.0085
 3769TIP3    H111271   5.121   6.273   4.433  2.4503  0.2662  0.0459
 3769TIP3    H211272   5.147   6.272   4.583 -0.1222  0.7918  0.5401
 3770TIP3   OH211273   1.005   1.361   3.605  0.0365 -0.0900  0.2099
 3770TIP3    H111274   1.061   1.286   3.584 -1.5032 -2.1300  2.7542
 3770TIP3    H211275   1.063   1.423   3.649  1.0999 -0.2603 -0.9033
 3771TIP3   OH211276   6.096   3.977   1.544 -0.1350 -0.2107  0.2056
 3771TIP3    H111277   6.143   4.002   1.623  2.2112 -1.3003 -0.7641
 3771TIP3    H211278   6.086   4.059   1.495 -1.7006  0.4891  1.6024
 3772TIP3   OH211279   4.064   6.683   4.762 -0.1519 -0.4101 -0.0699
 3772TIP3    H111280   4.122   6.670   4.837  0.6777  0.9852 -0.4249
 3772TIP3    H211281   4.044   6.776   4.764 -0.7009 -0.4963 -1.1661
 3773TIP3   OH211282   0.324   2.120   4.692  0.2881  0.3689 -0.1924
 3773TIP3    H111283   0.370   2.051   4.739 -2.8525 -2.6420 -1.0416
 3773TIP3    H211284   0.371   2.128   4.609  0.1504 -1.6176 -0.5116
 3774TIP3   OH211285   6.800   0.781   3.360  0.3462 -0.2240  0.1064
 3774TIP3    H111286   6.759   0.701   3.329  2.4942 -0.4634 -2.5156
 3774TIP3    H211287   6.749   0.851   3.319  0.9091 -0.4442 -1.0321
 3775TIP3   OH211288   4.806   2.757   5.470 -0.0161 -0.7160 -0.7575
 3775TIP3    H111289   4.717   2.786   5.490  0.4719  0.1701  0.2559
 3775TIP3    H211290   4.848   2.747   5.555  1.5665  1.2750 -1.1999
 3776TIP3   OH211291   4.386   2.028   2.931  0.1006  0.3860  0.1339
 3776TIP3    H111292   4.406   2.005   2.841  0.2423  0.4547  0.1471
 3776TIP3    H211293   4.449   1.978   2.983 -1.1853 -1.1168  0.3142
 3777TIP3   OH211294   2.235   2.963   3.878  0.5099  0.0498  0.0119
 3777TIP3    H111295   2.185   2.957   3.797  3.6135  0.5640 -2.0739
 3777TIP3    H211296   2.256   3.056   3.888  0.7042 -0.0881  1.1007
 3778TIP3   OH211297   5.784   6.577   5.546  0.3659  0.0351 -0.1423
 3778TIP3    H111298   5.874   6.546   5.546  1.0649  1.9512  0.6193
 3778TIP3    H211299   5.754   6.563   5.456  1.0576 -1.5134 -0.1703
 3779TIP3   OH211300   3.397   6.572   3.925 -0.2861  0.3336 -0.1936
 3779TIP3    H111301   3.403   6.667   3.929  2.5964  0.1917  1.2936
 3779TIP3    H211302   3.311   6.552   3.961 -1.2134  2.3747 -1.1492
 3780TIP3   OH211303   2.913   4.283   4.106 -0.2319 -0.0126  0.6889
 3780TIP3    H111304   2.942   4.360   4.057  1.1829 -0.3475  0.9587
 3780TIP3    H211305   2.834   4.254   4.060  0.4488  0.3266 -0.7546
 3781TIP3   OH211306   1.143   1.714   5.908  0.1037  0.8630  0.0998
 3781TIP3    H111307   1.169   1.622   5.899  2.1014  1.1274  2.1583
 3781TIP3    H211308   1.120   1.741   5.819  0.3621 -1.3636 -0.7191
 3782TIP3   OH211309   5.042   1.540   5.329  0.1662 -0.0195 -0.1258
 3782TIP3    H111310   5.131   1.508   5.337  1.1157  2.4360 -0.1016
 3782TIP3    H211311   5.038   1.578   5.242 -0.6998  0.3517  0.0653
 3783TIP3   OH211312   2.298   3.698   4.104 -0.3057 -0.5867  0.1847
 3783TIP3    H111313   2.290   3.755   4.028 -0.0693  0.4035  0.8739
 3783TIP3    H211314   2.321   3.612   4.069  1.4734  0.2302 -0.7584
 3784TIP3   OH211315   6.452   1.758   3.776  0.1325  0.5343 -0.0934
 3784TIP3    H111316   6.399   1.700   3.721  0.1403  1.1313 -0.7514
 3784TIP3    H211317   6.472   1.706   3.854 -3.0955  0.9331  1.1508
 3785TIP3   OH211318   1.861   2.539   4.647  0.6265  0.1216  0.3144
 3785TIP3    H111319   1.862   2.603   4.576  0.3411  1.6477  1.6329
 3785TIP3    H211320   1.954   2.519   4.662  0.7531  0.6335  0.2427
 3786TIP3   OH211321   5.793   3.406   3.579 -0.3718 -0.1128  0.1978
 3786TIP3    H111322   5.723   3.469   3.596  0.9733  1.4425  0.2052
 3786TIP3    H211323   5.805   3.361   3.662 -1.3417 -0.3893  0.1992
 3787TIP3   OH211324   6.957   6.254   5.509 -0.4448  0.3211 -0.2925
 3787TIP3    H111325   6.884   6.211   5.553  1.2049 -0.9565  1.3897
 3787TIP3    H211326   6.993   6.187   5.450  1.5170 -0.4298  1.5949
 3788TIP3   OH211327   2.015   3.316   3.454  0.4872 -0.4791 -0.6313
 3788TIP3    H111328   1.929   3.331   3.414 -0.2869  0.2768  1.2247
 3788TIP3    H211329   2.076   3.359   3.394 -0.8174  2.2140 -0.2026
 3789TIP3   OH211330   5.714   5.320   5.775 -0.0952 -0.0273  0.0744
 3789TIP3    H111331   5.628   5.310   5.816  0.4042 -1.4390  0.8553
 3789TIP3    H211332   5.695   5.364   5.692 -1.6543 -0.8153 -0.0415
 3790TIP3   OH211333   1.518   5.373   1.473 -0.1392  0.3318  0.2225
 3790TIP3    H111334   1.471   5.298   1.509 -1.1482  1.0289  0.3986
 3790TIP3    H211335   1.572   5.336   1.403  0.1053 -0.6944  0.9334
 3791TIP3   OH211336   2.837   5.876   0.518 -0.7326  0.2068  0.0336
 3791TIP3    H111337   2.833   5.875   0.613 -2.2648  0.6153  0.0020
 3791TIP3    H211338   2.903   5.942   0.497  0.3151 -0.5542  0.7859
 3792TIP3   OH211339   2.736   5.323   5.036 -0.1636 -0.4063 -0.6161
 3792TIP3    H111340   2.770   5.412   5.026 -0.0492 -0.5590 -1.5965
 3792TIP3    H211341   2.643   5.336   5.058 -0.2188 -0.0479 -1.0499
 3793TIP3   OH211342   6.937   3.819   1.981 -0.2888 -0.0834 -0.7911
 3793TIP3    H111343   6.860   3.808   1.925 -0.5681  1.3343 -0.7324
 3793TIP3    H211344   6.989   3.887   1.937 -0.5712  1.1533  0.6839
 3794TIP3   OH211345   6.625   5.225   3.187  0.0887  1.0372 -0.1808
 3794TIP3    H111346   6.659   5.179   3.110 -2.2302 -0.7190 -0.2626
 3794TIP3    H211347   6.576   5.299   3.151 -2.1397 -0.5347 -0.6144
 3795TIP3   OH211348   2.734   4.077   5.296  0.4749 -0.1982  0.2389
 3795TIP3    H111349   2.706   4.035   5.377  1.2794 -1.5905 -0.1556
 3795TIP3    H211350   2.653   4.095   5.248  0.0933 -2.7131 -0.2124
 3796TIP3   OH211351   3.205   0.522   2.833  0.5190 -0.6360  0.3536
 3796TIP3    H111352   3.191   0.456   2.765 -0.2800 -0.0402 -0.0718
 3796TIP3    H211353   3.281   0.490   2.883  1.5813 -0.7247 -1.2457
 3797TIP3   OH211354   0.932   3.093   5.843  0.3892 -0.4471  0.1300
 3797TIP3    H111355   0.848   3.099   5.889  1.0652  0.0719  1.3684
 3797TIP3    H211356   0.981   3.170   5.873  0.6050  0.3300 -2.0798
 3798TIP3   OH211357   4.065   6.107   0.989 -0.1191 -0.2345  0.7341
 3798TIP3    H111358   4.045   6.196   0.959 -0.1705 -0.2866  0.6150
 3798TIP3    H211359   4.106   6.065   0.914  0.7564 -0.0260  1.0723
 3799TIP3   OH211360   0.425   0.026   4.988 -0.5004 -0.0119  0.4428
 3799TIP3    H111361   0.491  -0.031   4.949 -0.0677  0.2159  0.8357
 3799TIP3    H211362   0.445   0.025   5.082 -0.1775  1.1667  0.4019
 3800TIP3   OH211363   2.347   2.235   0.535  0.7847 -0.1820 -0.4728
 3800TIP3    H111364   2.323   2.324   0.559  0.9720 -0.0480 -0.7796
 3800TIP3    H211365   2.431   2.220   0.578 -0.1102 -0.8794  1.1408
 3801TIP3   OH211366   3.578   1.986   2.931 -0.2954  0.3246 -0.4112
 3801TIP3    H111367   3.499   1.980   2.878 -0.3416 -0.0971 -0.2950
 3801TIP3    H211368   3.584   2.079   2.954 -0.3870  0.4762 -0.9797
 3802TIP3   OH211369   2.368   1.949   5.875  0.1308 -0.2487 -0.3531
 3802TIP3    H111370   2.442   2.008   5.887 -0.3439  0.9875 -2.7376
 3802TIP3    H211371   2.399   1.884   5.812 -0.3560 -0.5878 -0.2483
 3803TIP3   OH211372   2.910   1.528   2.851 -0.1950  0.2128 -0.3261
 3803TIP3    H111373   2.851   1.585   2.801  0.4224  0.2507 -1.0168
 3803TIP3    H211374   2.854   1.492   2.921 -1.1092  0.0602 -1.1094
 3804TIP3   OH211375   0.833   4.610   5.543 -0.2289  0.5674 -0.1270
 3804TIP3    H111376   0.927   4.596   5.527 -0.2168  0.8095 -0.2788
 3804TIP3    H211377   0.790   4.554   5.478 -0.1970 -0.0077  0.3414
 3805TIP3   OH211378   5.914   4.366   3.469 -0.3908  1.3551  0.8667
 3805TIP3    H111379   5.934   4.293   3.410 -0.7238  0.4424  1.8654
 3805TIP3    H211380   5.945   4.443   3.422  2.2176  0.3681  0.7821
 3806TIP3   OH211381   0.929   5.355   1.522  0.2092  0.1004  0.0280
 3806TIP3    H111382   0.956   5.403   1.601 -0.1262  2.3112 -1.1263
 3806TIP3    H211383   0.990   5.383   1.455  0.2033 -1.4087 -0.6354
 3807TIP3   OH211384   2.396   3.462   3.740  0.3174 -0.2603 -0.2909
 3807TIP3    H111385   2.328   3.405   3.779 -1.2990 -0.4396 -3.1342
 3807TIP3    H211386   2.431   3.411   3.667 -0.1138  1.7571 -1.9959
 3808TIP3   OH211387   4.835   5.116   3.056  0.3661 -0.0897 -0.0832
 3808TIP3    H111388   4.867   5.082   3.140  1.7037  0.7037 -0.2427
 3808TIP3    H211389   4.907   5.169   3.022 -0.9422  1.3851 -0.7190
 3809TIP3   OH211390   6.332   4.350   2.096  0.2134  0.5681  0.9690
 3809TIP3    H111391   6.390   4.390   2.160 -0.7927  1.2368  1.4868
 3809TIP3    H211392   6.338   4.256   2.114  0.9006  0.6463  1.1990
 3810TIP3   OH211393   5.166   6.020   5.294 -0.0734  0.1474 -0.1562
 3810TIP3    H111394   5.115   6.062   5.225  1.0706 -0.0250 -1.1453
 3810TIP3    H211395   5.150   6.074   5.372 -0.2766  1.1789 -0.8954
 3811TIP3   OH211396   0.705   3.599   3.589 -0.8498 -0.1907  0.5373
 3811TIP3    H111397   0.625   3.651   3.589 -0.4156  0.6220 -1.7775
 3811TIP3    H211398   0.688   3.527   3.529  0.0040 -0.2429  0.3379
 3812TIP3   OH211399   5.718   1.758   2.214  0.0143  0.2262 -0.1464
 3812TIP3    H111400   5.665   1.760   2.135 -0.6241  0.0064  0.2621
 3812TIP3    H211401   5.690   1.678   2.259  0.1994  0.4668  0.4085
 3813TIP3   OH211402   4.789   3.705   3.071  0.3068 -0.3526  0.5537
 3813TIP3    H111403   4.796   3.700   3.166 -0.1335 -0.5483  0.5764
 3813TIP3    H211404   4.850   3.775   3.046 -1.0462  1.1011  1.1598
 3814TIP3   OH211405   5.989   5.785   3.190  0.2080 -0.0914 -0.1216
 3814TIP3    H111406   6.021   5.701   3.157 -0.7875 -0.1434 -1.0199
 3814TIP3    H211407   5.966   5.834   3.111 -0.4265  0.5348  0.4408
 3815TIP3   OH211408   0.510   5.100   4.472  0.5597  0.1367  0.0579
 3815TIP3    H111409   0.568   5.030   4.502 -1.4089 -1.6977 -0.1785
 3815TIP3    H211410   0.514   5.094   4.376 -1.6259 -1.5490 -0.0089
 3816TIP3   OH211411   5.102   1.102   2.158  0.5865 -0.2122  0.0135
 3816TIP3    H111412   5.042   1.176   2.146  1.0877  0.3170  0.6214
 3816TIP3    H211413   5.085   1.044   2.085 -0.1147  0.3149 -0.2478
 3817TIP3   OH211414   0.822   5.080   4.673  0.2269 -0.1202 -0.0401
 3817TIP3    H111415   0.894   5.108   4.616  0.0893 -1.6108 -0.9836
 3817TIP3    H211416   0.865   5.052   4.754  0.6314 -0.2460 -0.2960
 3818TIP3   OH211417   1.661   1.147   0.511  0.1426 -0.0198  0.0251
 3818TIP3    H111418   1.720   1.125   0.582  2.2665  1.5399 -1.1487
 3818TIP3    H211419   1.664   1.072   0.452  1.7926  0.4196 -0.4993
 3819TIP3   OH211420   6.338   4.016   4.695 -0.3941  0.3761  0.3352
 3819TIP3    H111421   6.327   3.973   4.610 -2.0460  0.4659  0.4811
 3819TIP3    H211422   6.371   4.103   4.674  1.2620 -0.3011 -0.0615
 3820TIP3   OH211423   4.260   1.064   4.005  0.1628  0.1391 -0.5028
 3820TIP3    H111424   4.287   1.115   4.082  0.9989 -1.3512  0.2181
 3820TIP3    H211425   4.164   1.070   4.006  0.2182  1.1771 -0.0831
 3821TIP3   OH211426   6.296   5.941   2.909 -0.4800  0.4216 -0.0746
 3821TIP3    H111427   6.219   5.993   2.889 -1.2436 -0.5857  0.1510
 3821TIP3    H211428   6.339   5.928   2.824 -1.8926 -1.0288 -0.6241
 3822TIP3   OH211429   3.095   4.193   0.654 -0.3598 -0.0973  0.4270
 3822TIP3    H111430   3.181   4.232   0.666 -0.8548  0.6770  1.7372
 3822TIP3    H211431   3.078   4.145   0.735 -0.8142 -0.9648 -0.1609
 3823TIP3   OH211432   3.901   6.233   5.345  0.5167 -0.0494 -0.5540
 3823TIP3    H111433   3.930   6.207   5.257  1.4798  1.9095 -0.8674
 3823TIP3    H211434   3.965   6.297   5.374 -0.2539 -0.0361  1.2633
 3824TIP3   OH211435   0.654   0.483   4.722 -0.4141  0.1263  0.5093
 3824TIP3    H111436   0.723   0.463   4.659 -0.0929 -0.4479  1.0353
 3824TIP3    H211437   0.576   0.496   4.668  0.3258  1.9348 -0.1967
 3825TIP3   OH211438   6.704   0.638   4.427 -0.1434 -0.0510  0.1625
 3825TIP3    H111439   6.754   0.557   4.437 -1.0336 -0.7861 -1.1294
 3825TIP3    H211440   6.705   0.655   4.333 -1.4905  0.4597  0.2260
 3826TIP3   OH211441   2.402   2.405   4.750  0.6656  0.1647 -0.3244
 3826TIP3    H111442   2.481   2.399   4.803  0.5630  1.8196  0.0659
 3826TIP3    H211443   2.433   2.403   4.660  1.0789  0.0697 -0.1808
 3827TIP3   OH211444   7.115   1.053   3.538  0.0987 -0.2182 -0.0911
 3827TIP3    H111445   7.053   1.092   3.477 -1.6637 -1.3471  0.8892
 3827TIP3    H211446   7.135   0.967   3.500  0.8858  0.0390 -0.2728
 3828TIP3   OH211447   5.596   0.886   3.969  0.3612  0.3323  0.1499
 3828TIP3    H111448   5.664   0.875   3.903 -1.0488 -3.2336 -0.9023
 3828TIP3    H211449   5.635   0.850   4.049  0.6514  0.8642  0.2511
 3829TIP3   OH211450   1.594   0.569   1.271  0.1280  0.0238  0.4340
 3829TIP3    H111451   1.670   0.559   1.327  0.0975  0.0733  0.4839
 3829TIP3    H211452   1.598   0.659   1.241 -2.2671  1.4983  3.8816
 3830TIP3   OH211453   1.873   4.690   4.785 -0.3157  0.2907 -0.4503
 3830TIP3    H111454   1.829   4.605   4.787  3.3450 -1.8178 -0.2862
 3830TIP3    H211455   1.881   4.716   4.877  2.7497 -1.7738  0.0093
 3831TIP3   OH211456   3.137   1.426   2.078 -0.0543 -0.2370  0.4280
 3831TIP3    H111457   3.169   1.367   2.145 -0.7836  1.2241  2.1372
 3831TIP3    H211458   3.216   1.451   2.029  0.3738 -1.8940  0.2196
 3832TIP3   OH211459   2.978   1.216   3.132 -0.1412  0.2610  0.1864
 3832TIP3    H111460   3.054   1.263   3.098 -0.5053  0.6338 -0.1393
 3832TIP3    H211461   2.956   1.262   3.213  0.4931 -0.3847  0.7328
 3833TIP3   OH211462   4.263   6.375   0.751  0.1368  0.6358  0.3534
 3833TIP3    H111463   4.251   6.469   0.738 -1.8231  0.5135  0.9624
 3833TIP3    H211464   4.304   6.345   0.671 -0.0111  1.8699 -0.2132
 3834TIP3   OH211465   1.171   3.334   3.640  0.2494  0.6797 -0.3133
 3834TIP3    H111466   1.241   3.379   3.593  1.5354  0.5829  1.4045
 3834TIP3    H211467   1.213   3.257   3.679 -1.1744 -0.2339 -0.4958
 3835TIP3   OH211468   6.349   2.414   0.445  0.1039 -0.1433  0.0286
 3835TIP3    H111469   6.283   2.469   0.488  0.9615  0.4567  0.6100
 3835TIP3    H211470   6.343   2.330   0.491 -1.3419 -0.6375 -0.9875
 3836TIP3   OH211471   4.876   6.629   5.042 -0.1033  0.3734 -0.0624
 3836TIP3    H111472   4.858   6.694   5.109 -0.2728 -0.6347  0.8891
 3836TIP3    H211473   4.951   6.664   4.994  0.3868  0.8322  1.0210
 3837TIP3   OH211474   6.538   0.234   3.162  0.0731 -0.7477 -0.1287
 3837TIP3    H111475   6.607   0.296   3.182  0.5782 -1.5511  0.7016
 3837TIP3    H211476   6.464   0.261   3.217 -1.0480  1.3057 -2.4173
 3838TIP3   OH211477   0.519   6.489   1.252 -0.3739  0.0019  0.9432
 3838TIP3    H111478   0.488   6.434   1.325 -1.2398 -0.8373 -0.0263
 3838TIP3    H211479   0.546   6.571   1.294  0.1621 -0.8456  2.3318
 3839TIP3   OH211480   6.796   2.327   1.416 -0.3925 -0.3781 -0.6353
 3839TIP3    H111481   6.713   2.290   1.387 -0.6693 -1.6378  1.4982
 3839TIP3    H211482   6.774   2.378   1.494  0.8859 -1.7249  0.7008
 3840TIP3   OH211483   3.238   2.855   5.346  0.4206  0.0043  0.3171
 3840TIP3    H111484   3.186   2.873   5.267  1.1025 -0.1348 -0.1787
 3840TIP3    H211485   3.174   2.834   5.413 -0.1531 -0.5484 -0.3824
 3841TIP3   OH211486   3.909   2.134   2.110 -0.4836 -0.0659  0.2228
 3841TIP3    H111487   3.881   2.053   2.067 -0.4510 -0.1541  0.3664
 3841TIP3    H211488   3.985   2.109   2.162  0.3939  0.3422 -0.8187
 3842TIP3   OH211489   3.613   4.421   2.243 -0.0706  0.0395 -0.2890
 3842TIP3    H111490   3.625   4.326   2.250 -0.7667  0.0140  0.8392
 3842TIP3    H211491   3.700   4.458   2.261 -0.1057 -0.3425  0.6820
 3843TIP3   OH211492   3.301   4.583   1.119  0.1530  0.0438  0.0805
 3843TIP3    H111493   3.315   4.557   1.210 -1.4612  0.9567  0.6215
 3843TIP3    H211494   3.298   4.500   1.071  1.2802 -0.4305  0.7895
 3844TIP3   OH211495   3.887   2.827   4.217 -0.3546 -0.3460  0.9061
 3844TIP3    H111496   3.840   2.858   4.294  0.0304  0.2858  0.8915
 3844TIP3    H211497   3.879   2.898   4.153  1.7095  0.3656  1.3493
 3845TIP3   OH211498   5.074   6.475   2.934  1.0072  0.3513  0.7309
 3845TIP3    H111499   5.066   6.441   3.024  0.9681  1.1631  1.0374
 3845TIP3    H211500   5.050   6.567   2.941  0.5687  0.3150 -0.1990
 3846TIP3   OH211501   2.873   3.157   5.892 -0.3442 -1.0362  0.1721
 3846TIP3    H111502   2.882   3.113   5.807 -0.1418 -0.0694 -0.3197
 3846TIP3    H211503   2.854   3.248   5.870  0.6811 -0.5607  1.1526
 3847TIP3   OH211504   6.652   5.788   3.333  0.2407  0.6753  0.7348
 3847TIP3    H111505   6.609   5.712   3.295  1.0338  0.2655  0.6318
 3847TIP3    H211506   6.596   5.862   3.311 -2.1468 -0.2028  3.3482
 3848TIP3   OH211507   6.787   6.109   3.454  0.1560 -0.1298  0.0846
 3848TIP3    H111508   6.713   6.116   3.393  0.8102 -0.2879 -0.7502
 3848TIP3    H211509   6.755   6.052   3.523 -1.5554  2.2007  1.3712
 3849TIP3   OH211510   0.816   0.083   3.325  0.5576 -0.1090 -0.0763
 3849TIP3    H111511   0.774   0.082   3.240  0.3707  1.3496 -0.0168
 3849TIP3    H211512   0.852  -0.006   3.335  1.1006 -0.1313 -1.9092
 3850TIP3   OH211513   6.121   3.411   4.050  0.1938 -0.4680  0.4101
 3850TIP3    H111514   6.111   3.500   4.084  2.3181 -0.2215  0.5710
 3850TIP3    H211515   6.112   3.420   3.955 -0.6010 -0.2646  0.5009
 3851TIP3   OH211516   4.723   6.556   2.228  0.6157  0.8843  0.0467
 3851TIP3    H111517   4.747   6.582   2.317  2.9318 -0.3049 -0.1643
 3851TIP3    H211518   4.643   6.504   2.239  1.8048 -0.7324  1.6851
 3852TIP3   OH211519   6.151   4.089   5.150 -0.2892  0.0955 -0.0269
 3852TIP3    H111520   6.226   4.149   5.147 -0.5455  0.5108  1.3215
 3852TIP3    H211521   6.117   4.089   5.060  2.7369 -1.9783 -1.3572
 3853TIP3   OH211522   1.326   1.084   2.243  0.7147  0.2778  0.3373
 3853TIP3    H111523   1.355   1.041   2.324 -2.5384 -0.8807  1.0241
 3853TIP3    H211524   1.302   1.012   2.185 -2.3033  1.0431  0.4974
 3854TIP3   OH211525   1.790   3.746   2.472 -0.3600 -0.2906  0.4135
 3854TIP3    H111526   1.708   3.702   2.451 -0.5102  0.1599  0.0619
 3854TIP3    H211527   1.765   3.835   2.495  0.1607  0.2705 -1.1023
 3855TIP3   OH211528   6.175   1.056   5.070 -0.0548 -0.3344  0.5020
 3855TIP3    H111529   6.149   1.106   5.147  2.3771 -0.0060  1.2123
 3855TIP3    H211530   6.179   1.122   5.000  0.5439 -0.0326  0.8083
 3856TIP3   OH211531   4.066   2.525   5.076 -0.1010 -0.0329  0.7463
 3856TIP3    H111532   4.141   2.466   5.076  0.2639  0.4062  1.5803
 3856TIP3    H211533   4.044   2.537   4.984  0.6969 -0.3566  0.5089
 3857TIP3   OH211534   1.698   1.158   4.284 -0.4570  0.3035  0.4827
 3857TIP3    H111535   1.629   1.107   4.328 -1.8912  1.0539 -0.8017
 3857TIP3    H211536   1.773   1.150   4.342 -0.3285 -3.8174  0.0631
 3858TIP3   OH211537   2.759   3.515   3.794  0.4172 -0.6886  0.1211
 3858TIP3    H111538   2.695   3.475   3.853 -0.4089 -1.4907 -1.2831
 3858TIP3    H211539   2.722   3.600   3.772  1.2851  0.1294  1.6240
 3859TIP3   OH211540   4.307   3.476   0.142  0.0083 -0.3273 -0.0963
 3859TIP3    H111541   4.297   3.569   0.160 -1.3724  0.0336 -2.3617
 3859TIP3    H211542   4.378   3.448   0.199  0.9601  2.2709  0.1078
 3860TIP3   OH211543   0.755   4.845   0.188  0.2913 -0.7363 -0.2155
 3860TIP3    H111544   0.848   4.828   0.206  0.2780 -0.4999  0.0796
 3860TIP3    H211545   0.719   4.759   0.165  0.8226 -0.6696 -1.4233
 3861TIP3   OH211546   6.173   4.517   2.595 -0.0637  0.2395  0.3919
 3861TIP3    H111547   6.233   4.449   2.625 -0.8829 -0.6099  0.1440
 3861TIP3    H211548   6.091   4.496   2.639 -0.0668  1.6809  1.1224
 3862TIP3   OH211549   5.861   1.160   0.891 -0.3961 -0.0796  0.0372
 3862TIP3    H111550   5.817   1.241   0.863 -0.6097 -0.7383 -1.5798
 3862TIP3    H211551   5.950   1.168   0.856 -0.4868 -0.6475 -0.3233
 3863TIP3   OH211552   6.856   6.025   5.063 -0.4723 -0.6917  0.1577
 3863TIP3    H111553   6.810   6.048   4.982 -2.0859 -1.6151  0.7593
 3863TIP3    H211554   6.900   5.942   5.043 -0.7849 -0.8658  0.1772
 3864TIP3   OH211555   2.615   2.606   4.639 -0.0537 -1.2176 -0.0562
 3864TIP3    H111556   2.554   2.675   4.663 -1.0556 -0.8547 -3.1682
 3864TIP3    H211557   2.562   2.544   4.588  1.8091 -1.7532 -1.4564
 3865TIP3   OH211558   4.449   4.004   1.542  0.2192  0.3165 -0.2852
 3865TIP3    H111559   4.431   4.076   1.482  0.2890  0.6284  0.0690
 3865TIP3    H211560   4.370   3.951   1.541  0.8702 -0.6957 -2.0693
 3866TIP3   OH211561   1.547   0.596   1.880 -0.2167  0.0155 -0.1908
 3866TIP3    H111562   1.479   0.575   1.943 -0.4237 -0.6191 -0.6114
 3866TIP3    H211563   1.523   0.547   1.801  0.2604  0.4627 -0.6275
 3867TIP3   OH211564   4.520   1.290   2.756 -0.0209 -0.2765 -0.5024
 3867TIP3    H111565   4.432   1.255   2.764 -0.0129 -0.1369  0.2489
 3867TIP3    H211566   4.575   1.214   2.741 -0.0635 -0.5438  0.6582
 3868TIP3   OH211567   3.546   4.867   4.082  0.1676  0.2566  0.3167
 3868TIP3    H111568   3.612   4.883   4.150  0.2589 -1.1369  0.5789
 3868TIP3    H211569   3.597   4.843   4.005  0.0638  1.8504 -0.2810
 3869TIP3   OH211570   3.601   5.285   2.630 -0.5499 -0.7275 -0.2396
 3869TIP3    H111571   3.552   5.350   2.580 -0.9810  0.6783  1.9054
 3869TIP3    H211572   3.551   5.273   2.710  1.1489 -1.3790  0.7816
 3870TIP3   OH211573   1.086   5.237   5.230 -0.0582  0.7333  0.4107
 3870TIP3    H111574   1.177   5.223   5.255  0.1769 -0.6334 -1.0815
 3870TIP3    H211575   1.039   5.162   5.266  0.2646 -1.2222 -2.8291
 3871TIP3   OH211576   7.185   4.770   4.486  0.2399 -0.8005 -0.2159
 3871TIP3    H111577   7.124   4.823   4.435  0.3669  0.2815  0.7135
 3871TIP3    H211578   7.219   4.830   4.553 -0.3508 -2.3081  1.4975
 3872TIP3   OH211579   1.489   2.051   5.692 -0.1860 -0.3393 -0.3488
 3872TIP3    H111580   1.429   1.987   5.731 -1.2037  0.2095 -0.9610
 3872TIP3    H211581   1.431   2.116   5.653  0.7633 -0.7765 -2.6493
 3873TIP3   OH211582   5.069   4.359   3.104 -0.5777  0.0667  0.0137
 3873TIP3    H111583   5.004   4.289   3.111 -0.3616 -0.2764 -1.1715
 3873TIP3    H211584   5.141   4.319   3.056  0.6546  0.3580  1.5218
 3874TIP3   OH211585   6.476   2.415   2.576 -0.2562  0.3108  0.1658
 3874TIP3    H111586   6.501   2.503   2.604 -3.0651  1.8439 -1.5447
 3874TIP3    H211587   6.500   2.412   2.483 -1.1003 -0.3124 -0.0468
 3875TIP3   OH211588   6.022   1.830   5.245 -0.1569 -0.3639 -0.4871
 3875TIP3    H111589   5.985   1.812   5.331  0.8836 -0.6414 -0.0774
 3875TIP3    H211590   6.017   1.925   5.235 -0.6835 -0.3729 -0.3113
 3876TIP3   OH211591   4.656   0.974   0.729 -0.0930 -0.5434 -0.2291
 3876TIP3    H111592   4.661   0.966   0.824  0.5090  1.2928 -0.0624
 3876TIP3    H211593   4.741   1.011   0.704 -0.9076  0.7307 -1.2473
 3877TIP3   OH211594   4.582   6.294   2.250 -0.3257  0.0866 -0.5104
 3877TIP3    H111595   4.612   6.203   2.249 -0.7122 -0.0596  0.5967
 3877TIP3    H211596   4.640   6.338   2.311 -0.9167  0.3127 -0.1086
 3878TIP3   OH211597   7.096   1.692   5.278  0.5381 -0.2537 -0.0179
 3878TIP3    H111598   7.073   1.628   5.211 -0.0869  0.3016 -0.3492
 3878TIP3    H211599   7.190   1.705   5.269  0.7133 -1.3084  0.2218
 3879TIP3   OH211600   6.096   3.420   5.340 -0.5468  0.2163 -0.5569
 3879TIP3    H111601   6.058   3.352   5.284 -1.8326  0.0019  0.5454
 3879TIP3    H211602   6.181   3.384   5.366 -1.5569 -1.3898  0.7064
 3880TIP3   OH211603   1.049   2.966   1.395  0.8304  0.3395  0.0503
 3880TIP3    H111604   1.042   3.053   1.355  0.0470  0.0769 -0.3934
 3880TIP3    H211605   1.126   2.927   1.355  0.4980  0.3768 -0.6248
 3881TIP3   OH211606   0.930   3.474   3.756  0.2789 -0.5604  0.3226
 3881TIP3    H111607   0.907   3.560   3.722 -0.0544 -0.7335  0.1127
 3881TIP3    H211608   0.915   3.480   3.851  2.7784  0.4468  0.7273
 3882TIP3   OH211609   2.497   1.850   1.167 -0.2758  0.1250  0.2356
 3882TIP3    H111610   2.417   1.901   1.154 -0.5922 -0.4587 -0.1202
 3882TIP3    H211611   2.513   1.808   1.083  0.1944 -0.0762  0.4209
 3883TIP3   OH211612   1.494   4.918   0.206 -0.3518 -0.0870  0.5908
 3883TIP3    H111613   1.531   4.924   0.118  2.1448  2.3969  1.6626
 3883TIP3    H211614   1.434   4.992   0.213 -1.9275 -1.2825  0.5025
 3884TIP3   OH211615   5.599   0.366   1.506 -0.2042  0.5026 -0.4551
 3884TIP3    H111616   5.650   0.322   1.575 -0.6781  1.2361  0.3726
 3884TIP3    H211617   5.622   0.318   1.427  1.6786  0.7038 -0.0939
 3885TIP3   OH211618   5.438   2.798   1.628  0.3650  0.4739 -0.3080
 3885TIP3    H111619   5.515   2.851   1.648  0.2783 -0.3264  2.6228
 3885TIP3    H211620   5.364   2.849   1.661  0.2379 -1.1223  2.0908
 3886TIP3   OH211621   6.881   4.699   2.174  0.0082  0.2325  0.4302
 3886TIP3    H111622   6.905   4.643   2.248  1.8169 -0.7758 -0.8438
 3886TIP3    H211623   6.788   4.680   2.160  0.2960 -1.6622  0.7407
 3887TIP3   OH211624   6.243   0.128   2.678  0.6606  0.1338 -0.0305
 3887TIP3    H111625   6.282   0.133   2.590 -0.4496 -1.6633 -0.6693
 3887TIP3    H211626   6.267   0.041   2.710  0.1321  0.3576  1.0215
 3888TIP3   OH211627   0.733   2.751   3.263 -0.2943  0.2994 -0.1414
 3888TIP3    H111628   0.812   2.761   3.317  0.2904  0.5142 -1.0152
 3888TIP3    H211629   0.705   2.841   3.246 -1.5958  0.2357  1.3573
 3889TIP3   OH211630   6.762   2.027   4.908 -1.0397 -0.6176 -0.5443
 3889TIP3    H111631   6.738   1.942   4.872 -1.3762 -0.7221 -0.0773
 3889TIP3    H211632   6.695   2.087   4.876 -1.2508 -0.6809 -0.2260
 3890TIP3   OH211633   1.267   5.852   3.546  0.4299  0.2190 -0.0702
 3890TIP3    H111634   1.330   5.783   3.523  1.0957  0.8667 -0.2487
 3890TIP3    H211635   1.238   5.830   3.634  1.5665  0.3609  0.3567
 3891TIP3   OH211636   6.784   0.356   3.322  0.5947 -0.6405 -0.1975
 3891TIP3    H111637   6.771   0.445   3.289  0.3444 -1.3159 -2.0260
 3891TIP3    H211638   6.830   0.369   3.405  0.4683  1.1991 -0.3555
 3892TIP3   OH211639   5.882   0.680   1.411  0.2385 -0.2723 -0.3360
 3892TIP3    H111640   5.944   0.654   1.479 -2.4260  1.0402  2.8672
 3892TIP3    H211641   5.829   0.601   1.396  0.6944 -0.4998 -0.8056
 3893TIP3   OH211642   0.374   0.968   1.181  0.9124  0.0754 -0.2080
 3893TIP3    H111643   0.434   0.899   1.153  0.9582 -0.0615  0.2279
 3893TIP3    H211644   0.421   1.049   1.161  0.7426 -0.0080 -0.9808
 3894TIP3   OH211645   3.281   2.592   3.006  0.0276  0.3947 -0.0730
 3894TIP3    H111646   3.260   2.659   3.071 -1.5684  0.8779 -1.0347
 3894TIP3    H211647   3.240   2.623   2.925 -0.6581 -1.6622 -0.5921
 3895TIP3   OH211648   3.129   4.542   0.295  0.3964  0.2478  0.8044
 3895TIP3    H111649   3.091   4.594   0.365 -0.7969  0.8044 -0.2222
 3895TIP3    H211650   3.204   4.593   0.265  0.3151  0.4894  1.0096
 3896TIP3   OH211651   7.195   0.151   3.604  0.3785 -0.5894  0.1325
 3896TIP3    H111652   7.182   0.121   3.694 -0.5883  0.0421  0.2205
 3896TIP3    H211653   7.190   0.246   3.610  0.0838 -0.5507 -0.6247
 3897TIP3   OH211654   0.562   5.306   1.746 -0.0222  0.3014 -0.1686
 3897TIP3    H111655   0.632   5.300   1.811  0.2635 -1.7241 -0.6035
 3897TIP3    H211656   0.528   5.395   1.756  1.2421  0.6536  1.4581
 3898TIP3   OH211657   2.622   1.589   2.020 -0.4992  0.0016 -0.0451
 3898TIP3    H111658   2.566   1.666   2.025 -1.4813 -0.7473  1.1003
 3898TIP3    H211659   2.665   1.585   2.106  0.0947 -0.3365 -0.3470
 3899TIP3   OH211660   5.593   0.554   3.751  0.6201 -0.0582 -0.2239
 3899TIP3    H111661   5.686   0.572   3.736  0.7107 -0.7642 -0.5848
 3899TIP3    H211662   5.548   0.599   3.680  0.5324  1.6502  0.8688
 3900TIP3   OH211663   3.953   1.882   2.476 -0.4619  0.6525  0.2495
 3900TIP3    H111664   4.020   1.817   2.493 -1.1259 -0.8771 -2.3482
 3900TIP3    H211665   3.929   1.916   2.562  1.3973 -1.0005  1.4963
 3901TIP3   OH211666   3.895   6.616   2.696 -0.0680 -0.5767 -0.2267
 3901TIP3    H111667   3.947   6.609   2.616 -2.0740  0.7962 -1.7379
 3901TIP3    H211668   3.809   6.581   2.672 -0.7764  0.0384  1.2642
 3902TIP3   OH211669   2.804   5.560   3.037 -0.5731  0.5292 -0.3390
 3902TIP3    H111670   2.713   5.583   3.058 -0.3994  0.6819  0.2632
 3902TIP3    H211671   2.846   5.644   3.020  0.1897  0.7881  2.3596
 3903TIP3   OH211672   0.578   1.339   1.578 -0.1970  0.1195 -0.4513
 3903TIP3    H111673   0.656   1.285   1.566  0.3916  0.2213  2.3279
 3903TIP3    H211674   0.598   1.421   1.532  1.0131 -0.1670 -0.4631
 3904TIP3   OH211675   5.592   5.526   2.474  0.1177 -0.4932 -0.5638
 3904TIP3    H111676   5.658   5.537   2.405  0.3185  1.3238 -0.1230
 3904TIP3    H211677   5.624   5.579   2.547 -1.0944 -0.7874  0.2200
 3905TIP3   OH211678   1.583   6.303   5.041  0.2138 -0.1411  0.2096
 3905TIP3    H111679   1.643   6.337   5.107 -1.7670 -0.3508  2.2616
 3905TIP3    H211680   1.534   6.234   5.086 -0.8157 -0.7314 -1.6752
 3906TIP3   OH211681   2.281   1.744   1.605  0.6438 -0.5629  0.1335
 3906TIP3    H111682   2.312   1.781   1.687  1.3979 -0.8468 -0.0124
 3906TIP3    H211683   2.267   1.820   1.548 -0.2440 -0.3370  0.6259
 3907TIP3   OH211684   3.061   1.851   2.887  0.5263 -0.4698 -0.0507
 3907TIP3    H111685   3.023   1.927   2.931  0.8744 -0.8728  0.9722
 3907TIP3    H211686   3.003   1.836   2.812 -0.7362 -0.4410  0.8879
 3908TIP3   OH211687   3.810   0.845   2.776  0.2575  0.0741 -0.6015
 3908TIP3    H111688   3.860   0.924   2.798  1.3789 -0.6469 -0.4920
 3908TIP3    H211689   3.808   0.794   2.857 -0.5562  0.0319 -0.6437
 3909TIP3   OH211690   2.643   3.961   0.576  0.4779  0.2710 -0.6643
 3909TIP3    H111691   2.599   3.879   0.598 -1.8925  1.8522  1.0232
 3909TIP3    H211692   2.736   3.942   0.585 -0.0299 -2.0644  0.2976
 3910TIP3   OH211693   0.989   4.470   2.696 -1.0536  0.2763  0.2628
 3910TIP3    H111694   1.059   4.449   2.758  0.2353 -1.4504 -1.6012
 3910TIP3    H211695   0.924   4.517   2.747  1.0247  1.1115  2.3302
 3911TIP3   OH211696   3.473   2.565   3.520 -0.3875  0.2224 -0.6296
 3911TIP3    H111697   3.381   2.583   3.502 -0.1831  0.2761 -1.6566
 3911TIP3    H211698   3.481   2.470   3.512 -0.2895  0.2499 -0.8674
 3912TIP3   OH211699   0.445   2.185   5.188  0.4424 -0.1751 -0.3876
 3912TIP3    H111700   0.375   2.237   5.148  0.0732  0.0568  0.5281
 3912TIP3    H211701   0.488   2.246   5.248 -1.1944 -1.3514  2.1404
 3913TIP3   OH211702   7.151   6.282   5.282  0.3237  0.5158  0.2804
 3913TIP3    H111703   7.092   6.345   5.324 -0.0073  0.2881  0.1586
 3913TIP3    H211704   7.098   6.203   5.270 -0.3236  1.2966 -2.7093
 3914TIP3   OH211705   7.113   6.765   1.962  0.8231 -0.2099 -0.0561
 3914TIP3    H111706   7.062   6.741   1.885  3.8014 -2.3693 -1.5386
 3914TIP3    H211707   7.134   6.682   2.004  2.3359  0.6588  0.9834
 3915TIP3   OH211708   0.690   5.783   1.512 -0.1502 -0.1732  0.0465
 3915TIP3    H111709   0.702   5.775   1.606 -0.8287  0.9971  0.2598
 3915TIP3    H211710   0.620   5.848   1.502 -2.3303 -2.5364 -1.1985
 3916TIP3   OH211711   5.967   0.616   5.789  0.3438 -0.5713  0.7325
 3916TIP3    H111712   6.043   0.620   5.847  1.0678  0.9689 -0.2505
 3916TIP3    H211713   5.998   0.568   5.712 -1.1810 -4.4633  2.2594
 3917TIP3   OH211714   0.649   5.764   0.416  0.3780 -0.7112  0.2194
 3917TIP3    H111715   0.677   5.837   0.362  1.6802 -1.8405 -0.7282
 3917TIP3    H211716   0.579   5.799   0.471  2.1308  1.7160  1.0978
 3918TIP3   OH211717   2.500   5.235   3.667  0.4552  0.2299 -0.0824
 3918TIP3    H111718   2.500   5.331   3.676  2.1884  0.5570 -2.4987
 3918TIP3    H211719   2.514   5.202   3.755  3.3653  2.3819  0.4009
 3919TIP3   OH211720   2.367   1.865   1.866  0.2613 -0.2468  0.1673
 3919TIP3    H111721   2.388   1.845   1.957  0.1783  1.7526  0.6637
 3919TIP3    H211722   2.410   1.949   1.849  0.2416 -0.5637 -1.6407
 3920TIP3   OH211723   2.265   4.229   3.507  0.0235 -0.0279  0.7972
 3920TIP3    H111724   2.332   4.165   3.531  0.5647 -0.1352 -0.8659
 3920TIP3    H211725   2.189   4.176   3.482  0.7790 -0.1409 -1.5011
 3921TIP3   OH211726   3.355   2.238   2.974  0.5362 -0.1731 -0.4944
 3921TIP3    H111727   3.346   2.163   2.914 -0.6399  0.0719 -0.6413
 3921TIP3    H211728   3.442   2.273   2.956  0.1001  0.0688 -2.2769
 3922TIP3   OH211729   6.896   3.956   2.223 -0.0626 -0.0410 -1.2343
 3922TIP3    H111730   6.891   3.905   2.142  1.9185 -0.2045 -1.3070
 3922TIP3    H211731   6.899   4.047   2.195  0.2714 -0.0825 -1.3375
 3923TIP3   OH211732   4.715   6.366   0.357  0.4431 -0.1171 -0.0000
 3923TIP3    H111733   4.695   6.273   0.371 -0.0969 -0.0681 -0.4141
 3923TIP3    H211734   4.801   6.378   0.398 -0.4996 -0.2500  2.1737
 3924TIP3   OH211735   6.841   6.301   3.671 -0.7061  0.0444 -0.1673
 3924TIP3    H111736   6.931   6.279   3.646 -0.2772  1.3748  0.1321
 3924TIP3    H211737   6.791   6.291   3.590 -0.6664 -2.3918  0.0190
 3925TIP3   OH211738   6.538   2.129   2.388  0.2116  0.3754  0.4311
 3925TIP3    H111739   6.565   2.057   2.331 -1.2059 -1.4051  1.8626
 3925TIP3    H211740   6.615   2.147   2.442  1.0061  0.8907 -0.8275
 3926TIP3   OH211741   3.983   5.487   5.340 -0.2330 -0.1116  0.1382
 3926TIP3    H111742   3.919   5.539   5.291 -1.2111 -0.9562  0.4609
 3926TIP3    H211743   4.068   5.512   5.305 -0.3784  3.5114  1.8752
 3927TIP3   OH211744   2.968   1.408   5.726  0.1429 -0.3351  0.4199
 3927TIP3    H111745   2.978   1.485   5.670 -0.1268 -1.7363 -1.6465
 3927TIP3    H211746   3.050   1.403   5.775  0.3173  1.0186  0.3074
 3928TIP3   OH211747   2.847   4.224   4.380  0.3530  0.5875 -0.2677
 3928TIP3    H111748   2.931   4.210   4.423  0.6486 -1.5979 -1.4165
 3928TIP3    H211749   2.870   4.245   4.289 -0.3002 -0.8778 -0.8051
 3929TIP3   OH211750   4.401   5.344   5.712 -0.1740 -0.1096  0.5214
 3929TIP3    H111751   4.436   5.264   5.674 -3.2395 -0.4117 -2.0754
 3929TIP3    H211752   4.460   5.413   5.681 -0.2039 -0.8568 -1.3012
 3930TIP3   OH211753   2.263   6.591   0.291 -0.2874  0.2038 -0.1975
 3930TIP3    H111754   2.282   6.614   0.200 -0.5396 -2.0841 -0.8973
 3930TIP3    H211755   2.348   6.596   0.335  0.1461 -0.2531 -0.9565
 3931TIP3   OH211756   3.981   1.358   3.706  0.2123 -0.4492 -0.0342
 3931TIP3    H111757   4.033   1.282   3.678 -0.7537 -1.3743  0.6014
 3931TIP3    H211758   4.000   1.368   3.799 -1.4031 -1.3955  0.4476
 3932TIP3   OH211759   0.542   5.401   0.517 -0.0777  0.0018 -0.2094
 3932TIP3    H111760   0.481   5.410   0.590 -1.0627  0.5087 -1.0682
 3932TIP3    H211761   0.618   5.453   0.542 -1.1477  1.6739 -0.2960
 3933TIP3   OH211762   5.298   3.871   1.257 -0.1478 -0.5411 -0.0917
 3933TIP3    H111763   5.277   3.797   1.314 -0.4043 -0.4508 -0.0673
 3933TIP3    H211764   5.263   3.947   1.303 -0.9378 -0.5386 -0.6736
 3934TIP3   OH211765   3.226   3.119   3.707 -0.0454  0.5290  0.2331
 3934TIP3    H111766   3.246   3.179   3.779 -0.1868 -0.3120  0.9902
 3934TIP3    H211767   3.247   3.032   3.741 -0.2525  0.0966 -0.6964
 3935TIP3   OH211768   1.708   4.822   3.919 -0.2128  0.0653 -0.1774
 3935TIP3    H111769   1.630   4.782   3.881 -1.1089  1.1847  0.4460
 3935TIP3    H211770   1.675   4.878   3.988  1.1887  0.2347  0.3793
 3936TIP3   OH211771   4.144   4.578   5.791 -0.4719  0.5754 -0.1827
 3936TIP3    H111772   4.058   4.612   5.765  0.3152  1.3453 -1.9569
 3936TIP3    H211773   4.191   4.655   5.825  0.0280  0.4880 -0.6567
 3937TIP3   OH211774   3.702   2.202   5.368  0.2696  0.3860  0.2321
 3937TIP3    H111775   3.730   2.214   5.459 -2.5180 -1.1865  1.4008
 3937TIP3    H211776   3.622   2.253   5.360  0.8928  1.1775 -1.6591
 3938TIP3   OH211777   5.126   1.942   5.310  0.0924 -0.7624  0.1760
 3938TIP3    H111778   5.112   1.913   5.400 -1.3943 -0.0053  0.2223
 3938TIP3    H211779   5.192   1.882   5.275  0.1217 -1.5491  1.5314
 3939TIP3   OH211780   2.736   4.387   3.129  0.1433  0.3295 -0.0771
 3939TIP3    H111781   2.734   4.292   3.142 -1.0961  0.2507 -0.6663
 3939TIP3    H211782   2.718   4.423   3.216  2.7986  0.1328  0.6541
 3940TIP3   OH211783   4.638   3.136   4.879  0.7784 -0.2976 -0.1243
 3940TIP3    H111784   4.673   3.192   4.810 -0.5844 -0.0021 -0.5952
 3940TIP3    H211785   4.685   3.053   4.869  3.7349  1.0348  1.3472
 3941TIP3   OH211786   0.882   5.152   3.799  0.0182 -0.2433  0.0792
 3941TIP3    H111787   0.870   5.221   3.734  0.2534  0.9029  1.2278
 3941TIP3    H211788   0.911   5.197   3.878  0.3842 -1.6805  0.8044
 3942TIP3   OH211789   0.079   1.646   4.879  0.1994  0.0357  0.1188
 3942TIP3    H111790   0.061   1.670   4.970  0.1096  2.1362 -0.4128
 3942TIP3    H211791   0.172   1.623   4.879  0.0010 -0.8691  0.8820
 3943TIP3   OH211792   6.426   4.488   2.343  0.6804 -0.7334 -0.2630
 3943TIP3    H111793   6.361   4.432   2.387 -1.2999  0.8116 -1.0331
 3943TIP3    H211794   6.489   4.510   2.412 -0.5673 -0.9378  1.0121
 3944TIP3   OH211795   3.919   2.201   0.132  0.3892  0.5144 -0.7306
 3944TIP3    H111796   3.990   2.138   0.121  0.3704  0.6817 -1.9583
 3944TIP3    H211797   3.843   2.160   0.091 -0.6128 -0.2347  1.7196
 3945TIP3   OH211798   3.507   5.471   5.013 -0.2015 -0.2468  0.4638
 3945TIP3    H111799   3.487   5.400   4.952 -0.0629  0.4877 -0.4791
 3945TIP3    H211800   3.589   5.445   5.056  0.4968 -0.1367 -0.7458
 3946TIP3   OH211801   1.492   4.057   0.379 -0.1313  0.1102  0.0794
 3946TIP3    H111802   1.444   4.065   0.297  0.2482  1.1632 -0.0601
 3946TIP3    H211803   1.426   4.068   0.447 -0.5487 -1.3442 -0.0441
 3947TIP3   OH211804   1.968   1.477   4.563  0.4883  0.6655 -0.7349
 3947TIP3    H111805   2.005   1.394   4.594  0.6988  1.1415  0.3269
 3947TIP3    H211806   2.023   1.500   4.487 -0.8198 -1.1301 -2.3155
 3948TIP3   OH211807   2.726   6.031   5.451  0.0391  0.5624 -0.3258
 3948TIP3    H111808   2.739   5.937   5.466  1.9482  0.9900  0.9789
 3948TIP3    H211809   2.813   6.066   5.436 -0.6043  2.2099 -0.4503
 3949TIP3   OH211810   6.473   3.626   5.228  0.1967  0.1489 -0.1595
 3949TIP3    H111811   6.472   3.683   5.151  1.4700  0.1818 -0.1738
 3949TIP3    H211812   6.427   3.547   5.200  1.4811 -0.2343 -1.2826
 3950TIP3   OH211813   6.544   0.840   5.455 -0.2508 -0.1187 -0.1672
 3950TIP3    H111814   6.511   0.916   5.406  0.2876 -0.4006 -0.9857
 3950TIP3    H211815   6.636   0.860   5.470 -0.5888  0.3354  1.4747
 3951TIP3   OH211816   6.503   2.685   3.338 -0.2237 -0.0334 -0.5367
 3951TIP3    H111817   6.458   2.742   3.401 -0.1197 -0.0134 -0.4797
 3951TIP3    H211818   6.496   2.732   3.255  0.5696  0.4657 -0.3379
 3952TIP3   OH211819   5.773   0.399   0.285  0.7024 -0.2891  0.4667
 3952TIP3    H111820   5.700   0.450   0.321  0.3135  0.1698 -0.9171
 3952TIP3    H211821   5.732   0.326   0.239  1.2645 -2.0260  2.5639
 3953TIP3   OH211822   5.181   4.504   5.845 -0.1484 -0.2581  0.5332
 3953TIP3    H111823   5.194   4.409   5.853  0.4037 -0.1771  0.6839
 3953TIP3    H211824   5.261   4.542   5.883 -0.2445  0.2594  0.2249
 3954TIP3   OH211825   5.577   4.962   4.542  0.1360  0.6070 -0.0773
 3954TIP3    H111826   5.538   4.980   4.628 -2.5658 -0.7908 -0.8711
 3954TIP3    H211827   5.573   4.867   4.534 -0.6757  0.7584 -2.1232
 3955TIP3   OH211828   6.719   4.658   1.159  0.0064  0.3463  0.0922
 3955TIP3    H111829   6.636   4.692   1.124  0.4494  3.8906  1.9561
 3955TIP3    H211830   6.786   4.713   1.118  1.5348 -2.1682 -1.0443
 3956TIP3   OH211831   2.859   3.555   1.040  0.5920  0.3989 -0.0151
 3956TIP3    H111832   2.940   3.526   1.081 -0.3948 -2.3903  0.1801
 3956TIP3    H211833   2.860   3.513   0.954 -0.6875  0.2025  0.0480
 3957TIP3   OH211834   6.955   3.827   0.225  0.0544 -0.1336 -1.1526
 3957TIP3    H111835   6.995   3.911   0.249  0.9914 -0.6953 -0.6781
 3957TIP3    H211836   6.893   3.849   0.156 -0.5662  1.1145 -0.2265
 3958TIP3   OH211837   6.698   1.146   1.217 -0.0549  0.2727 -0.2330
 3958TIP3    H111838   6.741   1.162   1.133 -2.0777  0.3492 -1.3045
 3958TIP3    H211839   6.640   1.072   1.201 -1.1487  0.8579  0.8295
 3959TIP3   OH211840   5.328   4.674   1.728 -0.1023  0.3534 -0.5477
 3959TIP3    H111841   5.264   4.735   1.691 -0.6398  0.8910  1.1795
 3959TIP3    H211842   5.397   4.730   1.764 -0.1504 -0.0779  0.2400
 3960TIP3   OH211843   2.512   4.884   4.688 -0.3261  0.0060 -0.1861
 3960TIP3    H111844   2.507   4.977   4.711 -0.9173 -0.0484 -0.0900
 3960TIP3    H211845   2.517   4.883   4.592 -0.0277  0.1448 -0.1739
 3961TIP3   OH211846   1.926   0.563   2.377 -0.3654 -0.0331 -0.6019
 3961TIP3    H111847   1.974   0.483   2.357  1.7190  0.4319  2.0504
 3961TIP3    H211848   1.839   0.533   2.403 -0.3789 -1.2008 -1.8873
 3962TIP3   OH211849   0.173   3.576   4.118 -0.5051  0.2869  0.2029
 3962TIP3    H111850   0.175   3.619   4.032  1.0358  1.3815  0.7432
 3962TIP3    H211851   0.135   3.640   4.177  0.2725  0.2931  0.7060
 3963TIP3   OH211852   2.284   5.398   3.952  0.4128  0.2509 -0.3154
 3963TIP3    H111853   2.311   5.442   3.872  0.4710 -1.4745 -1.2782
 3963TIP3    H211854   2.190   5.384   3.941  0.2466  0.8008  0.3314
 3964TIP3   OH211855   4.234   3.195   4.163  0.5488 -0.9382  0.1098
 3964TIP3    H111856   4.248   3.111   4.119 -0.7079 -1.1571  0.0946
 3964TIP3    H211857   4.185   3.174   4.242 -2.0027 -0.0350 -1.1014
 3965TIP3   OH211858   7.060   3.765   3.189  0.3405 -0.1772 -0.1364
 3965TIP3    H111859   7.007   3.691   3.216  1.8166 -0.1731  3.2428
 3965TIP3    H211860   7.151   3.733   3.195  0.9389  1.4151 -0.1855
 3966TIP3   OH211861   5.508   1.778   5.390  0.1229  0.1285  0.1254
 3966TIP3    H111862   5.561   1.701   5.412 -0.6828 -0.4956 -0.0630
 3966TIP3    H211863   5.495   1.823   5.473  0.8292  0.2134  0.1946
 3967TIP3   OH211864   5.217   6.111   3.445  0.4394 -0.0743  0.0023
 3967TIP3    H111865   5.193   6.197   3.481  1.1359  0.3857 -0.6263
 3967TIP3    H211866   5.247   6.061   3.521 -3.5060 -1.1130  1.1241
 3968TIP3   OH211867   1.375   2.424   3.544 -0.5536  0.4457 -0.0769
 3968TIP3    H111868   1.404   2.491   3.606 -0.1543  1.7678 -1.6242
 3968TIP3    H211869   1.457   2.385   3.512 -0.6574  0.9627 -1.0102
 3969TIP3   OH211870   2.980   6.243   3.421 -0.0187  0.1025  0.6665
 3969TIP3    H111871   2.993   6.152   3.446 -1.4260 -0.3995 -0.3274
 3969TIP3    H211872   2.988   6.244   3.326  0.9315  1.2105  0.7263
 3970TIP3   OH211873   3.982   0.884   4.204  0.0735  0.1406  0.3452
 3970TIP3    H111874   3.895   0.907   4.236 -0.2190  0.7930 -0.8645
 3970TIP3    H211875   4.010   0.960   4.154  0.7630 -0.6009 -0.4216
 3971TIP3   OH211876   0.991   5.741   5.172 -0.8190 -0.0621  0.5666
 3971TIP3    H111877   1.042   5.663   5.194 -0.4788 -0.0991 -0.3349
 3971TIP3    H211878   0.904   5.706   5.152 -0.2946 -0.4068 -1.2842
 3972TIP3   OH211879   7.138   1.017   1.856  0.1576  0.1207 -0.3882
 3972TIP3    H111880   7.207   0.979   1.802  0.0362  0.1424 -0.5588
 3972TIP3    H211881   7.101   1.087   1.803 -0.5627 -0.4347 -0.6451
 3973TIP3   OH211882   2.616   6.224   2.172  0.4816 -0.4052  0.1231
 3973TIP3    H111883   2.641   6.160   2.239 -0.6665  0.2938  1.2904
 3973TIP3    H211884   2.609   6.306   2.220 -0.5030  0.0943 -0.8363
 3974TIP3   OH211885   3.261   2.174   0.669  0.3610  0.1722 -0.5745
 3974TIP3    H111886   3.301   2.151   0.585  0.7620  2.0490 -0.9406
 3974TIP3    H211887   3.335   2.189   0.727  0.1837  1.8054 -0.7333
 3975TIP3   OH211888   4.060   5.957   4.178  0.3798  0.0143  0.2866
 3975TIP3    H111889   4.114   6.035   4.175  0.1179  0.1732 -1.0173
 3975TIP3    H211890   3.978   5.986   4.219 -0.6080  1.0538 -2.2390
 3976TIP3   OH211891   0.979   2.725   4.799  0.3972 -0.6894  0.1706
 3976TIP3    H111892   0.896   2.704   4.841 -0.9904  1.7416 -1.1602
 3976TIP3    H211893   0.968   2.697   4.708  0.1610  1.5342 -0.5411
 3977TIP3   OH211894   6.326   0.130   4.698 -0.1496  0.0741 -0.2714
 3977TIP3    H111895   6.307   0.187   4.623 -0.6319 -0.2589 -0.4102
 3977TIP3    H211896   6.242   0.089   4.719 -0.0110  0.1480  0.4453
 3978TIP3   OH211897   0.987   5.998   1.770  0.4549 -0.2290 -0.1059
 3978TIP3    H111898   0.927   6.071   1.783 -0.8818 -1.2482 -0.4165
 3978TIP3    H211899   1.022   5.980   1.857 -0.8124 -0.5608  0.3495
 3979TIP3   OH211900   4.261   1.714   4.223 -0.5039  0.1462  0.0339
 3979TIP3    H111901   4.325   1.655   4.182  0.4386  1.7246 -0.8723
 3979TIP3    H211902   4.179   1.665   4.223  0.7284 -2.0555  1.4803
 3980TIP3   OH211903   2.412   4.680   4.024  0.3581  0.2442  0.6516
 3980TIP3    H111904   2.454   4.745   3.968  0.8030  0.3953  1.1518
 3980TIP3    H211905   2.484   4.622   4.051 -0.0723 -0.6336 -0.0155
 3981TIP3   OH211906   2.545   0.195   1.350 -0.0833 -0.7407  0.2099
 3981TIP3    H111907   2.494   0.121   1.382 -1.6093  0.0447 -0.2756
 3981TIP3    H211908   2.569   0.244   1.429 -0.5769 -0.8188  0.4091
 3982TIP3   OH211909   2.101   1.529   1.528  0.5591  0.0344 -0.3589
 3982TIP3    H111910   2.139   1.500   1.445  1.7990 -0.7212  0.4540
 3982TIP3    H211911   2.153   1.605   1.553  0.2489  0.2004 -0.2062
 3983TIP3   OH211912   2.124   2.076   0.571  0.3084  0.5388 -0.7050
 3983TIP3    H111913   2.060   2.104   0.505  0.6010 -1.2474 -1.8334
 3983TIP3    H211914   2.202   2.127   0.551 -0.0345  1.0060 -0.8659
 3984TIP3   OH211915   6.239   0.772   0.461 -0.4943  0.3356  0.9279
 3984TIP3    H111916   6.190   0.854   0.450  0.1859  0.7924  1.2264
 3984TIP3    H211917   6.304   0.793   0.528 -1.7902 -1.1015  2.7297
 3985TIP3   OH211918   5.071   6.106   1.023  0.3220 -0.1345  0.2451
 3985TIP3    H111919   5.150   6.093   1.075  0.8437 -0.3861 -0.5862
 3985TIP3    H211920   5.084   6.051   0.946 -0.6145 -0.0837  0.0396
 3986TIP3   OH211921   6.850   3.682   3.979 -0.3726  0.3452  0.0075
 3986TIP3    H111922   6.780   3.625   3.949  0.9697 -0.4013 -1.9442
 3986TIP3    H211923   6.929   3.648   3.936  0.8378  2.4180  0.4177
 3987TIP3   OH211924   6.760   3.351   1.852 -0.1228 -0.1031 -0.5317
 3987TIP3    H111925   6.671   3.364   1.817 -0.6737 -0.2402  0.7462
 3987TIP3    H211926   6.770   3.256   1.856 -0.1359 -0.0889 -0.1490
 3988TIP3   OH211927   6.710   1.045   0.930 -0.3616  0.2347 -0.0879
 3988TIP3    H111928   6.680   1.045   0.839  1.1903 -1.2877 -0.6359
 3988TIP3    H211929   6.733   0.954   0.947  2.9912  1.1068  0.5822
 3989TIP3   OH211930   7.178   1.588   1.995 -0.2115  0.7818 -0.3590
 3989TIP3    H111931   7.110   1.545   2.047 -0.0616 -0.0277 -0.8139
 3989TIP3    H211932   7.176   1.542   1.911  0.6798  0.9665 -0.4888
 3990TIP3   OH211933   4.152   3.078   2.205  0.1694 -0.0498 -0.2893
 3990TIP3    H111934   4.058   3.076   2.188  0.2227  1.7249 -1.1107
 3990TIP3    H211935   4.192   3.052   2.122  0.3855  1.0915 -0.5655
 3991TIP3   OH211936   0.935   5.119   2.698 -0.2128 -0.3167  0.4122
 3991TIP3    H111937   0.995   5.060   2.651 -2.1064 -0.0049 -2.7117
 3991TIP3    H211938   0.931   5.084   2.787  3.2524 -1.3027  0.3375
 3992TIP3   OH211939   1.799   2.177   4.089 -0.1717 -0.6842  0.2145
 3992TIP3    H111940   1.764   2.258   4.126 -1.7578 -1.4284  0.4131
 3992TIP3    H211941   1.764   2.108   4.145 -1.1141 -1.6959 -1.5416
 3993TIP3   OH211942   4.798   5.716   5.392  0.2592 -0.0882 -0.4211
 3993TIP3    H111943   4.833   5.658   5.459 -1.0303 -1.6868 -1.0505
 3993TIP3    H211944   4.815   5.670   5.310  0.4224  1.0918 -1.0726
 3994TIP3   OH211945   4.194   1.986   3.899  0.1983  0.2143 -0.0186
 3994TIP3    H111946   4.116   2.009   3.849 -0.6719  0.0611  1.2304
 3994TIP3    H211947   4.178   2.021   3.987  0.8759 -1.0840  0.6524
 3995TIP3   OH211948   1.048   5.245   2.266  0.0516  0.2719  0.0842
 3995TIP3    H111949   0.959   5.225   2.296 -1.3407  2.8996 -1.8656
 3995TIP3    H211950   1.057   5.199   2.183  1.2091 -1.2573  0.9921
 3996TIP3   OH211951   6.391   0.905   3.823 -0.2200 -0.0655  0.2296
 3996TIP3    H111952   6.437   0.962   3.762 -2.5889  1.5623 -0.1926
 3996TIP3    H211953   6.392   0.819   3.781 -0.7833  0.7694 -1.5877
 3997TIP3   OH211954   2.058   2.722   2.069  0.2139  0.5651  0.0965
 3997TIP3    H111955   2.115   2.711   1.993 -0.2919  0.3021 -0.2523
 3997TIP3    H211956   1.972   2.740   2.031  0.2275  1.8619  0.6147
 3998TIP3   OH211957   4.381   3.273   1.261 -0.0214  0.7317  0.3781
 3998TIP3    H111958   4.380   3.367   1.245  0.1100  0.8672  1.1179
 3998TIP3    H211959   4.474   3.249   1.257 -0.0324  0.6790  0.4241
 3999TIP3   OH211960   3.335   5.973   4.144  0.3053  0.3619  0.2894
 3999TIP3    H111961   3.386   5.906   4.189 -0.1427 -0.2617 -0.1168
 3999TIP3    H211962   3.244   5.957   4.171  0.1917  0.8097  0.1920
 4000TIP3   OH211963   3.404   0.117   4.355  0.3879  0.3287 -0.3045
 4000TIP3    H111964   3.344   0.188   4.377  2.2813  2.1251 -0.5611
 4000TIP3    H211965   3.389   0.052   4.423 -1.1338  1.1434  0.1987
 4001TIP3   OH211966   5.392   0.038   5.044 -0.4489  0.5798  0.2107
 4001TIP3    H111967   5.466   0.081   5.085 -0.4721  1.6493 -0.8019
 4001TIP3    H211968   5.344   0.109   5.001 -1.2552 -0.2848 -0.3588
 4002TIP3   OH211969   4.741   2.051   2.915  0.0008 -0.5275  0.9430
 4002TIP3    H111970   4.715   2.040   3.007 -2.6547  0.3710  0.3909
 4002TIP3    H211971   4.779   2.138   2.911 -0.1029 -0.4730  1.1422
 4003TIP3   OH211972   4.016   5.163   4.868 -0.7000  0.2610 -0.5142
 4003TIP3    H111973   4.039   5.176   4.960  0.4999  0.4083 -0.8097
 4003TIP3    H211974   3.998   5.251   4.834  0.2734  0.3854 -0.7504
 4004TIP3   OH211975   6.232   2.410   2.725  0.4301 -0.3337  0.4250
 4004TIP3    H111976   6.319   2.422   2.687  0.3891  0.7164  0.6305
 4004TIP3    H211977   6.209   2.496   2.761  0.1154 -1.0686  2.0748
 4005TIP3   OH211978   2.746   4.999   0.980  0.6668  0.3711  0.3361
 4005TIP3    H111979   2.806   5.008   0.905  0.2724 -0.5206 -0.1030
 4005TIP3    H211980   2.694   4.921   0.959  1.6441 -0.8793  2.3121
 4006TIP3   OH211981   1.141   0.027   2.174 -0.7354  0.1049  0.1295
 4006TIP3    H111982   1.127   0.062   2.262 -0.3214  0.2239  0.1499
 4006TIP3    H211983   1.236   0.016   2.167 -0.5946  1.6545 -0.8807
 4007TIP3   OH211984   4.702   2.055   5.550  0.0955 -0.1661  0.1962
 4007TIP3    H111985   4.649   2.082   5.625  0.9366 -1.1759  1.1965
 4007TIP3    H211986   4.646   1.994   5.502  0.3735 -1.3830  1.3515
 4008TIP3   OH211987   0.239   2.388   4.780  0.0933  0.0980  0.4709
 4008TIP3    H111988   0.319   2.433   4.752  0.2953 -0.3329  0.3483
 4008TIP3    H211989   0.245   2.301   4.739 -0.2756 -0.0518  0.7322
 4009TIP3   OH211990   2.907   1.145   1.422 -0.3424 -0.0774 -0.2671
 4009TIP3    H111991   2.933   1.055   1.440  0.8706  0.1168 -0.9838
 4009TIP3    H211992   2.839   1.163   1.487  0.4992 -0.9867  0.9211
 4010TIP3   OH211993   0.977   5.735   1.650  0.1437 -0.0467  0.1541
 4010TIP3    H111994   0.998   5.825   1.676  0.2879  0.4214 -1.4963
 4010TIP3    H211995   0.884   5.737   1.629  0.3210 -0.0858 -0.6530
 4011TIP3   OH211996   4.405   5.767   4.788 -0.0415  0.1594 -0.0351
 4011TIP3    H111997   4.478   5.816   4.825 -0.4229  0.7117  0.0049
 4011TIP3    H211998   4.435   5.676   4.787  2.0046  0.7122 -3.1983
 4012TIP3   OH211999   6.314   4.340   3.293 -0.3484  0.6189 -0.5967
 4012TIP3    H112000   6.338   4.254   3.327 -1.0677  1.2475  1.6870
 4012TIP3    H212001   6.267   4.322   3.212  1.7536 -0.9594 -1.5468
 4013TIP3   OH212002   3.161   6.381   3.172  0.3020 -0.1926  0.4895
 4013TIP3    H112003   3.164   6.373   3.267 -1.1007  0.6803  0.6420
 4013TIP3    H212004   3.157   6.475   3.156 -1.1994 -0.3578 -0.3320
 4014TIP3   OH212005   4.285   5.243   1.173  0.3777  0.3608  0.7239
 4014TIP3    H112006   4.316   5.334   1.180 -0.2057  0.7401 -1.0433
 4014TIP3    H212007   4.320   5.200   1.251  1.7786  1.7815  0.9469
 4015TIP3   OH212008   3.598   4.540   4.716  0.3208 -0.1407 -0.4611
 4015TIP3    H112009   3.672   4.524   4.775 -1.3402 -1.8111  1.2993
 4015TIP3    H212010   3.534   4.587   4.770 -1.0825 -1.3371 -1.0178
 4016TIP3   OH212011   3.333   3.523   2.742  0.1013 -0.5165 -0.3877
 4016TIP3    H112012   3.346   3.442   2.792  0.5692 -0.8553 -1.0426
 4016TIP3    H212013   3.332   3.495   2.651  0.9739  0.2985 -0.6639
 4017TIP3   OH212014   1.186   1.611   2.523 -0.0867 -0.4947 -0.5075
 4017TIP3    H112015   1.281   1.611   2.536 -0.1773  0.8895  0.3249
 4017TIP3    H212016   1.151   1.580   2.606 -0.4959  4.0661  1.2907
 4018TIP3   OH212017   3.227   4.332   1.532 -0.5005  0.8455  0.1795
 4018TIP3    H112018   3.167   4.400   1.561  1.0140  1.5874  1.7635
 4018TIP3    H212019   3.256   4.290   1.613  0.8718  0.3047 -0.5522
 4019TIP3   OH212020   0.150   6.229   5.087 -0.4347 -0.0310 -0.3388
 4019TIP3    H112021   0.080   6.269   5.138 -0.1269  0.2896 -0.1649
 4019TIP3    H212022   0.220   6.294   5.086 -0.6149  0.1520 -1.5740
 4020TIP3   OH212023   6.900   3.019   3.364 -0.0694  0.4438  0.3493
 4020TIP3    H112024   6.948   2.980   3.290 -1.2638 -0.4145 -0.0098
 4020TIP3    H212025   6.916   2.959   3.437  1.2743  1.3974  0.8899
 4021TIP3   OH212026   5.413   1.960   3.043  0.1173  0.4492 -0.2681
 4021TIP3    H112027   5.395   1.940   2.951 -0.7741 -0.0480  0.0008
 4021TIP3    H212028   5.349   2.027   3.067 -0.4673 -0.2876  0.3055
 4022TIP3   OH212029   0.510   0.089   1.445  0.1251  0.0466 -0.4757
 4022TIP3    H112030   0.503   0.004   1.401  0.9780 -0.5846  0.5650
 4022TIP3    H212031   0.567   0.140   1.388 -0.5975  0.0211 -1.2389
 4023TIP3   OH212032   3.034   0.358   5.737 -0.2163 -0.5296 -0.1022
 4023TIP3    H112033   3.072   0.309   5.810  2.2098  2.1833  0.6445
 4023TIP3    H212034   3.090   0.336   5.662  1.7855  1.9219  0.5433
 4024TIP3   OH212035   4.818   0.141   2.096 -0.3154 -0.2062  0.0433
 4024TIP3    H112036   4.741   0.115   2.147 -0.6825  1.0779  0.1895
 4024TIP3    H212037   4.786   0.212   2.040  0.8465  0.6495  0.4250
 4025TIP3   OH212038   4.358   5.806   2.125 -0.7784  0.3413  0.3572
 4025TIP3    H112039   4.359   5.854   2.042 -2.6513  0.6237  0.4566
 4025TIP3    H212040   4.312   5.725   2.106  0.5557 -0.5276  0.6855
 4026TIP3   OH212041   1.519   1.340   0.377 -0.3373  0.1190  0.2206
 4026TIP3    H112042   1.440   1.321   0.427 -0.0572 -2.0033 -0.0550
 4026TIP3    H212043   1.584   1.277   0.408  0.6502  0.5143 -0.9398
 4027TIP3   OH212044   2.088   5.070   2.018 -0.6115 -0.1210  0.2615
 4027TIP3    H112045   2.025   5.071   2.090  0.2146 -0.1416  1.0011
 4027TIP3    H212046   2.135   4.987   2.028 -1.8559 -1.1181 -1.5457
 4028TIP3   OH212047   2.994   6.027   4.937  0.0734 -0.1869  0.4653
 4028TIP3    H112048   3.004   6.032   5.032 -0.4557  2.2527  0.4638
 4028TIP3    H212049   3.068   6.077   4.902  0.2933 -1.0997 -0.4292
 4029TIP3   OH212050   4.134   4.444   3.854 -0.0063 -1.0415 -0.5214
 4029TIP3    H112051   4.085   4.365   3.876 -0.2245 -1.0749 -1.1044
 4029TIP3    H212052   4.189   4.418   3.780  0.6418 -0.9120 -0.0908
 4030TIP3   OH212053   6.329   2.083   4.125 -0.5494 -0.3595  0.0452
 4030TIP3    H112054   6.329   2.079   4.029  0.8765 -1.2242  0.0425
 4030TIP3    H212055   6.280   2.005   4.151 -0.4206 -0.4500  0.0177
 4031TIP3   OH212056   0.281   4.739   3.663 -0.0600 -0.0299  0.0961
 4031TIP3    H112057   0.217   4.789   3.714 -1.3115 -0.9389 -0.5171
 4031TIP3    H212058   0.235   4.719   3.581  0.0314 -2.8907  0.6334
 4032TIP3   OH212059   1.090   3.919   0.584 -0.6133  0.2185 -0.3152
 4032TIP3    H112060   1.066   3.830   0.610 -1.9237  0.7733  0.4466
 4032TIP3    H212061   1.017   3.974   0.612  1.1484  1.8968  1.3896
 4033TIP3   OH212062   5.295   3.010   4.283 -0.0259 -0.0738  0.1577
 4033TIP3    H112063   5.373   2.957   4.268  0.2133  0.3805 -0.2563
 4033TIP3    H212064   5.329   3.095   4.310 -0.4282 -0.4297  1.8777
 4034TIP3   OH212065   0.747   5.326   0.172 -0.0521  0.4943 -0.1788
 4034TIP3    H112066   0.658   5.303   0.201  0.8801 -1.5308  1.4097
 4034TIP3    H212067   0.756   5.418   0.193 -1.5191  0.5428  0.3875
 4035TIP3   OH212068   3.405   0.397   4.796  0.2979  0.2039 -0.3330
 4035TIP3    H112069   3.365   0.333   4.737  2.1908  0.8409 -2.4781
 4035TIP3    H212070   3.336   0.417   4.859 -0.8587 -2.7674 -0.4712
 4036TIP3   OH212071   5.628   0.516   1.849  0.0997 -0.2188 -0.3956
 4036TIP3    H112072   5.684   0.485   1.778 -0.6097 -1.1549 -0.5642
 4036TIP3    H212073   5.591   0.597   1.817 -0.2981 -0.6931 -1.1480
 4037TIP3   OH212074   3.150   6.324   2.263  0.0625 -0.4163  0.0804
 4037TIP3    H112075   3.085   6.355   2.200 -0.2084  0.5643  0.8167
 4037TIP3    H212076   3.221   6.287   2.210 -0.8210 -0.9504 -0.7435
 4038TIP3   OH212077   6.563   5.299   5.532 -0.5313  0.6682  0.0342
 4038TIP3    H112078   6.569   5.386   5.571 -1.6538 -0.3047  2.5569
 4038TIP3    H212079   6.609   5.242   5.593 -0.6714 -0.6742 -1.0642
 4039TIP3   OH212080   1.878   3.298   4.658  0.4873 -0.3500  0.4079
 4039TIP3    H112081   1.924   3.279   4.739  0.1019  0.4912  0.8335
 4039TIP3    H212082   1.822   3.221   4.643 -0.5971  0.1523  1.7679
 4040TIP3   OH212083   3.972   1.691   4.551  0.1962 -0.1988  0.1850
 4040TIP3    H112084   3.921   1.622   4.593  1.6495 -0.7002  1.1947
 4040TIP3    H212085   3.958   1.768   4.606  0.5002 -0.3298  0.4484
 4041TIP3   OH212086   2.679   4.514   1.509 -0.0261 -0.0912 -0.5533
 4041TIP3    H112087   2.716   4.581   1.566  0.3837 -1.0147  0.2965
 4041TIP3    H212088   2.709   4.538   1.421  1.1920  0.1305 -0.1013
 4042TIP3   OH212089   3.040   4.668   0.040 -0.1559  0.3641  0.7049
 4042TIP3    H112090   3.074   4.738   0.095 -0.6752  1.1938  0.0018
 4042TIP3    H212091   3.045   4.590   0.095  0.9743  0.8306  1.3018
 4043TIP3   OH212092   1.297   4.153   4.942  0.2373  0.7759  0.2157
 4043TIP3    H112093   1.285   4.151   4.847 -0.0622 -0.1784  0.2593
 4043TIP3    H212094   1.391   4.155   4.955  0.2740  1.2115 -0.1013
 4044TIP3   OH212095   0.640   6.793   3.323 -0.2972  0.3795  0.0652
 4044TIP3    H112096   0.677   6.748   3.247 -0.5531 -2.2023  1.3551
 4044TIP3    H212097   0.548   6.807   3.300 -0.4025 -0.4916 -0.0793
 4045TIP3   OH212098   3.863   0.536   1.950 -0.0445 -0.2950 -0.0960
 4045TIP3    H112099   3.824   0.452   1.927  1.7242 -1.1009 -0.3330
 4045TIP3    H212100   3.816   0.600   1.897 -1.3718 -1.1299  0.0300
 4046TIP3   OH212101   0.729   3.599   0.965  0.2076 -0.0723  0.6153
 4046TIP3    H112102   0.756   3.509   0.944  0.7128  0.2907 -0.3150
 4046TIP3    H212103   0.809   3.651   0.958 -0.2707  0.6204  0.1775
 4047TIP3   OH212104   2.808   3.251   2.813 -0.5136  0.4194 -0.6456
 4047TIP3    H112105   2.784   3.164   2.780 -0.4499  0.4462 -0.7656
 4047TIP3    H212106   2.726   3.290   2.841 -0.2905 -0.5615  1.5786
 4048TIP3   OH212107   4.552   4.389   3.500 -0.1158  0.3944 -0.2196
 4048TIP3    H112108   4.592   4.406   3.585 -1.0143  0.1093  0.2713
 4048TIP3    H212109   4.605   4.440   3.438  0.7315  0.3635  0.4602
 4049TIP3   OH212110   3.020   6.323   1.385 -0.0213 -0.8050 -0.4694
 4049TIP3    H112111   3.019   6.254   1.318 -0.6590 -0.5041 -0.7709
 4049TIP3    H212112   2.966   6.393   1.349  2.0327  0.6230 -0.9641
 4050TIP3   OH212113   6.714   2.203   3.772 -0.5341 -0.1736  0.3238
 4050TIP3    H112114   6.725   2.134   3.838  2.1035 -0.4877 -0.3341
 4050TIP3    H212115   6.634   2.178   3.725  0.4201 -2.9698 -0.0325
 4051TIP3   OH212116   2.884   3.927   0.793  0.0601 -0.5771 -0.7929
 4051TIP3    H112117   2.883   4.000   0.855 -0.6398 -0.5498 -0.8266
 4051TIP3    H212118   2.927   3.856   0.840 -1.3738 -0.8811  0.1178
 4052TIP3   OH212119   6.295   3.986   5.524 -0.2017 -0.1576 -0.5397
 4052TIP3    H112120   6.281   4.009   5.432  1.4404  1.5923 -0.4296
 4052TIP3    H212121   6.236   3.913   5.540 -1.2154  0.0987 -2.7227
 4053TIP3   OH212122   4.892   2.869   1.556 -0.1024 -0.2795 -0.2568
 4053TIP3    H112123   4.944   2.849   1.634 -0.2904  1.5352  0.3800
 4053TIP3    H212124   4.852   2.953   1.575 -3.1679 -1.4939 -0.8249
 4054TIP3   OH212125   1.757   6.129   0.552 -0.1189 -0.1263 -0.3651
 4054TIP3    H112126   1.769   6.223   0.534 -0.1358 -0.3179 -1.5066
 4054TIP3    H212127   1.707   6.126   0.633 -1.0856  0.8817 -0.8882
 4055TIP3   OH212128   3.332   4.893   3.408  0.5233  0.4549 -0.2071
 4055TIP3    H112129   3.255   4.947   3.427  1.9293  2.7698 -0.6058
 4055TIP3    H212130   3.303   4.803   3.424 -2.0038  1.2816  0.4130
 4056TIP3   OH212131   2.974   4.887   4.909 -0.1957 -0.3840  0.1094
 4056TIP3    H112132   3.000   4.875   4.818  2.5116  0.4388  0.6930
 4056TIP3    H212133   2.914   4.962   4.908  0.2226 -0.0572 -0.9235
 4057TIP3   OH212134   5.866   6.478   2.215 -0.2883 -0.5113  0.4628
 4057TIP3    H112135   5.775   6.458   2.235  0.0313 -1.1161  1.3704
 4057TIP3    H212136   5.904   6.504   2.299  0.4954 -0.7470  0.1904
 4058TIP3   OH212137   4.136   2.884   0.092 -0.4039  0.0586 -0.5019
 4058TIP3    H112138   4.062   2.823   0.082 -0.0448 -0.3042 -1.0773
 4058TIP3    H212139   4.118   2.932   0.172 -0.5660 -1.0033  0.1111
 4059TIP3   OH212140   0.512   1.305   4.919 -0.1426  0.6111 -0.1128
 4059TIP3    H112141   0.525   1.224   4.967 -0.3758  0.2626 -0.6274
 4059TIP3    H212142   0.549   1.289   4.832  0.8309  1.4425  0.1282
 4060TIP3   OH212143   1.267   3.269   5.276  0.2601 -0.1509 -0.2480
 4060TIP3    H112144   1.241   3.328   5.206 -0.0486 -0.4401 -0.3828
 4060TIP3    H212145   1.210   3.292   5.349 -0.8134 -1.1738 -0.7271
 4061TIP3   OH212146   0.500   0.525   3.706  0.5558  0.1451 -0.0955
 4061TIP3    H112147   0.519   0.601   3.652 -0.8642  0.8556  0.3655
 4061TIP3    H212148   0.408   0.506   3.690 -0.0807  0.7353  2.4571
 4062TIP3   OH212149   6.184   0.393   4.012  0.1181  0.2508 -0.5955
 4062TIP3    H112150   6.201   0.438   4.094 -1.7352  1.5496 -0.8738
 4062TIP3    H212151   6.271   0.380   3.974  1.0081 -0.3025  1.4824
 4063TIP3   OH212152   2.429   0.367   5.486  0.0345  0.4208 -0.0026
 4063TIP3    H112153   2.472   0.363   5.401 -0.9467  2.8789 -0.7096
 4063TIP3    H212154   2.389   0.281   5.498  1.2343 -0.3697 -1.4252
 4064TIP3   OH212155   3.646   5.876   4.756 -0.2975 -0.5411 -0.0425
 4064TIP3    H112156   3.664   5.969   4.745 -1.0928 -0.1435  1.7187
 4064TIP3    H212157   3.554   5.866   4.731  0.0218 -1.0332 -1.0664
 4065TIP3   OH212158   5.511   0.969   3.360 -0.2331 -0.0849 -0.0185
 4065TIP3    H112159   5.583   1.023   3.327 -1.1877  1.9822  1.0955
 4065TIP3    H212160   5.432   1.007   3.319 -1.0566  0.2138  1.7482
 4066TIP3   OH212161   5.875   5.039   0.097 -0.7369  0.4035 -0.8319
 4066TIP3    H112162   5.821   4.964   0.070  2.2429 -1.9406 -0.7633
 4066TIP3    H212163   5.938   5.049   0.026 -0.5563  2.3655 -0.4275
 4067TIP3   OH212164   2.718   0.437   3.936 -0.5411  0.2566  0.4507
 4067TIP3    H112165   2.641   0.446   3.991 -0.3302 -1.0047  0.9803
 4067TIP3    H212166   2.791   0.466   3.991 -0.7603  3.1815 -0.6201
 4068TIP3   OH212167   6.131   0.898   3.612  0.0907 -0.2149  0.3322
 4068TIP3    H112168   6.160   0.885   3.703  0.1738  0.2408  0.3777
 4068TIP3    H212169   6.051   0.950   3.620 -0.5970 -1.2226  0.1932
 4069TIP3   OH212170   0.420   6.004   2.788 -0.0752  0.0760  0.1052
 4069TIP3    H112171   0.384   6.059   2.858 -1.7243 -0.7050 -0.0894
 4069TIP3    H212172   0.497   6.052   2.757  0.2601  0.8052  1.9271
 4070TIP3   OH212173   5.763   6.144   3.706  0.0303 -0.2121 -0.4737
 4070TIP3    H112174   5.804   6.157   3.621 -1.5685 -1.3534 -1.4892
 4070TIP3    H212175   5.825   6.089   3.755  0.4793 -0.4918 -1.3273
 4071TIP3   OH212176   1.619   4.549   4.746 -0.1763  0.3789  1.1571
 4071TIP3    H112177   1.599   4.458   4.728  0.2617  0.4932  0.0446
 4071TIP3    H212178   1.588   4.597   4.670  0.3089  1.0679  1.3798
 4072TIP3   OH212179   6.485   1.622   0.821  0.3820  0.1785  0.0644
 4072TIP3    H112180   6.505   1.586   0.908 -0.2124 -1.9870 -0.6307
 4072TIP3    H212181   6.566   1.667   0.796  0.4595  1.1281  1.8430
 4073TIP3   OH212182   5.190   4.370   4.337  0.6461  0.1307 -0.2657
 4073TIP3    H112183   5.133   4.295   4.319  0.4653 -0.0515  0.9467
 4073TIP3    H212184   5.138   4.426   4.395  1.2659  0.5533 -0.1086
 4074TIP3   OH212185   7.107   2.752   4.437  0.1842 -0.0955  0.9328
 4074TIP3    H112186   7.106   2.715   4.349 -0.1707 -0.5084  1.1114
 4074TIP3    H212187   7.144   2.683   4.492  2.0942  0.7864  0.8349
 4075TIP3   OH212188   4.644   2.393   3.963  0.0506 -0.3285 -0.3271
 4075TIP3    H112189   4.652   2.300   3.987  2.0873 -0.5363 -1.5792
 4075TIP3    H212190   4.557   2.418   3.995 -0.8618 -2.8440 -0.5867
 4076TIP3   OH212191   6.336   4.266   4.130  0.0550 -0.2023 -0.8268
 4076TIP3    H112192   6.411   4.250   4.073 -0.6890 -0.9591 -1.6219
 4076TIP3    H212193   6.289   4.184   4.130  0.0535 -0.2319  0.9399
 4077TIP3   OH212194   0.548   1.167   4.694  0.0400 -0.0431  0.0513
 4077TIP3    H112195   0.619   1.191   4.634 -1.5469  0.8519 -1.5957
 4077TIP3    H212196   0.499   1.100   4.646  1.0740 -2.4553  2.1716
 4078TIP3   OH212197   0.936   3.528   2.225 -0.1087  0.1493  0.0344
 4078TIP3    H112198   1.004   3.499   2.165 -2.7691 -0.9950 -2.7237
 4078TIP3    H212199   0.923   3.454   2.285  0.3941 -0.0417 -0.0910
 4079TIP3   OH212200   4.100   0.651   2.247 -0.2681 -0.1792 -0.2473
 4079TIP3    H112201   4.194   0.661   2.265 -0.1951 -0.5609 -0.4024
 4079TIP3    H212202   4.061   0.633   2.332 -0.6689  3.0707  0.3649
 4080TIP3   OH212203   6.354   2.815   0.483  0.0119  0.3705  0.3716
 4080TIP3    H112204   6.389   2.771   0.405 -0.4525  0.2877  0.2012
 4080TIP3    H212205   6.396   2.900   0.484 -0.6292  0.7202 -0.4772
 4081TIP3   OH212206   3.524   4.953   2.821  0.5950  0.2830 -0.2582
 4081TIP3    H112207   3.619   4.969   2.825  0.6059  0.7619 -1.7214
 4081TIP3    H212208   3.487   5.041   2.812  0.0557  0.0369 -0.4033
 4082TIP3   OH212209   6.945   1.190   4.043  0.0356  0.0009  0.0158
 4082TIP3    H112210   7.029   1.147   4.028 -0.6118 -1.2970  0.0209
 4082TIP3    H212211   6.890   1.123   4.083 -0.9591  0.8883  0.1900
 4083TIP3   OH212212   0.328   4.246   1.364 -0.5043 -0.2595 -0.2159
 4083TIP3    H112213   0.297   4.168   1.316 -0.0805 -2.3821  2.7082
 4083TIP3    H212214   0.256   4.268   1.423 -0.1819  0.9412 -0.2537
 4084TIP3   OH212215   4.125   6.354   5.200  0.0603  0.9986  0.0055
 4084TIP3    H112216   4.124   6.258   5.203  0.8039  0.9980  1.5074
 4084TIP3    H212217   4.196   6.376   5.140 -0.3103  0.6213 -0.5794
 4085TIP3   OH212218   5.064   4.674   3.939 -0.0144 -0.3314 -0.3948
 4085TIP3    H112219   5.110   4.608   3.991 -0.3064  0.6349  1.1966
 4085TIP3    H212220   5.108   4.674   3.854  0.9333 -1.5377  0.0735
 4086TIP3   OH212221   3.055   6.689   1.239  0.0957  0.5044 -0.6468
 4086TIP3    H112222   3.113   6.729   1.173  1.1139  1.0909  0.5719
 4086TIP3    H212223   2.974   6.670   1.190  0.3547  2.0781 -1.7903
 4087TIP3   OH212224   6.553   4.203   3.928 -0.6348  0.7259  0.1091
 4087TIP3    H112225   6.635   4.218   3.974  0.1167 -0.0984 -0.9350
 4087TIP3    H212226   6.540   4.109   3.931  0.0487  0.4979 -2.3320
 4088TIP3   OH212227   2.119   6.110   4.127 -0.0868 -0.6822  0.0606
 4088TIP3    H112228   2.163   6.133   4.210  0.6060  1.9255 -0.9125
 4088TIP3    H212229   2.026   6.102   4.151  0.1646 -0.4396  1.1862
 4089TIP3   OH212230   0.080   5.472   2.866  0.4355 -0.2525  0.3542
 4089TIP3    H112231   0.152   5.454   2.927  1.0588 -1.5016 -0.7002
 4089TIP3    H212232   0.122   5.481   2.781 -0.5825 -0.2401 -0.1646
 4090TIP3   OH212233   4.198   2.414   5.667 -0.0729  0.5411 -0.0285
 4090TIP3    H112234   4.196   2.359   5.589 -0.8587 -0.3050  0.5801
 4090TIP3    H212235   4.203   2.353   5.741 -2.6177  1.1423  0.7544
 4091TIP3   OH212236   0.742   2.757   2.622 -0.0226 -0.6226 -0.0026
 4091TIP3    H112237   0.796   2.684   2.590  0.5300 -0.1369 -0.1946
 4091TIP3    H212238   0.740   2.745   2.717 -2.3435 -2.5375 -0.2013
 4092TIP3   OH212239   3.008   4.603   0.548  0.8938 -0.1537  0.2026
 4092TIP3    H112240   2.979   4.692   0.527  0.5778 -0.5011 -0.9553
 4092TIP3    H212241   2.927   4.551   0.547  0.8901 -0.2420  2.2131
 4093TIP3   OH212242   5.330   0.403   3.797 -0.6329  0.2013  0.5398
 4093TIP3    H112243   5.400   0.425   3.859  0.8223  0.3000 -1.0879
 4093TIP3    H212244   5.252   0.444   3.835  0.4248  1.1956  1.7434
 4094TIP3   OH212245   5.449   1.507   3.653 -0.1828  0.2022 -0.1262
 4094TIP3    H112246   5.446   1.461   3.569 -1.3971  0.2620 -0.1302
 4094TIP3    H212247   5.401   1.450   3.713 -2.2663  1.7179 -0.2816
 4095TIP3   OH212248   1.522   0.539   5.391  0.0083 -0.0483 -0.3758
 4095TIP3    H112249   1.468   0.529   5.313  0.1242  1.6562 -0.7179
 4095TIP3    H212250   1.507   0.459   5.441  0.0496 -1.2607 -2.1908
 4096TIP3   OH212251   1.296   2.193   5.558 -0.4362  0.4640 -0.2736
 4096TIP3    H112252   1.278   2.254   5.487 -0.3839  2.1918  1.1009
 4096TIP3    H212253   1.347   2.245   5.621  0.5038 -1.3245  0.5090
 4097TIP3   OH212254   0.917   6.411   1.993 -0.4374  0.4797  0.0376
 4097TIP3    H112255   0.835   6.362   1.992  0.3374 -0.8743  0.3448
 4097TIP3    H212256   0.926   6.445   1.904 -0.3447 -1.0999 -0.5881
 4098TIP3   OH212257   0.661   6.762   2.661  0.1443 -0.1695  0.0195
 4098TIP3    H112258   0.752   6.737   2.644  0.4465  0.3822  0.7660
 4098TIP3    H212259   0.646   6.838   2.605  0.3500  0.1265  0.3606
 4099TIP3   OH212260   3.398   5.844   3.893  0.3547  0.2058  0.3945
 4099TIP3    H112261   3.394   5.878   3.983  2.7148  2.8339 -0.3646
 4099TIP3    H212262   3.380   5.920   3.837  1.6101 -0.7348 -1.3771
 4100TIP3   OH212263   5.222   2.777   5.042 -0.5535  0.3059 -0.2223
 4100TIP3    H112264   5.163   2.852   5.031  0.0046  0.7610 -0.0995
 4100TIP3    H212265   5.211   2.751   5.133 -1.4023 -0.3245 -0.4820
 4101TIP3   OH212266   2.268   4.582   2.860 -0.3418  0.2648  0.1949
 4101TIP3    H112267   2.309   4.559   2.944  0.3308  0.2293 -0.1365
 4101TIP3    H212268   2.175   4.591   2.881 -0.3106 -0.5943  0.7713
 4102TIP3   OH212269  -0.024   2.315   2.471 -0.0999 -0.6755 -0.3319
 4102TIP3    H112270  -0.030   2.402   2.510  0.8847 -0.8563  0.2541
 4102TIP3    H212271   0.062   2.313   2.429 -0.4311 -1.1057 -1.0243
 4103TIP3   OH212272   3.354   2.591   1.368 -0.4569 -0.0526 -0.0359
 4103TIP3    H112273   3.354   2.551   1.455  0.3440 -0.1989 -0.0891
 4103TIP3    H212274   3.438   2.565   1.330 -0.3485  0.8490 -0.4539
 4104TIP3   OH212275   5.002   1.163   1.149 -0.3804 -0.6927  0.2008
 4104TIP3    H112276   5.012   1.205   1.064 -2.0548 -0.9242 -0.1462
 4104TIP3    H212277   5.055   1.084   1.142 -0.8169 -0.9225 -0.7988
 4105TIP3   OH212278   6.206   4.553   3.528  0.0505 -0.1174  0.4974
 4105TIP3    H112279   6.232   4.637   3.564 -1.4332  0.3904  0.4756
 4105TIP3    H212280   6.163   4.574   3.445  0.7500 -1.0135 -0.1201
 4106TIP3   OH212281   5.017   1.146   4.555  0.0537 -0.7067  0.5153
 4106TIP3    H112282   5.010   1.196   4.636 -3.1213  1.1761 -0.7529
 4106TIP3    H212283   5.083   1.194   4.504 -0.8351  0.5293  0.4729
 4107TIP3   OH212284   5.879   6.279   3.008  0.2027  0.0447 -0.3496
 4107TIP3    H112285   5.794   6.251   2.975 -0.1856 -3.5146  2.9540
 4107TIP3    H212286   5.861   6.316   3.095  1.9068  0.5305 -0.1516
 4108TIP3   OH212287   4.896   4.485   0.630 -0.1202 -0.0075  0.0217
 4108TIP3    H112288   4.813   4.502   0.585  0.0896 -1.2510 -0.9097
 4108TIP3    H212289   4.870   4.451   0.716 -0.5762 -0.3860 -0.2633
 4109TIP3   OH212290   1.748   3.587   3.068  1.1149  0.4704  0.7149
 4109TIP3    H112291   1.779   3.671   3.035  1.0927  0.4251  0.5799
 4109TIP3    H212292   1.711   3.607   3.154 -0.0976  0.8152  0.1347
 4110TIP3   OH212293   1.661   6.242   3.725  0.0538 -0.1156  0.6883
 4110TIP3    H112294   1.660   6.188   3.645 -3.5898  0.1549  0.3530
 4110TIP3    H212295   1.639   6.181   3.795  1.3143 -0.0023  1.1907
 4111TIP3   OH212296   6.990   2.159   4.626 -0.3572 -0.1618 -0.2709
 4111TIP3    H112297   6.951   2.072   4.634  0.8086 -0.5287  2.8812
 4111TIP3    H212298   7.082   2.143   4.605 -0.3013  0.3403 -0.4276
 4112TIP3   OH212299   6.739   4.592   2.799  0.0735 -0.9416  0.0255
 4112TIP3    H112300   6.809   4.637   2.752  0.7096  0.7074  2.3381
 4112TIP3    H212301   6.744   4.501   2.770  0.0485 -0.0036 -3.3602
 4113TIP3   OH212302   6.896   4.435   1.471 -0.2378 -0.1267 -0.4333
 4113TIP3    H112303   6.816   4.382   1.474 -0.4269 -0.0975 -2.8504
 4113TIP3    H212304   6.866   4.524   1.491 -0.2817 -0.5304  1.4777
 4114TIP3   OH212305   6.759   4.584   2.391 -0.3361  0.0138 -0.6508
 4114TIP3    H112306   6.701   4.577   2.467 -0.4230 -0.4338 -0.7573
 4114TIP3    H212307   6.823   4.651   2.416  0.1241 -0.6871  0.1418
 4115TIP3   OH212308   3.538   0.211   1.961 -0.3633 -0.3831 -0.6087
 4115TIP3    H112309   3.579   0.170   2.037 -0.2809  1.3126  0.2866
 4115TIP3    H212310   3.611   0.234   1.903 -0.2445  0.3496 -0.1716
 4116TIP3   OH212311   1.684   2.141   5.074 -0.3068  0.2424 -0.5736
 4116TIP3    H112312   1.770   2.152   5.034  0.0836  1.5934  0.5791
 4116TIP3    H212313   1.651   2.059   5.035  0.8877  0.4098 -2.0700
 4117TIP3   OH212314   0.822   6.542   4.830 -0.0642 -0.0116 -0.1403
 4117TIP3    H112315   0.882   6.616   4.835  0.7045 -0.6391  0.1646
 4117TIP3    H212316   0.878   6.465   4.841 -0.9520 -0.6035  0.3761
 4118TIP3   OH212317   3.283   0.937   2.827 -0.1711 -0.2620  0.2293
 4118TIP3    H112318   3.360   0.892   2.862  0.3686  0.4007 -0.0850
 4118TIP3    H212319   3.244   0.876   2.765  1.1810  0.1046 -1.0213
 4119TIP3   OH212320   2.668   2.821   0.563 -0.4520  0.1003  0.4536
 4119TIP3    H112321   2.729   2.800   0.634 -0.7475  0.8162  0.9347
 4119TIP3    H212322   2.595   2.866   0.607 -0.2603  1.2878 -0.3864
 4120TIP3   OH212323   5.963   0.338   5.047 -0.4078 -0.3489  0.1854
 4120TIP3    H112324   5.892   0.374   4.994  1.9484  0.8332 -2.3880
 4120TIP3    H212325   5.985   0.255   5.006 -0.2484 -0.6920  0.9364
 4121TIP3   OH212326   3.520   6.288   3.883  0.0158  0.3091  0.1236
 4121TIP3    H112327   3.605   6.302   3.923 -0.0755  1.3038  0.0072
 4121TIP3    H212328   3.494   6.375   3.851 -0.2928 -0.2744 -1.3144
 4122TIP3   OH212329   3.063   2.980   0.609  0.1288 -0.2476  0.3565
 4122TIP3    H112330   3.151   2.952   0.583  0.4296  0.0297  1.0616
 4122TIP3    H212331   3.069   2.996   0.703 -0.1801  1.6488  0.0846
 4123TIP3   OH212332   3.772   1.545   3.680 -0.1810 -0.0285 -0.0771
 4123TIP3    H112333   3.848   1.489   3.695 -1.5777 -2.2223 -0.6702
 4123TIP3    H212334   3.708   1.516   3.745 -1.4821 -0.2052 -1.3919
 4124TIP3   OH212335   0.238   6.402   0.642  0.3537  0.7237  0.5264
 4124TIP3    H112336   0.142   6.409   0.641  0.3592  0.8405  0.8201
 4124TIP3    H212337   0.255   6.308   0.634  0.1964  0.6096  1.4950
 4125TIP3   OH212338   6.033   3.257   5.115  0.0041  0.2724  0.2563
 4125TIP3    H112339   6.045   3.341   5.072 -2.1147 -0.1201 -1.2704
 4125TIP3    H212340   6.105   3.203   5.083  0.0955  0.8498 -0.5411
 4126TIP3   OH212341   3.889   5.563   4.324  0.1320 -0.6524  0.2834
 4126TIP3    H112342   3.797   5.586   4.309  0.5878  1.0878 -0.1114
 4126TIP3    H212343   3.920   5.529   4.240 -0.6411 -3.2687  0.9649
 4127TIP3   OH212344   2.385   6.012   3.311  0.2506 -0.1861  0.2093
 4127TIP3    H112345   2.345   5.952   3.375  0.0822  3.1055  3.5798
 4127TIP3    H212346   2.479   6.008   3.329  0.1975  0.8073  0.8197
 4128TIP3   OH212347   0.101   2.029   3.144 -0.2362 -0.1115  0.8308
 4128TIP3    H112348   0.076   1.963   3.210  0.5455  0.3291  1.5928
 4128TIP3    H212349   0.088   2.113   3.188  0.5357  0.1833  0.5088
 4129TIP3   OH212350   1.722   2.464   5.620  0.1893 -0.3715 -0.0184
 4129TIP3    H112351   1.804   2.426   5.587 -0.6714 -2.7423  0.3653
 4129TIP3    H212352   1.679   2.500   5.543  2.0813  2.0755 -0.0540
 4130TIP3   OH212353   5.620   3.882   4.036 -0.2547 -0.1922  0.2433
 4130TIP3    H112354   5.544   3.939   4.022 -1.1164 -0.9664  1.5572
 4130TIP3    H212355   5.587   3.794   4.019 -0.6116 -0.9038  3.8654
 4131TIP3   OH212356   0.604   1.963   1.647 -0.6720 -0.5681  0.1226
 4131TIP3    H112357   0.658   1.905   1.701 -2.0684 -0.5894  1.5763
 4131TIP3    H212358   0.667   2.018   1.600  0.6265 -1.7595  0.3965
 4132TIP3   OH212359   3.338   6.459   4.496  0.1080 -0.2182 -0.4455
 4132TIP3    H112360   3.288   6.520   4.551  2.8291  0.4984  1.4752
 4132TIP3    H212361   3.273   6.418   4.439 -2.4507  1.3406  1.1728
 4133TIP3   OH212362   6.265   5.268   1.837  0.3201 -0.8234  0.5059
 4133TIP3    H112363   6.219   5.217   1.903 -1.3073 -0.5054 -0.3225
 4133TIP3    H212364   6.228   5.238   1.753  1.4980 -0.4070 -0.1872
 4134TIP3   OH212365   1.904   3.237   3.047  0.1485 -0.4564 -0.0658
 4134TIP3    H112366   1.999   3.234   3.060  0.2921  0.8788 -0.6513
 4134TIP3    H212367   1.893   3.291   2.969 -1.0785 -1.0773 -0.3389
 4135TIP3   OH212368   1.490   3.799   0.733 -0.0142 -0.1784  0.1085
 4135TIP3    H112369   1.538   3.858   0.792 -1.3850  0.5674  0.5171
 4135TIP3    H212370   1.467   3.853   0.658 -1.5418 -0.0885  0.6174
 4136TIP3   OH212371   4.283   1.673   3.772  0.0762  0.2922  0.0986
 4136TIP3    H112372   4.332   1.746   3.732  0.0569 -1.0092 -2.5301
 4136TIP3    H212373   4.345   1.600   3.772 -0.7755 -0.4471 -0.0524
 4137TIP3   OH212374   4.653   2.130   0.881  0.3613  0.3472 -0.0480
 4137TIP3    H112375   4.657   2.202   0.818  3.3076 -0.9161 -1.4653
 4137TIP3    H212376   4.605   2.061   0.835 -0.8026  0.6855  0.6052
 4138TIP3   OH212377   0.711   3.130   3.452 -0.3031  0.0427  0.1354
 4138TIP3    H112378   0.776   3.194   3.479 -2.6822  1.7396  2.2294
 4138TIP3    H212379   0.726   3.055   3.510  0.5827 -0.1627 -0.3274
 4139TIP3   OH212380   5.753   6.317   1.959 -0.1486  0.1419 -0.4715
 4139TIP3    H112381   5.796   6.261   1.894 -0.1864  0.0059 -0.3785
 4139TIP3    H212382   5.814   6.390   1.971  1.1156 -1.1154  1.2922
 4140TIP3   OH212383   2.987   4.094   1.171  0.1090  0.8061  0.5355
 4140TIP3    H112384   2.961   4.130   1.086 -1.1394  1.1181  1.0226
 4140TIP3    H212385   2.982   4.169   1.231 -2.1164 -0.0095  1.4834
 4141TIP3   OH212386   2.479   3.022   0.023  0.3033  0.3017 -0.4861
 4141TIP3    H112387   2.417   3.086  -0.010  1.1107  0.8526 -0.9578
 4141TIP3    H212388   2.552   3.074   0.057  0.0657 -0.2959  1.0114
 4142TIP3   OH212389   3.712   6.779   4.705 -0.7035  0.5624 -0.1375
 4142TIP3    H112390   3.683   6.793   4.795  0.7716  0.6591  0.3418
 4142TIP3    H212391   3.654   6.710   4.671  0.3086 -1.2924  1.7035
 4143TIP3   OH212392   2.167   3.085   4.463  0.1039 -0.1194  0.0090
 4143TIP3    H112393   2.223   3.107   4.389  0.3535 -1.8103 -0.3231
 4143TIP3    H212394   2.228   3.068   4.535 -0.0992  0.4971  0.3360
 4144TIP3   OH212395   0.923   4.291   2.493 -0.4191  0.5842 -0.0839
 4144TIP3    H112396   0.961   4.316   2.577  0.2374  0.9945 -0.4972
 4144TIP3    H212397   0.948   4.199   2.482 -2.5079 -0.2229  1.2501
 4145TIP3   OH212398   5.805   6.684   1.339 -0.5414  0.0418 -0.2412
 4145TIP3    H112399   5.736   6.667   1.404 -0.8483  1.2581 -0.2325
 4145TIP3    H212400   5.883   6.645   1.378 -0.9897 -0.3803  0.2609
 4146TIP3   OH212401   6.283   6.524   0.920 -0.2182  0.4176 -0.3461
 4146TIP3    H112402   6.364   6.473   0.927 -0.2935  0.4779  1.3235
 4146TIP3    H212403   6.215   6.466   0.953 -0.1965  1.7747  2.3544
 4147TIP3   OH212404   0.360   0.644   3.902 -0.1843  0.0586  0.1832
 4147TIP3    H112405   0.440   0.691   3.928  0.4635 -1.6744  1.5452
 4147TIP3    H212406   0.389   0.585   3.832 -0.8742  1.2486 -1.1429
 4148TIP3   OH212407   2.932   2.373   1.276  0.0729  0.1246  0.2736
 4148TIP3    H112408   2.951   2.364   1.369 -0.7469  0.1652  0.4585
 4148TIP3    H212409   3.002   2.326   1.231  1.2440  1.2384  0.8512
 4149TIP3   OH212410   2.941   6.770   4.487  0.1892 -0.1049  0.5757
 4149TIP3    H112411   2.877   6.736   4.425  2.8082 -3.2865 -0.6493
 4149TIP3    H212412   2.904   6.751   4.573 -0.7832 -1.2876 -0.0818
 4150TIP3   OH212413   0.820   1.263   0.342 -0.1016 -0.0654  0.5499
 4150TIP3    H112414   0.800   1.291   0.253  1.1851  0.9915  0.5701
 4150TIP3    H212415   0.900   1.311   0.365  1.2117 -2.4067  1.2398
 4151TIP3   OH212416   3.564   0.147   3.425 -0.2477 -0.3190 -0.5252
 4151TIP3    H112417   3.624   0.097   3.370 -0.9513 -1.1257 -0.5836
 4151TIP3    H212418   3.612   0.162   3.507 -0.3148 -1.8229 -0.1879
 4152TIP3   OH212419   3.429   2.932   3.570  0.5356 -0.7142  0.2971
 4152TIP3    H112420   3.442   2.903   3.661  0.9837 -2.0085 -0.1571
 4152TIP3    H212421   3.498   2.888   3.521 -0.9624 -1.7185 -1.0038
 4153TIP3   OH212422   1.509   6.027   2.908  0.3748  0.1792  0.1778
 4153TIP3    H112423   1.535   5.936   2.922  1.0110  0.5501  1.5374
 4153TIP3    H212424   1.415   6.022   2.887  0.2954 -0.7482  0.7052
 4154TIP3   OH212425   4.544   3.940   0.276 -0.0433 -0.4116 -0.1286
 4154TIP3    H112426   4.624   3.892   0.250 -0.5409 -1.3495  0.0110
 4154TIP3    H212427   4.489   3.939   0.198  0.1625  0.4208 -0.2875
 4155TIP3   OH212428   4.597   0.788   0.021  0.4985  0.4038 -0.2518
 4155TIP3    H112429   4.553   0.866   0.056 -2.9417 -0.7659 -1.4997
 4155TIP3    H212430   4.525   0.729  -0.002  2.9265 -3.1789  0.6010
 4156TIP3   OH212431   5.455   0.049   2.898 -0.3112  0.0075 -0.0316
 4156TIP3    H112432   5.398   0.086   2.966  0.3029  0.6170  0.1557
 4156TIP3    H212433   5.519   0.117   2.881 -1.8735  0.9087 -2.9931
 4157TIP3   OH212434   7.108   3.597   3.870  0.3617  0.6988  0.0223
 4157TIP3    H112435   7.117   3.513   3.825 -0.0168  0.1681  0.9182
 4157TIP3    H212436   7.197   3.629   3.879  0.6829 -0.4392  1.2079
 4158TIP3   OH212437   7.017   1.314   3.780 -0.7792 -0.0878  0.2997
 4158TIP3    H112438   7.002   1.228   3.820 -0.2443 -1.7077 -2.7349
 4158TIP3    H212439   7.112   1.325   3.783 -0.8621  0.5314  0.8745
 4159TIP3   OH212440   1.937   2.853   1.226  0.5989  0.1654 -0.0683
 4159TIP3    H112441   1.902   2.823   1.142  0.0961  0.1087  0.1597
 4159TIP3    H212442   2.025   2.815   1.230  0.2288 -0.7135 -0.0922
 4160TIP3   OH212443   5.632  -0.015   4.463  0.4037  0.1398 -0.0726
 4160TIP3    H112444   5.536  -0.018   4.467  0.3255  0.9686 -0.8321
 4160TIP3    H212445   5.651   0.073   4.430  1.4862  0.6110  1.6683
 4161TIP3   OH212446   6.605   5.133   2.908 -0.3287 -0.1126  0.2086
 4161TIP3    H112447   6.549   5.060   2.935  1.3600 -0.9600  1.6190
 4161TIP3    H212448   6.555   5.211   2.931 -1.2764 -0.8336  0.6630
 4162TIP3   OH212449   6.695   5.237   2.689 -0.0430 -0.2431 -0.1008
 4162TIP3    H112450   6.782   5.277   2.690 -0.6647  1.1820 -0.5722
 4162TIP3    H212451   6.676   5.218   2.781  0.6583 -0.3369  0.0267
 4163TIP3   OH212452   3.203   5.132   5.433  0.0809 -0.2791 -0.4023
 4163TIP3    H112453   3.229   5.059   5.376 -1.1165  0.0429 -1.4101
 4163TIP3    H212454   3.120   5.105   5.472 -0.0761  0.2928 -0.3236
 4164TIP3   OH212455   3.293   6.507   2.419  0.1693  0.0155  0.2062
 4164TIP3    H112456   3.273   6.595   2.387 -1.0469  0.0125  0.8709
 4164TIP3    H212457   3.223   6.452   2.383  0.7839 -0.6356 -0.0111
 4165TIP3   OH212458   2.396   2.328   5.291 -0.0054  0.0176  0.5134
 4165TIP3    H112459   2.339   2.314   5.366 -0.4087  1.1015  0.4214
 4165TIP3    H212460   2.482   2.299   5.321 -0.3634 -0.5026  1.0520
 4166TIP3   OH212461   4.408   2.818   3.949 -0.1151  0.0270 -0.0370
 4166TIP3    H112462   4.335   2.880   3.939  0.5666  0.7907 -0.3805
 4166TIP3    H212463   4.458   2.828   3.868  1.0518  0.4125  0.7160
 4167TIP3   OH212464   4.630   4.919   4.758 -0.7845 -0.1622  0.0822
 4167TIP3    H112465   4.650   4.968   4.837 -0.6046 -0.3688  0.1650
 4167TIP3    H212466   4.577   4.979   4.706  1.0464  0.8496 -0.7007
 4168TIP3   OH212467   2.004   1.561   3.966 -0.0938 -0.3607 -0.3735
 4168TIP3    H112468   2.069   1.510   3.917 -0.4540 -0.2966 -0.9371
 4168TIP3    H212469   2.036   1.562   4.056 -0.8851 -2.9175 -0.0033
 4169TIP3   OH212470   4.022   3.911   3.950 -0.2586  0.1325 -0.3699
 4169TIP3    H112471   3.958   3.862   4.001 -1.2920  1.7703 -0.0319
 4169TIP3    H212472   4.097   3.921   4.008 -0.1349 -0.7991 -0.3551
 4170TIP3   OH212473   1.800   5.960   1.719 -0.1250  0.5644  0.1035
 4170TIP3    H112474   1.792   5.866   1.729 -1.2035  0.5554 -0.6832
 4170TIP3    H212475   1.884   5.973   1.674  0.7385  0.0988  1.5420
 4171TIP3   OH212476   7.113   1.125   2.943 -0.3783 -0.3685  0.1187
 4171TIP3    H112477   7.039   1.161   2.894  0.7292  1.2674 -0.4024
 4171TIP3    H212478   7.185   1.122   2.881  0.3176 -0.8870  0.9205
 4172TIP3   OH212479   6.048   5.278   4.985  0.1174 -0.3119 -0.5059
 4172TIP3    H112480   6.115   5.319   4.931  0.6731  0.8260  0.9809
 4172TIP3    H212481   6.081   5.190   5.003  3.0729  1.2599  3.0465
 4173TIP3   OH212482   1.482   3.736   3.976 -0.1109 -0.7136 -1.0323
 4173TIP3    H112483   1.539   3.813   3.978 -2.2181  0.9358  1.3908
 4173TIP3    H212484   1.425   3.750   3.900 -0.8656  0.4805 -0.2745
 4174TIP3   OH212485   1.498   5.921   5.442  0.4729  0.5268  0.0406
 4174TIP3    H112486   1.503   5.949   5.351 -1.5771  1.2388  0.1063
 4174TIP3    H212487   1.405   5.903   5.457  0.7849  0.3057  1.9517
 4175TIP3   OH212488   3.560   0.650   4.638 -0.0863 -0.1876  0.1331
 4175TIP3    H112489   3.510   0.573   4.663  0.3962 -0.5508 -0.0088
 4175TIP3    H212490   3.499   0.702   4.584 -0.6375 -0.1179  0.8095
 4176TIP3   OH212491   0.019   4.251   4.851  0.1717 -0.0815  0.2299
 4176TIP3    H112492   0.058   4.278   4.768 -2.2771 -0.6899 -1.2171
 4176TIP3    H212493   0.044   4.320   4.913  0.4072  1.4452 -1.4785
 4177TIP3   OH212494   3.944   0.622   1.518  0.1333 -0.1698 -0.2857
 4177TIP3    H112495   4.039   0.635   1.512 -0.1082  1.9893 -0.1649
 4177TIP3    H212496   3.907   0.707   1.496 -1.8265 -1.1451 -0.9849
 4178TIP3   OH212497   3.731   5.025   4.259  0.3221 -0.1576 -0.6319
 4178TIP3    H112498   3.811   5.067   4.292 -0.3777 -0.7252  2.0164
 4178TIP3    H212499   3.663   5.091   4.273 -0.0837 -0.6299 -0.3759
 4179TIP3   OH212500   6.726   3.555   5.118  0.2864  0.6713 -0.5205
 4179TIP3    H112501   6.643   3.576   5.161 -0.0859  0.8084 -1.2845
 4179TIP3    H212502   6.728   3.613   5.042  0.2382 -0.5777 -1.5045
 4180TIP3   OH212503   4.500   2.281   1.613 -0.2095  0.5313  0.2865
 4180TIP3    H112504   4.468   2.195   1.585  0.3158  0.4858 -0.2047
 4180TIP3    H212505   4.589   2.286   1.578 -0.5796  1.6867 -0.5717
 4181TIP3   OH212506   6.774   3.273   0.151 -0.4890  0.2635 -0.0378
 4181TIP3    H112507   6.717   3.313   0.085 -0.4462 -0.1886 -0.3507
 4181TIP3    H212508   6.804   3.192   0.111  1.9849  1.3934 -0.7112
 4182TIP3   OH212509   4.718   1.475   4.869  0.3494  0.1190  0.2614
 4182TIP3    H112510   4.648   1.524   4.911 -2.0638 -2.3979 -0.5091
 4182TIP3    H212511   4.715   1.502   4.777  0.5264  0.1616  0.2686
 4183TIP3   OH212512   3.472   2.942   2.403  0.4634  0.5730  0.0456
 4183TIP3    H112513   3.478   2.947   2.308 -0.1470 -0.6954 -0.0923
 4183TIP3    H212514   3.555   2.904   2.431  0.3359  0.2003 -0.0702
 4184TIP3   OH212515   3.581   1.604   0.328  0.5358  0.0851  0.5067
 4184TIP3    H112516   3.495   1.566   0.342  1.2535 -2.4106 -1.1181
 4184TIP3    H212517   3.615   1.621   0.415 -1.8944  2.0505  1.1802
 4185TIP3   OH212518   0.377   5.191   0.948 -0.5258  0.2618  0.1767
 4185TIP3    H112519   0.351   5.183   1.039  2.0987 -0.2835  0.9693
 4185TIP3    H212520   0.300   5.162   0.898 -1.7281 -0.2640  2.2186
 4186TIP3   OH212521   1.664   5.704   1.981  0.0796  0.6242 -0.3095
 4186TIP3    H112522   1.726   5.652   1.930  0.7834  1.2131 -0.0577
 4186TIP3    H212523   1.581   5.657   1.971  0.2912  0.4899 -1.6362
 4187TIP3   OH212524   2.900   0.335   5.312 -0.4334  0.1534 -0.0440
 4187TIP3    H112525   2.877   0.404   5.374 -3.0474  0.3237 -1.0752
 4187TIP3    H212526   2.854   0.258   5.345  0.0450 -0.3367 -0.5134
 4188TIP3   OH212527   6.805   5.128   0.933  0.2978  0.3138  0.0376
 4188TIP3    H112528   6.823   5.072   0.857  0.8587  0.2973  0.1753
 4188TIP3    H212529   6.710   5.123   0.944  0.4222 -1.5165  0.7208
 4189TIP3   OH212530   6.579   5.534   1.787  0.2923 -0.0720  0.3888
 4189TIP3    H112531   6.622   5.580   1.859 -0.4148  0.2704  0.6042
 4189TIP3    H212532   6.548   5.452   1.825 -2.1095  1.0903  1.1213
 4190TIP3   OH212533   2.103   2.340   0.254 -0.6522  0.2658 -0.1042
 4190TIP3    H112534   2.194   2.368   0.246 -0.4340 -0.9173 -2.4027
 4190TIP3    H212535   2.108   2.248   0.282 -1.2401  0.7480  1.7557
 4191TIP3   OH212536   2.308   1.208   3.688 -0.3570 -0.1490  0.4849
 4191TIP3    H112537   2.372   1.246   3.627 -1.6967 -0.7024 -1.3354
 4191TIP3    H212538   2.350   1.217   3.773  1.9362 -0.0149 -0.5585
 4192TIP3   OH212539   0.408   1.825   2.191  0.5502 -0.6916  0.0928
 4192TIP3    H112540   0.323   1.865   2.208  1.2170 -0.3301  3.2796
 4192TIP3    H212541   0.388   1.737   2.160 -1.0294 -1.0093  1.8774
 4193TIP3   OH212542   4.821   4.964   2.757 -0.1632 -0.2289  0.2496
 4193TIP3    H112543   4.759   4.963   2.830  0.2878 -0.8230  0.6338
 4193TIP3    H212544   4.869   4.881   2.766  0.3521  0.0069 -0.3259
 4194TIP3   OH212545   0.366   3.920   2.280  0.2915  0.2670  0.1736
 4194TIP3    H112546   0.377   3.927   2.375 -2.8420 -0.1794  0.7062
 4194TIP3    H212547   0.322   4.001   2.255 -0.1895 -0.2279 -0.6328
 4195TIP3   OH212548   1.574   2.378   2.085  0.4199  0.1586  0.3962
 4195TIP3    H112549   1.574   2.465   2.123  0.9943  0.0779  0.5927
 4195TIP3    H212550   1.482   2.356   2.072  0.2915  1.2249 -0.6467
 4196TIP3   OH212551   1.508   6.266   0.641 -0.1722 -0.3858  0.2735
 4196TIP3    H112552   1.457   6.343   0.617 -0.5379 -0.4606  0.7797
 4196TIP3    H212553   1.556   6.243   0.562  1.2842  1.3759  0.5903
 4197TIP3   OH212554   6.005   4.583   3.057 -0.0892  0.0916 -0.0201
 4197TIP3    H112555   5.945   4.510   3.044 -2.4737  1.4648  2.2420
 4197TIP3    H212556   5.952   4.661   3.043  1.3259  1.4069  1.4619
 4198TIP3   OH212557   4.177   3.426   2.556 -0.2623  0.3735  0.3633
 4198TIP3    H112558   4.098   3.466   2.591  0.7335  1.5967  1.3474
 4198TIP3    H212559   4.212   3.373   2.628 -1.0432 -1.5803 -0.6107
 4199TIP3   OH212560   1.785   4.379   0.808  0.1406 -0.1347 -0.3608
 4199TIP3    H112561   1.848   4.333   0.863  0.1741 -0.4624 -0.6648
 4199TIP3    H212562   1.728   4.309   0.774  0.7797 -0.0852 -1.5873
 4200TIP3   OH212563   7.019   6.529   0.102  0.0308  0.0041  0.3910
 4200TIP3    H112564   7.074   6.494   0.172  0.3870 -0.6793 -0.2164
 4200TIP3    H212565   7.017   6.459   0.036  2.0830  1.6775 -1.5972
 4201TIP3   OH212566   1.372   2.779   4.396 -0.2718 -0.1452  0.3921
 4201TIP3    H112567   1.449   2.833   4.376  1.2887 -1.9765  1.2403
 4201TIP3    H212568   1.299   2.840   4.390  0.9072  1.2019 -2.8474
 4202TIP3   OH212569   6.467   4.729   2.185 -0.4119  0.1973 -0.5474
 4202TIP3    H112570   6.476   4.707   2.092  1.9751 -0.6136 -0.1850
 4202TIP3    H212571   6.450   4.646   2.228  1.0020  0.1597 -0.0118
 4203TIP3   OH212572   7.100   3.788   1.574 -0.0038  0.4497 -0.4433
 4203TIP3    H112573   7.117   3.725   1.644 -0.7887  0.4422 -0.2541
 4203TIP3    H212574   7.180   3.786   1.521 -0.5758 -1.8272 -1.3332
 4204TIP3   OH212575   5.422   0.246   4.432 -0.1299  0.2716 -0.1309
 4204TIP3    H112576   5.397   0.153   4.433  1.5775 -0.2607 -1.3568
 4204TIP3    H212577   5.456   0.262   4.521  0.1885 -0.4782 -0.1061
 4205TIP3   OH212578   2.704   0.779   1.584  0.3456  0.4752  0.4698
 4205TIP3    H112579   2.791   0.786   1.545 -0.3076  0.8146 -0.9920
 4205TIP3    H212580   2.716   0.803   1.676  1.6279  1.3932  0.0762
 4206TIP3   OH212581   0.493   3.478   0.345  0.2184 -0.3004  0.2226
 4206TIP3    H112582   0.463   3.498   0.434 -3.0400  0.4913 -0.9263
 4206TIP3    H212583   0.551   3.550   0.322  0.8876 -0.3716  1.5650
 4207TIP3   OH212584   4.071   3.791   5.274  0.1476  0.5047  0.5331
 4207TIP3    H112585   4.144   3.850   5.297 -1.6875  2.5462  1.5580
 4207TIP3    H212586   4.046   3.751   5.358  0.5657 -0.8092  0.0486
 4208TIP3   OH212587   6.497   0.868   1.967  0.2095  0.0541  0.5222
 4208TIP3    H112588   6.562   0.934   1.945  0.2327 -0.0876  0.1601
 4208TIP3    H212589   6.417   0.918   1.984 -0.2812  0.0787 -1.6000
 4209TIP3   OH212590   7.084   1.082   4.389 -0.4086  0.1656 -0.0390
 4209TIP3    H112591   6.999   1.124   4.401 -0.8560 -0.8483  0.4806
 4209TIP3    H212592   7.068   0.990   4.407  0.0589 -0.6702 -3.2069
 4210TIP3   OH212593   3.710   6.426   0.830  0.3354 -0.2267  0.5139
 4210TIP3    H112594   3.792   6.378   0.832 -0.3243 -1.3930  0.6101
 4210TIP3    H212595   3.679   6.416   0.739 -1.0076 -2.1757  1.1022
 4211TIP3   OH212596   0.713   5.663   4.385  0.6259 -0.0993 -0.3867
 4211TIP3    H112597   0.619   5.644   4.377  0.8134 -1.5494  0.5089
 4211TIP3    H212598   0.722   5.703   4.472  1.0497 -1.6230  0.2983
 4212TIP3   OH212599   1.815   0.526   0.276  0.1812  0.3919  0.0746
 4212TIP3    H112600   1.848   0.470   0.206  0.0915  0.8555 -0.3370
 4212TIP3    H212601   1.811   0.613   0.238  0.7898  0.7733  0.8749
 4213TIP3   OH212602   2.290   5.242   3.528 -0.5985 -0.6689 -0.5022
 4213TIP3    H112603   2.366   5.230   3.584 -0.6844 -2.0511 -0.6524
 4213TIP3    H212604   2.326   5.277   3.446 -0.6197  2.8656  0.7848
 4214TIP3   OH212605   1.463   2.181   4.721 -0.0044  0.2281  0.0214
 4214TIP3    H112606   1.555   2.183   4.696  0.3424 -1.2262  1.0506
 4214TIP3    H212607   1.447   2.265   4.763  1.1442  0.0976  0.7624
 4215TIP3   OH212608   2.208   1.242   4.289  0.4883 -0.0001  0.5595
 4215TIP3    H112609   2.190   1.148   4.286 -1.1342  0.3218 -1.2097
 4215TIP3    H212610   2.250   1.261   4.205 -1.1908  1.2009 -0.0424
 4216TIP3   OH212611   0.088   6.563   3.983 -0.4419  0.3779  0.0472
 4216TIP3    H112612   0.104   6.577   4.077  3.2785 -0.0296 -0.3733
 4216TIP3    H212613   0.140   6.631   3.940 -2.4834  0.8903 -1.8133
 4217TIP3   OH212614   6.675   4.603   2.025 -0.3389 -0.1788  0.1681
 4217TIP3    H112615   6.736   4.539   1.989 -2.2307 -2.5634  0.9087
 4217TIP3    H212616   6.604   4.606   1.961 -1.8431 -1.4576  1.6829
 4218TIP3   OH212617   0.506   1.907   1.398 -0.4671 -0.2541  0.1090
 4218TIP3    H112618   0.463   1.989   1.373  0.3702  0.1881  0.0882
 4218TIP3    H212619   0.524   1.916   1.491  2.4821  0.9723 -0.4763
 4219TIP3   OH212620   0.956   0.219   1.434  0.4503 -0.2206 -0.2753
 4219TIP3    H112621   0.928   0.277   1.363  0.5974  0.1723 -0.0208
 4219TIP3    H212622   1.045   0.193   1.411  0.4730 -0.1472 -0.2722
 4220TIP3   OH212623   5.038   3.402   1.400  0.1944 -0.1907 -0.1816
 4220TIP3    H112624   5.041   3.497   1.408 -0.8894 -0.0954 -0.7203
 4220TIP3    H212625   5.013   3.386   1.309  0.0739 -0.9759 -0.0217
 4221TIP3   OH212626   6.411   1.316   2.404 -0.5859 -0.1752  0.0254
 4221TIP3    H112627   6.493   1.269   2.417  0.1037  0.6499 -1.1263
 4221TIP3    H212628   6.354   1.252   2.360 -0.1452 -0.3802 -0.2557
 4222TIP3   OH212629   4.229   1.415   2.861  0.2350 -0.7538 -0.2283
 4222TIP3    H112630   4.224   1.386   2.953  1.2248  0.0864  0.1119
 4222TIP3    H212631   4.149   1.381   2.821 -0.6547 -0.3996  1.1648
 4223TIP3   OH212632   0.716   0.037   3.060 -0.1904  0.4481  0.0395
 4223TIP3    H112633   0.662  -0.042   3.062 -0.7494  0.8011 -0.6218
 4223TIP3    H212634   0.740   0.048   2.968  0.9807  0.3313  0.3137
 4224TIP3   OH212635   1.428   2.242   4.076 -0.4032  0.2362 -0.2929
 4224TIP3    H112636   1.370   2.309   4.113  0.8779  1.0804  0.2636
 4224TIP3    H212637   1.491   2.292   4.024  0.3851 -0.5607 -0.1180
 4225TIP3   OH212638   3.874   3.363   0.295 -0.7782 -0.3119 -0.3453
 4225TIP3    H112639   3.900   3.358   0.387 -0.6511  0.8698 -0.2920
 4225TIP3    H212640   3.802   3.301   0.286 -0.4913 -0.7739  0.4413
 4226TIP3   OH212641   3.115   2.237   1.139 -0.5976  0.5182  0.3043
 4226TIP3    H112642   3.153   2.278   1.061 -1.5621 -1.3408 -1.2162
 4226TIP3    H212643   3.118   2.143   1.120 -1.5903  0.0783  2.1870
 4227TIP3   OH212644   5.316   3.883   0.631 -0.1151 -0.3598  0.9808
 4227TIP3    H112645   5.392   3.853   0.581  0.7493  0.8774  1.5023
 4227TIP3    H212646   5.311   3.822   0.705  1.3689  0.4654  1.8066
 4228TIP3   OH212647   6.134   4.683   4.445 -0.2425  0.6900 -0.3941
 4228TIP3    H112648   6.125   4.636   4.528  0.8469  1.4832  0.1979
 4228TIP3    H212649   6.197   4.631   4.395 -0.8644  0.2372 -0.7241
 4229TIP3   OH212650   1.540   4.964   4.137 -0.4360  0.1069  0.4331
 4229TIP3    H112651   1.521   4.917   4.219 -0.8062  0.0342  0.3078
 4229TIP3    H212652   1.468   4.940   4.079  0.3742 -0.6948 -0.2710
 4230TIP3   OH212653   5.173   1.322   3.286  0.0851  0.0864 -0.5746
 4230TIP3    H112654   5.180   1.380   3.362 -0.5975 -0.2744 -0.2316
 4230TIP3    H212655   5.263   1.294   3.269  0.2085 -0.0340  0.2606
 4231TIP3   OH212656   6.565   1.859   4.164  0.0279 -0.0504  0.6956
 4231TIP3    H112657   6.471   1.852   4.176 -0.4102 -0.7018 -2.2820
 4231TIP3    H212658   6.595   1.769   4.155  0.3610  0.2222 -1.4836
 4232TIP3   OH212659   3.474   2.244   1.083  0.1954  0.3014  0.1587
 4232TIP3    H112660   3.423   2.193   1.145 -2.2780  1.3152 -0.8807
 4232TIP3    H212661   3.502   2.321   1.132 -0.5046  0.4002  0.4132
 4233TIP3   OH212662   0.104   5.192   1.387 -0.1022  0.3528  0.2623
 4233TIP3    H112663   0.020   5.164   1.425 -0.0054  1.3344  1.2574
 4233TIP3    H212664   0.083   5.272   1.339 -0.1842 -0.7744 -1.6688
 4234TIP3   OH212665   5.920   3.006   1.988 -0.6529  0.1082  0.8233
 4234TIP3    H112666   6.001   2.965   2.019 -0.0422  0.2332 -0.5019
 4234TIP3    H212667   5.929   3.005   1.892 -0.6469  3.2374  0.7098
 4235TIP3   OH212668   6.469   4.752   0.067  0.3194  0.1523  0.6477
 4235TIP3    H112669   6.420   4.680   0.028  1.0363  0.7051 -1.3905
 4235TIP3    H212670   6.402   4.810   0.103 -0.3654 -0.4320  0.3334
 4236TIP3   OH212671   3.092   1.960   0.698  0.4283  0.0912 -0.0278
 4236TIP3    H112672   3.014   1.993   0.742 -0.6552 -0.4886 -1.4671
 4236TIP3    H212673   3.153   2.034   0.701 -0.0578  0.4706  1.3314
 4237TIP3   OH212674   1.671   6.271   1.546  0.3153 -0.1733  0.0977
 4237TIP3    H112675   1.721   6.219   1.483 -0.9041 -1.0880 -0.1651
 4237TIP3    H212676   1.580   6.249   1.527 -0.1181  0.2227  1.5975
 4238TIP3   OH212677   4.308   2.173   3.334  0.1336  0.3912 -0.4474
 4238TIP3    H112678   4.257   2.158   3.414 -0.9924  2.1357 -0.7575
 4238TIP3    H212679   4.399   2.172   3.363 -0.1795 -0.5927  0.5567
 4239TIP3   OH212680   2.336   3.172   2.621  0.3398 -0.3969  0.0673
 4239TIP3    H112681   2.289   3.130   2.549  1.7088 -1.7583 -0.0569
 4239TIP3    H212682   2.339   3.265   2.596  1.3352 -0.9203 -1.9656
 4240TIP3   OH212683   0.649   0.678   5.493  0.0190  0.0495 -0.3687
 4240TIP3    H112684   0.622   0.765   5.521  0.1707 -0.2369  0.6837
 4240TIP3    H212685   0.611   0.669   5.405 -0.8734  0.7718 -0.0750
 4241TIP3   OH212686   6.453   4.111   2.245 -0.2763 -0.2575  0.0114
 4241TIP3    H112687   6.400   4.033   2.260 -0.0818 -0.1339  1.5121
 4241TIP3    H212688   6.527   4.081   2.193 -1.1360 -0.6918 -0.9776
 4242TIP3   OH212689   4.869   2.360   2.122  0.5416 -0.5016 -0.0714
 4242TIP3    H112690   4.888   2.412   2.044  0.0510 -0.1439  0.0368
 4242TIP3    H212691   4.875   2.423   2.194  1.4226 -0.9243  0.2300
 4243TIP3   OH212692   5.825   4.341   5.548 -0.3434  0.0336  0.2987
 4243TIP3    H112693   5.834   4.290   5.629  1.4348  0.3196  0.3246
 4243TIP3    H212694   5.731   4.359   5.542 -1.0572 -3.0262  0.4023
 4244TIP3   OH212695   2.235   1.153   3.073 -0.3818 -0.0124 -0.0087
 4244TIP3    H112696   2.169   1.219   3.051 -0.5888  0.0309  0.7074
 4244TIP3    H212697   2.194   1.099   3.140 -0.5045 -1.3793 -1.1605
 4245TIP3   OH212698   0.765   5.339   4.550 -0.2050 -0.0781 -0.3377
 4245TIP3    H112699   0.840   5.391   4.521 -1.0163 -0.1899 -2.8872
 4245TIP3    H212700   0.758   5.269   4.485 -3.2152  0.6341 -0.9345
 4246TIP3   OH212701   5.038   0.665   0.300 -0.2402 -0.2667  0.2227
 4246TIP3    H112702   4.997   0.712   0.373 -0.1843 -1.0694  0.7837
 4246TIP3    H212703   4.981   0.683   0.225 -1.4532 -1.0819  0.9168
 4247TIP3   OH212704   3.502   5.458   1.840  0.0315  0.2513  0.1572
 4247TIP3    H112705   3.512   5.486   1.931 -0.7308  1.1937 -0.0303
 4247TIP3    H212706   3.424   5.403   1.840 -2.4812  3.5088 -0.5351
 4248TIP3   OH212707   3.730   2.628   2.666 -0.5693  0.3754 -0.3958
 4248TIP3    H112708   3.654   2.599   2.614 -0.0247 -1.3324 -0.2877
 4248TIP3    H212709   3.805   2.607   2.611 -0.1365  1.7165 -0.3395
 4249TIP3   OH212710   2.652   5.121   1.623 -0.2111 -0.4170 -0.6535
 4249TIP3    H112711   2.682   5.210   1.605 -0.4879 -0.3529 -0.8039
 4249TIP3    H212712   2.657   5.112   1.718  3.1612 -1.4129 -0.8032
 4250TIP3   OH212713   1.551   0.529   1.614 -0.1877  0.2724 -0.0297
 4250TIP3    H112714   1.638   0.536   1.574 -0.3062 -1.5473 -0.7120
 4250TIP3    H212715   1.515   0.448   1.578 -1.7388  0.4188  1.1018
 4251TIP3   OH212716   3.005   4.198  -0.012  0.1564 -0.2208  0.2817
 4251TIP3    H112717   3.006   4.209   0.083 -0.2998  1.1432  0.1615
 4251TIP3    H212718   2.919   4.160  -0.030  0.2668 -0.5372  0.4174
 4252TIP3   OH212719   2.410   0.079   2.853 -0.3898 -0.0113  0.5600
 4252TIP3    H112720   2.396  -0.002   2.803  1.2097  0.7869 -1.3213
 4252TIP3    H212721   2.428   0.049   2.942  0.7481 -1.8101 -0.2009
 4253TIP3   OH212722   1.566   1.461   1.748 -0.5479  0.2838 -0.2886
 4253TIP3    H112723   1.475   1.434   1.740 -0.6617  0.1922  1.0152
 4253TIP3    H212724   1.610   1.387   1.789  0.1672  0.2456 -1.1029
 4254TIP3   OH212725   1.526   3.408   4.742 -0.2045  0.4002  0.5848
 4254TIP3    H112726   1.614   3.389   4.773  0.1844  0.2290 -0.5543
 4254TIP3    H212727   1.510   3.499   4.767  0.0995  0.2749  1.2349
 4255TIP3   OH212728   0.895   0.278   5.852  0.5035  0.4394  0.0775
 4255TIP3    H112729   0.820   0.305   5.905 -0.6062  1.0130 -1.7186
 4255TIP3    H212730   0.952   0.355   5.851  0.3359  0.5649  0.1060
 4256TIP3   OH212731   3.314   6.026   3.268 -0.4806  0.0076 -0.0848
 4256TIP3    H112732   3.231   6.002   3.309 -0.4033 -0.2289 -0.0678
 4256TIP3    H212733   3.299   6.015   3.174 -1.1285  1.9556 -0.2582
 4257TIP3   OH212734   5.489   4.911   1.774 -0.1676  0.0033  0.6573
 4257TIP3    H112735   5.559   4.849   1.754 -0.4117 -0.2735  0.6537
 4257TIP3    H212736   5.479   4.905   1.869  1.1591  1.4957  0.9208
 4258TIP3   OH212737   5.187   5.238   1.818 -0.4855  0.6284 -0.1370
 4258TIP3    H112738   5.186   5.316   1.762 -0.4565 -0.4387 -1.6880
 4258TIP3    H212739   5.279   5.229   1.843 -0.5699  1.3629  0.4778
 4259TIP3   OH212740   1.457   0.062   1.972 -0.3162 -0.3647  0.2269
 4259TIP3    H112741   1.512   0.063   2.051 -1.6399  0.1279  1.1840
 4259TIP3    H212742   1.491   0.133   1.918  1.2386 -1.3362 -0.1211
 4260TIP3   OH212743   6.035   0.099   1.300  0.0328  0.2166 -0.1988
 4260TIP3    H112744   6.035   0.150   1.381  1.4163  1.0263 -0.6767
 4260TIP3    H212745   6.126   0.070   1.290 -0.4872 -1.4076 -0.5409
 4261TIP3   OH212746   6.614   5.286   1.361  0.0039  0.0278 -1.0414
 4261TIP3    H112747   6.675   5.216   1.338 -0.7039 -0.8331 -0.3910
 4261TIP3    H212748   6.556   5.247   1.427  0.2118  1.5427  0.0888
 4262TIP3   OH212749   6.540   6.737   0.231  0.2219 -0.5982  0.4896
 4262TIP3    H112750   6.606   6.686   0.184 -0.5293  0.3471 -1.7259
 4262TIP3    H212751   6.591   6.802   0.279  1.0187 -1.5317  0.9372
 4263TIP3   OH212752   1.555   3.656   4.325 -0.4993 -0.1550 -0.1464
 4263TIP3    H112753   1.469   3.614   4.315 -1.6846  1.8181  1.0035
 4263TIP3    H212754   1.603   3.632   4.246 -2.1587 -1.2162 -0.8888
 4264TIP3   OH212755   5.334   5.677   3.710 -0.1861  0.1240  0.0843
 4264TIP3    H112756   5.392   5.610   3.676 -0.3734 -0.4277  0.8251
 4264TIP3    H212757   5.267   5.629   3.760 -0.7224  0.8064  0.0456
 4265TIP3   OH212758   2.952   3.154   4.242 -0.1176 -0.9082 -0.0266
 4265TIP3    H112759   2.995   3.237   4.266  0.8877 -0.4348 -3.0646
 4265TIP3    H212760   2.929   3.114   4.326  2.9143  0.5828  1.6810
 4266TIP3   OH212761   0.009   3.660   5.728  0.0986  0.0713 -0.7685
 4266TIP3    H112762  -0.027   3.720   5.792  1.1380 -0.7312  0.6366
 4266TIP3    H212763   0.057   3.716   5.666  0.4561  0.7360  0.1004
 4267TIP3   OH212764   5.277   5.874   2.351  0.0806 -0.0735 -0.1253
 4267TIP3    H112765   5.234   5.804   2.302  1.4986  0.2161 -1.8889
 4267TIP3    H212766   5.208   5.938   2.367 -1.0325 -1.4148  0.7034
 4268TIP3   OH212767   7.079   1.053   5.133 -0.3491 -0.0964  0.5327
 4268TIP3    H112768   7.071   0.971   5.085 -0.7806 -0.2263  0.8177
 4268TIP3    H212769   7.171   1.056   5.161 -0.0754  0.0229 -0.3597
 4269TIP3   OH212770   7.007   3.868   2.734  0.3293  0.3777  0.1283
 4269TIP3    H112771   6.965   3.919   2.665  0.8614  0.0057 -0.4739
 4269TIP3    H212772   7.017   3.930   2.807  0.8736  1.1176 -0.5605
 4270TIP3   OH212773   4.263   6.306   2.088  0.2888 -0.2413  0.7554
 4270TIP3    H112774   4.176   6.317   2.126  0.1532 -0.0794  0.4074
 4270TIP3    H212775   4.301   6.232   2.135 -1.0238 -2.0152 -0.7863
 4271TIP3   OH212776   3.396   5.819   4.705  0.2262  0.2809  0.3149
 4271TIP3    H112777   3.308   5.792   4.679 -0.2045  1.3888  0.5886
 4271TIP3    H212778   3.393   5.914   4.707  1.0877  0.3063  1.5004
 4272TIP3   OH212779   5.024   1.761   1.679  0.0964 -0.2965 -0.3180
 4272TIP3    H112780   5.102   1.775   1.626  0.2323  0.2876  0.0207
 4272TIP3    H212781   4.982   1.847   1.682 -0.8102 -0.7074 -0.8771
 4273TIP3   OH212782   2.551   3.254   4.093  0.8414 -0.3833 -0.7025
 4273TIP3    H112783   2.611   3.320   4.127  1.3965 -0.3862 -1.6302
 4273TIP3    H212784   2.574   3.246   4.000  0.3835 -1.4387 -0.7461
 4274TIP3   OH212785   5.922   0.712   4.434 -0.3082  0.4049  0.2176
 4274TIP3    H112786   5.900   0.762   4.512 -1.8291  0.4504 -0.2160
 4274TIP3    H212787   5.974   0.773   4.381  1.0022  0.2709  1.2802
 4275TIP3   OH212788   3.303   1.217   2.779  0.0075 -0.2418  0.1698
 4275TIP3    H112789   3.397   1.222   2.764 -0.0188  1.1886  0.3543
 4275TIP3    H212790   3.288   1.127   2.808  1.1180 -0.8850 -1.1368
 4276TIP3   OH212791   7.043   3.441   1.828  0.0897  0.0028 -0.5707
 4276TIP3    H112792   6.954   3.412   1.844 -0.4921  0.6487 -2.4112
 4276TIP3    H212793   7.057   3.511   1.892  0.2946 -1.8526  1.5426
 4277TIP3   OH212794   5.746   2.290   1.997  0.7282 -0.2946 -0.0079
 4277TIP3    H112795   5.796   2.320   2.072  1.1681 -2.3218  0.5744
 4277TIP3    H212796   5.812   2.265   1.932  0.4499  4.4125 -2.5781
 4278TIP3   OH212797   2.030   3.827   1.580  0.2555 -0.5340  0.0020
 4278TIP3    H112798   2.113   3.848   1.536 -0.0183  0.4714 -0.0494
 4278TIP3    H212799   1.968   3.813   1.509  0.9871 -4.3310 -0.1233
 4279TIP3   OH212800   6.604   6.702   4.294  0.2997  1.0558 -0.0531
 4279TIP3    H112801   6.647   6.633   4.344 -1.2457 -0.0925 -0.2399
 4279TIP3    H212802   6.566   6.658   4.218 -0.9651  2.0355 -0.0361
 4280TIP3   OH212803   0.906   2.531   2.599 -0.0047  0.3932  0.3132
 4280TIP3    H112804   0.975   2.554   2.662 -0.3004  1.0705  0.3967
 4280TIP3    H212805   0.875   2.445   2.629 -0.0968  0.6795  1.0588
 4281TIP3   OH212806   7.185   0.175   2.377 -0.2063  0.1402  0.3202
 4281TIP3    H112807   7.113   0.150   2.319 -0.4719 -0.9631  1.0920
 4281TIP3    H212808   7.258   0.194   2.319 -0.7636  0.0762 -0.4146
 4282TIP3   OH212809   1.245   3.521   3.898  0.1147 -0.1703 -0.1493
 4282TIP3    H112810   1.193   3.461   3.845  1.2482 -1.5965  0.2746
 4282TIP3    H212811   1.279   3.586   3.835 -0.2059 -0.6454 -0.8195
 4283TIP3   OH212812   1.596   2.885   4.140  0.2659 -0.1320 -0.3033
 4283TIP3    H112813   1.656   2.954   4.112  0.3874 -0.6966 -1.4945
 4283TIP3    H212814   1.650   2.827   4.194  0.4939  0.0144 -0.3715
 4284TIP3   OH212815   6.617   2.039   1.120  0.1573 -0.5612  0.3286
 4284TIP3    H112816   6.611   2.128   1.086  2.2269 -1.3449 -2.4630
 4284TIP3    H212817   6.592   2.047   1.212 -0.6127  2.7015 -0.0320
 4285TIP3   OH212818   7.155   0.832   2.890  0.2462  0.0898 -0.2270
 4285TIP3    H112819   7.220   0.897   2.918  0.4513 -0.6523  1.0729
 4285TIP3    H212820   7.187   0.802   2.805  1.6282 -0.2468  0.3781
 4286TIP3   OH212821   4.995   3.001   4.631  0.2990  0.5816 -0.2427
 4286TIP3    H112822   4.920   3.056   4.608 -0.9623 -0.8437  0.2723
 4286TIP3    H212823   4.956   2.916   4.655  1.8344  0.5851  2.6849
 4287TIP3   OH212824   2.310   0.748   3.143 -0.4245 -0.0408  0.3010
 4287TIP3    H112825   2.373   0.706   3.084  0.3285 -0.4024  1.3375
 4287TIP3    H212826   2.227   0.705   3.124 -0.1120 -0.4099 -0.2414
 4288TIP3   OH212827   4.820   3.618   5.280 -0.1349 -0.0228 -0.2956
 4288TIP3    H112828   4.783   3.706   5.271  0.5382  0.5503  1.8589
 4288TIP3    H212829   4.748   3.559   5.256 -0.0864  1.0322 -3.4860
 4289TIP3   OH212830   6.978   5.859   3.695 -0.7738  0.5670  0.0343
 4289TIP3    H112831   6.993   5.952   3.709  1.4832  0.0395  1.5978
 4289TIP3    H212832   6.961   5.823   3.782  0.5694 -0.7859 -0.2080
 4290TIP3   OH212833   0.281   2.445   5.334  0.1859 -0.5803 -0.7245
 4290TIP3    H112834   0.263   2.354   5.358  1.4320 -0.9485 -1.1144
 4290TIP3    H212835   0.256   2.451   5.242  1.1304 -0.8350 -1.0033
 4291TIP3   OH212836   0.324   1.682   3.463  0.1668  0.0047  0.1521
 4291TIP3    H112837   0.251   1.646   3.413 -0.2070 -0.2883  0.8908
 4291TIP3    H212838   0.399   1.675   3.405 -0.1962 -0.6066 -0.2550
 4292TIP3   OH212839   0.336   0.807   3.342 -0.1647  0.0151  0.1004
 4292TIP3    H112840   0.296   0.868   3.405  1.0771  0.4632  0.4965
 4292TIP3    H212841   0.382   0.864   3.280  1.0126 -0.4905  0.4753
 4293TIP3   OH212842   4.203   6.148   1.604 -0.2364 -0.0352  0.5684
 4293TIP3    H112843   4.196   6.190   1.689  3.8983 -0.8148  1.5291
 4293TIP3    H212844   4.296   6.127   1.595 -0.9132 -2.5447 -2.9392
 4294TIP3   OH212845   6.991   0.828   0.127  0.1124 -0.3673  0.1498
 4294TIP3    H112846   6.985   0.890   0.200  1.7231 -0.4342  0.3639
 4294TIP3    H212847   7.006   0.883   0.050  1.3696 -0.4646  0.3146
 4295TIP3   OH212848   3.953   5.585   4.049  0.1734  0.1652 -0.2242
 4295TIP3    H112849   3.905   5.667   4.040  1.6372  0.8130 -3.0383
 4295TIP3    H212850   3.900   5.521   4.003 -0.1988 -0.1762  0.6478
 4296TIP3   OH212851   5.893   5.965   0.792  0.2329  0.5718  0.3816
 4296TIP3    H112852   5.923   6.056   0.797 -0.9149  0.9625  0.4874
 4296TIP3    H212853   5.901   5.943   0.699  0.8533  0.6620  0.4130
 4297TIP3   OH212854   5.659   1.436   2.779 -0.0063 -0.6576 -0.4693
 4297TIP3    H112855   5.726   1.480   2.727 -0.7034  2.1515  0.8076
 4297TIP3    H212856   5.576   1.470   2.745 -0.6504 -1.7650 -0.0626
 4298TIP3   OH212857   5.109   1.243   3.019  0.0576  0.9273 -0.7905
 4298TIP3    H112858   5.050   1.309   2.981 -1.2627  0.2994  0.0831
 4298TIP3    H212859   5.137   1.281   3.102 -0.4874  0.5165 -0.4126
 4299TIP3   OH212860   6.969   5.949   2.456  0.0466  0.3709  0.0880
 4299TIP3    H112861   7.004   5.977   2.371 -1.0308  1.5832  0.0160
 4299TIP3    H212862   7.036   5.891   2.491  0.7238  0.2094 -1.3890
 4300TIP3   OH212863   0.146   0.240   0.479  0.7103 -0.3092 -0.1307
 4300TIP3    H112864   0.174   0.328   0.457  2.6424 -0.6206  0.7813
 4300TIP3    H212865   0.094   0.250   0.559  0.7197  0.0395 -0.1693
 4301TIP3   OH212866   3.081   5.852   2.178 -0.3630 -0.1527 -0.3571
 4301TIP3    H112867   3.048   5.928   2.132  0.8365  0.6813  0.1242
 4301TIP3    H212868   3.176   5.855   2.166 -0.2159 -1.0507  0.4405
 4302TIP3   OH212869   0.385   0.342   3.279  0.8672 -0.0300  0.6480
 4302TIP3    H112870   0.473   0.374   3.301  0.6277  2.1151 -1.1730
 4302TIP3    H212871   0.334   0.421   3.265 -0.8500 -1.2445 -0.2711
 4303TIP3   OH212872   6.176   5.989   3.278 -0.3733 -0.9548 -0.1410
 4303TIP3    H112873   6.137   5.910   3.316 -1.2124 -1.7097 -2.4097
 4303TIP3    H212874   6.118   6.060   3.305  0.2572 -1.0777  1.7195
 4304TIP3   OH212875   6.384   5.718   1.640  0.2174  0.2394  0.3620
 4304TIP3    H112876   6.436   5.679   1.710  2.2057 -1.4802 -1.9174
 4304TIP3    H212877   6.308   5.660   1.631 -0.2123  0.6424  1.2161
 4305TIP3   OH212878   3.516   3.070   1.204 -0.2297 -0.3082  0.2073
 4305TIP3    H112879   3.589   3.009   1.218  0.9062  0.6450 -1.2260
 4305TIP3    H212880   3.459   3.024   1.143  1.9400  0.8932 -3.0228
 4306TIP3   OH212881   1.787   2.929   1.434  0.5737  0.3138 -0.0603
 4306TIP3    H112882   1.829   2.917   1.349 -0.3314 -2.5973 -0.2042
 4306TIP3    H212883   1.739   3.012   1.426 -1.4099 -0.9518 -3.2756
 4307TIP3   OH212884   5.289   4.153   0.561  0.1467  0.3778 -0.2489
 4307TIP3    H112885   5.281   4.059   0.578 -1.7077  0.1442 -1.9550
 4307TIP3    H212886   5.257   4.195   0.640  0.7212 -0.4317  0.4272
 4308TIP3   OH212887   2.493   4.861   1.264 -0.0120 -0.2477  0.1720
 4308TIP3    H112888   2.482   4.954   1.244 -0.7060 -0.1025  1.1288
 4308TIP3    H212889   2.490   4.818   1.179 -1.4275  0.4558 -0.1768
 4309TIP3   OH212890   2.520   0.347   4.353  0.1375 -0.1201 -0.7970
 4309TIP3    H112891   2.578   0.271   4.351  1.0143  0.5314 -0.4399
 4309TIP3    H212892   2.578   0.422   4.364 -0.8682  0.3861  2.0072
 4310TIP3   OH212893   1.172   1.173   0.264  0.2447  0.5041 -0.5815
 4310TIP3    H112894   1.086   1.133   0.279  0.9533 -0.9853 -0.3872
 4310TIP3    H212895   1.198   1.142   0.177  1.3801 -0.5643  0.1125
 4311TIP3   OH212896   3.930   0.478   5.719  0.0148  0.2437  0.0111
 4311TIP3    H112897   3.868   0.539   5.759 -1.2528 -1.2896  0.4797
 4311TIP3    H212898   3.875   0.410   5.681  1.3506 -0.0813 -1.4389
 4312TIP3   OH212899   0.437   2.766   4.776 -0.5664  0.3798 -0.1081
 4312TIP3    H112900   0.354   2.801   4.745 -0.7851  1.5772  1.7166
 4312TIP3    H212901   0.480   2.840   4.819  0.5190 -0.7415  0.8131
 4313TIP3   OH212902   5.541   1.615   4.754  0.2448 -0.1976  0.0912
 4313TIP3    H112903   5.484   1.678   4.710  0.3161  1.9272  2.7134
 4313TIP3    H212904   5.629   1.654   4.748  0.4281 -0.4215  1.0445
 4314TIP3   OH212905   4.971   1.554   1.005  0.3592  0.4254  0.0571
 4314TIP3    H112906   4.890   1.603   0.994 -0.7092 -1.1961  0.3587
 4314TIP3    H212907   5.038   1.621   1.019 -0.7124  1.8618 -1.3149
 4315TIP3   OH212908   0.741   2.644   4.895  0.2458  0.2226 -0.6584
 4315TIP3    H112909   0.679   2.571   4.899  1.1300 -0.6320 -1.8847
 4315TIP3    H212910   0.717   2.700   4.969  1.2179 -2.6718  2.0956
 4316TIP3   OH212911   0.348   6.596   4.703 -0.0120 -0.3498 -0.1133
 4316TIP3    H112912   0.442   6.604   4.724  0.2040  2.7701 -1.6173
 4316TIP3    H212913   0.304   6.611   4.786  0.8455  0.3996  0.2305
 4317TIP3   OH212914   4.815   4.340   1.373  0.4782  0.3545 -0.1173
 4317TIP3    H112915   4.809   4.431   1.343  0.6672  0.0486 -1.1276
 4317TIP3    H212916   4.802   4.288   1.294 -0.9807 -0.5350  0.6535
 4318TIP3   OH212917   3.844   0.202   5.809 -0.5678  0.2307  0.0822
 4318TIP3    H112918   3.754   0.232   5.793 -1.2883 -1.3903  0.8921
 4318TIP3    H212919   3.887   0.277   5.850 -2.0874  0.4344  1.3922
 4319TIP3   OH212920   5.363   5.452   4.188 -0.0359  0.5285 -0.5735
 4319TIP3    H112921   5.425   5.420   4.253  1.2169 -0.5475 -2.2040
 4319TIP3    H212922   5.382   5.546   4.181  0.4001  0.4853 -0.0087
 4320TIP3   OH212923   0.793   2.684   4.187 -0.7052  0.0494  0.0068
 4320TIP3    H112924   0.757   2.595   4.186 -1.4905  0.3507  0.5201
 4320TIP3    H212925   0.879   2.675   4.227  0.3224 -0.8638 -2.2079
 4321TIP3   OH212926   2.262   5.275   2.234 -0.0005 -0.3447  0.4916
 4321TIP3    H112927   2.352   5.250   2.256 -0.0086  0.6021  1.7289
 4321TIP3    H212928   2.258   5.269   2.139  0.9414 -1.7880  0.5046
 4322TIP3   OH212929   4.781   4.965   1.595 -0.2382 -0.4651 -0.1427
 4322TIP3    H112930   4.846   4.894   1.599 -0.3998 -0.5427  1.3913
 4322TIP3    H212931   4.752   4.977   1.685 -2.2069 -0.2705 -0.7490
 4323TIP3   OH212932   0.199   1.948   2.537 -0.0669 -0.1110 -0.0577
 4323TIP3    H112933   0.120   1.894   2.526 -0.9295  1.0330  0.2937
 4323TIP3    H212934   0.222   1.937   2.629 -0.1331 -0.0363 -0.0317
 4324TIP3   OH212935   0.674   6.429   4.451  0.4243  0.3543 -0.1376
 4324TIP3    H112936   0.627   6.360   4.498 -1.3106  1.3219 -0.3241
 4324TIP3    H212937   0.731   6.383   4.390 -0.9884 -0.9272 -0.5558
 4325TIP3   OH212938   2.968   0.885   1.492 -0.5980  0.2928 -0.3186
 4325TIP3    H112939   2.999   0.824   1.426  0.2204  0.7606 -0.3810
 4325TIP3    H212940   3.045   0.906   1.544 -0.5795  2.1647 -1.0084
 4326TIP3   OH212941   5.850   3.071   0.815  0.0359  0.3965  0.0586
 4326TIP3    H112942   5.908   3.046   0.887 -0.1702  0.6038  0.3026
 4326TIP3    H212943   5.852   3.167   0.816  0.5002  0.4011 -0.5990
 4327TIP3   OH212944   2.971   0.750   1.916  0.4423 -0.2064 -0.2631
 4327TIP3    H112945   2.895   0.722   1.967  0.8952 -1.4039 -0.2080
 4327TIP3    H212946   2.967   0.845   1.917 -0.4817 -0.2395  0.6116
 4328TIP3   OH212947   0.992   0.596   0.131  0.1703  0.4074 -0.5418
 4328TIP3    H112948   1.031   0.521   0.177  0.2748  1.3553  0.9604
 4328TIP3    H212949   1.064   0.657   0.118 -0.4536  1.5240  0.9210
 4329TIP3   OH212950   1.714   3.958   0.062 -0.0594  0.1979 -0.1712
 4329TIP3    H112951   1.629   3.933   0.027 -0.1330  1.3535 -0.8387
 4329TIP3    H212952   1.701   4.044   0.101  0.9995  0.8173 -1.1139
 4330TIP3   OH212953   0.168   1.724   1.294  0.0905 -0.1941 -0.6596
 4330TIP3    H112954   0.113   1.796   1.263 -1.0203  0.7397  2.9157
 4330TIP3    H212955   0.235   1.766   1.348  0.0976 -1.6992  0.5994
 4331TIP3   OH212956   0.275   2.812   5.296 -0.2871 -0.0157 -0.1061
 4331TIP3    H112957   0.190   2.788   5.332  0.5024 -1.8464  0.6257
 4331TIP3    H212958   0.268   2.907   5.281 -2.7642 -0.2530 -1.0051
 4332TIP3   OH212959   6.159   6.699   4.645  0.4753 -0.1369  0.7061
 4332TIP3    H112960   6.166   6.643   4.723 -1.7979  1.8175  2.4522
 4332TIP3    H212961   6.184   6.786   4.676 -1.1140  0.8211 -0.5655
 4333TIP3   OH212962   1.513   0.167   4.411 -0.1135 -0.0874 -0.4110
 4333TIP3    H112963   1.589   0.142   4.463 -0.0760  0.2630 -0.2935
 4333TIP3    H212964   1.528   0.126   4.326  0.2038 -0.0217 -0.3887
 4334TIP3   OH212965   0.426   5.482   5.346  0.0632  0.0245  0.0195
 4334TIP3    H112966   0.507   5.432   5.339  0.7192  1.2516 -2.3895
 4334TIP3    H212967   0.454   5.572   5.363 -0.5984  0.7301 -2.1878
 4335TIP3   OH212968   0.769   1.822   5.089  0.0757  0.5696  0.2921
 4335TIP3    H112969   0.755   1.912   5.117  1.0958  0.5334  0.9783
 4335TIP3    H212970   0.779   1.773   5.171 -1.7223 -0.3977 -0.0307
 4336TIP3   OH212971   0.895   6.259   1.676 -0.3301 -0.1951 -0.0695
 4336TIP3    H112972   0.845   6.257   1.595  1.3844  0.2588 -1.1992
 4336TIP3    H212973   0.983   6.231   1.651  0.2888  0.1177  1.5953
 4337TIP3   OH212974   6.051   1.021   0.365 -0.2163  0.4888 -0.5691
 4337TIP3    H112975   5.985   1.021   0.435  1.2684 -2.5435  1.0266
 4337TIP3    H212976   6.133   1.043   0.410  0.6764 -0.9588 -1.4142
 4338TIP3   OH212977   3.687   3.113   3.507  0.0395  0.0306 -0.5008
 4338TIP3    H112978   3.734   3.157   3.436  0.6829 -0.5044 -0.4204
 4338TIP3    H212979   3.709   3.021   3.496 -1.0396 -0.2448 -0.4797
 4339TIP3   OH212980   6.428   4.759   1.377  0.0293  0.3975 -0.4111
 4339TIP3    H112981   6.340   4.787   1.403 -0.2915  0.6023 -1.6274
 4339TIP3    H212982   6.425   4.760   1.281  0.2123 -3.1468 -0.5761
 4340TIP3   OH212983   1.017   0.614   1.424 -0.1707 -0.2128  0.3047
 4340TIP3    H112984   1.108   0.623   1.398 -0.4184  0.3841 -0.3534
 4340TIP3    H212985   0.990   0.529   1.388 -0.9759  1.2540 -2.8940
 4341TIP3   OH212986   5.367   5.230   4.720 -0.2522 -0.4167 -0.7082
 4341TIP3    H112987   5.433   5.162   4.735  0.5844  0.5395  0.0784
 4341TIP3    H212988   5.322   5.239   4.804  0.8148  1.1969 -0.2758
 4342TIP3   OH212989   7.163   1.129   2.341  0.3782  0.1399  0.3961
 4342TIP3    H112990   7.199   1.097   2.258  0.0130 -0.1114  0.3275
 4342TIP3    H212991   7.236   1.172   2.385  0.1733  1.8486 -0.8388
 4343TIP3   OH212992   1.172   4.611   4.778 -0.1670  0.4359  0.1192
 4343TIP3    H112993   1.220   4.568   4.707 -1.3273 -0.1539 -0.3312
 4343TIP3    H212994   1.210   4.698   4.783  0.6759  0.1206 -0.4904
 4344TIP3   OH212995   1.317   2.942   2.811 -0.2379  0.7774 -0.6846
 4344TIP3    H112996   1.376   2.873   2.783  0.8732  1.9754 -1.4111
 4344TIP3    H212997   1.249   2.945   2.743 -1.4770 -0.9232  0.3976
 4345TIP3   OH212998   6.589   3.537   4.866  0.0473 -0.3970 -0.1419
 4345TIP3    H112999   6.677   3.540   4.827 -0.0188  1.6125 -0.2660
 4345TIP3    H213000   6.534   3.498   4.799  0.4631  0.3747 -0.9589
 4346TIP3   OH213001   1.078   5.609   2.620 -0.6463 -0.7429 -0.3512
 4346TIP3    H113002   1.156   5.554   2.628 -0.8672 -1.2842 -1.6820
 4346TIP3    H213003   1.033   5.576   2.542 -0.5633  1.5911 -1.4893
 4347TIP3   OH213004   0.275   6.187   2.936  0.2651  0.3058 -0.8383
 4347TIP3    H113005   0.366   6.218   2.937  0.8287 -1.1964 -1.9825
 4347TIP3    H213006   0.245   6.199   3.026  1.6182  0.7881 -0.4250
 4348TIP3   OH213007   6.013   2.053   2.311  0.4562 -0.0959 -0.3155
 4348TIP3    H113008   5.929   2.078   2.351 -0.1949 -0.4593 -1.3909
 4348TIP3    H213009   6.034   1.969   2.351  0.7444  0.4004  0.5830
 4349TIP3   OH213010   4.615   5.819   5.601 -0.7404  0.5230 -0.0953
 4349TIP3    H113011   4.568   5.902   5.601  0.6236  1.3286  0.2079
 4349TIP3    H213012   4.668   5.822   5.521  0.0278  0.3767  0.3997
 4350TIP3   OH213013   3.293   4.772   4.136  0.0970  0.2850  0.1874
 4350TIP3    H113014   3.264   4.844   4.079 -0.1750 -0.4059 -0.5617
 4350TIP3    H213015   3.388   4.770   4.126 -0.0726 -0.9674 -1.6743
 4351TIP3   OH213016   6.679   4.443   4.833 -0.3021  0.4571 -0.2558
 4351TIP3    H113017   6.718   4.371   4.882 -1.5039 -0.4782 -0.6347
 4351TIP3    H213018   6.593   4.411   4.806 -0.1361  1.3391 -2.0356
 4352TIP3   OH213019   2.947   5.301   0.753  0.1866 -0.4271 -0.3883
 4352TIP3    H113020   2.864   5.253   0.746 -0.7368  1.2697 -2.6198
 4352TIP3    H213021   2.997   5.272   0.676  0.6247  0.3570 -0.4020
 4353TIP3   OH213022   1.899   1.161   4.456 -0.0970  0.1561 -0.0356
 4353TIP3    H113023   1.912   1.166   4.551  0.3449 -1.8013  0.0549
 4353TIP3    H213024   1.905   1.067   4.436 -1.6989  0.3690 -1.7914
 4354TIP3   OH213025   1.964   4.462   3.756  0.2632  0.0435  0.4768
 4354TIP3    H113026   1.869   4.462   3.771  0.3474 -0.8594  1.1097
 4354TIP3    H213027   1.984   4.372   3.733  1.0945  0.0175  1.2526
 4355TIP3   OH213028   7.183   3.392   5.571  0.5230  0.4149 -0.1251
 4355TIP3    H113029   7.123   3.445   5.624 -0.3258 -0.6024 -0.0349
 4355TIP3    H213030   7.254   3.452   5.549 -0.2699  1.5199  0.1990
 4356TIP3   OH213031   4.246   1.168   5.819 -0.0034 -0.0752  0.1533
 4356TIP3    H113032   4.219   1.087   5.862 -2.2415  1.0268  0.9935
 4356TIP3    H213033   4.193   1.237   5.861  0.3440  1.5472 -1.8858
 4357TIP3   OH213034   6.859   0.353   1.989  0.1247 -0.3761 -0.2597
 4357TIP3    H113035   6.827   0.263   1.998 -0.1277 -0.1744  1.0387
 4357TIP3    H213036   6.952   0.348   2.012  0.4638 -0.5478 -1.6358
 4358TIP3   OH213037   7.080   4.528   4.216 -0.1403  0.2130  0.0456
 4358TIP3    H113038   7.175   4.518   4.228 -0.2767 -1.1938  0.1425
 4358TIP3    H213039   7.069   4.534   4.121  0.1219  1.4803  0.0794
 4359TIP3   OH213040   1.748   1.598   0.446 -0.0509 -0.4835  0.3071
 4359TIP3    H113041   1.821   1.537   0.448  0.1718 -0.4521 -2.7606
 4359TIP3    H213042   1.787   1.683   0.425 -0.7917 -0.1290  0.3132
 4360TIP3   OH213043   3.461   2.099   1.586 -0.0268 -0.4339  0.4552
 4360TIP3    H113044   3.502   2.076   1.669 -1.5943  0.0494  1.4061
 4360TIP3    H213045   3.367   2.089   1.602 -0.4563  1.3303 -0.7324
 4361TIP3   OH213046   4.044   5.602   4.936  0.3122  1.0089 -0.3881
 4361TIP3    H113047   3.965   5.638   4.896 -0.3827  0.6650  0.6424
 4361TIP3    H213048   4.105   5.675   4.938 -0.9238  2.0764  1.2878
 4362TIP3   OH213049   5.131   5.259   0.806  0.7095 -0.0566 -0.5248
 4362TIP3    H113050   5.198   5.231   0.869  0.5151 -0.1173 -0.3460
 4362TIP3    H213051   5.137   5.355   0.807  1.9669 -0.0831 -1.7709
 4363TIP3   OH213052   3.159   0.959   5.645 -0.0200 -0.2490 -0.3078
 4363TIP3    H113053   3.115   1.034   5.685  0.7524 -0.5736  1.2250
 4363TIP3    H213054   3.226   0.998   5.589 -0.3539  0.2054 -0.3996
 4364TIP3   OH213055   3.233   1.402   3.699  0.1006 -0.2768  0.3779
 4364TIP3    H113056   3.216   1.461   3.626 -2.8677 -1.1561  0.2609
 4364TIP3    H213057   3.250   1.461   3.773 -1.4450  0.7266 -0.0255
 4365TIP3   OH213058   0.552   4.506   4.009 -0.2991  0.0847 -0.0446
 4365TIP3    H113059   0.602   4.465   4.079  0.4340 -0.7147 -0.9967
 4365TIP3    H213060   0.474   4.541   4.051  0.6986  0.6847  1.3610
 4366TIP3   OH213061   6.115   2.293   2.102 -0.2163  0.1400  0.0487
 4366TIP3    H113062   6.050   2.254   2.045  1.3778 -0.5966 -1.3323
 4366TIP3    H213063   6.097   2.387   2.098 -1.3869 -0.0661  0.0009
 4367TIP3   OH213064   1.124   5.090   1.371  0.0542  0.4609 -0.3674
 4367TIP3    H113065   1.121   5.002   1.334 -0.5162  0.2719  0.1229
 4367TIP3    H213066   1.053   5.137   1.327 -2.5545 -0.5592  2.4388
 4368TIP3   OH213067   4.783   5.596   4.460 -0.3410  0.1762  0.8163
 4368TIP3    H113068   4.697   5.611   4.420  0.4700  1.3106 -0.5862
 4368TIP3    H213069   4.831   5.677   4.444  2.4405 -1.8465 -2.2269
 4369TIP3   OH213070   0.622   0.875   2.179 -0.3788 -0.0029  0.6297
 4369TIP3    H113071   0.528   0.873   2.192 -0.6782 -0.6193 -1.2446
 4369TIP3    H213072   0.637   0.952   2.124  0.4993  1.2599  2.5478
 4370TIP3   OH213073   1.383   1.044   4.832 -0.9176  0.3561 -0.3337
 4370TIP3    H113074   1.397   1.078   4.920  0.4941 -0.1029 -0.3526
 4370TIP3    H213075   1.298   1.078   4.806 -1.7258 -0.1287  1.5039
 4371TIP3   OH213076   2.824   2.138   0.806  0.0419 -0.1228 -0.1978
 4371TIP3    H113077   2.796   2.063   0.859 -2.7250  0.9855  0.1019
 4371TIP3    H213078   2.826   2.211   0.867 -1.4591  0.8254 -1.2068
 4372TIP3   OH213079   6.047   1.329   5.352  0.3673 -0.7266  0.6040
 4372TIP3    H113080   5.965   1.351   5.396 -0.6536  0.5989 -1.7778
 4372TIP3    H213081   6.085   1.259   5.405 -0.4615  1.0986  3.8476
 4373TIP3   OH213082   4.016   6.014   0.216 -0.1719 -0.2186 -0.1610
 4373TIP3    H113083   4.062   5.983   0.138 -1.2767  1.9221 -1.7482
 4373TIP3    H213084   4.087   6.040   0.276  0.7004 -0.0750 -1.2212
 4374TIP3   OH213085   2.101   6.790   5.793  0.6987 -0.1001 -0.0567
 4374TIP3    H113086   2.174   6.730   5.783  0.3966 -0.1602 -2.4883
 4374TIP3    H213087   2.060   6.793   5.707 -3.3789 -1.5804  1.5878
 4375TIP3   OH213088   3.189   0.334   5.182 -0.0216  0.5930  0.1862
 4375TIP3    H113089   3.112   0.341   5.238 -1.0085 -1.2536 -0.8217
 4375TIP3    H213090   3.250   0.279   5.232  0.1166  0.9905  0.4563
 4376TIP3   OH213091   5.143   4.183   4.083  0.1051 -0.4454 -0.3051
 4376TIP3    H113092   5.156   4.134   4.164 -0.7412 -0.2950 -0.0675
 4376TIP3    H213093   5.185   4.268   4.099 -0.2361 -0.3432  0.0480
 4377TIP3   OH213094   2.028   4.089   2.481  0.8564  0.1326  0.1139
 4377TIP3    H113095   2.119   4.078   2.509  0.6715 -1.3476  0.1772
 4377TIP3    H213096   2.032   4.086   2.385  1.0447  1.6531  0.0465
 4378TIP3   OH213097   6.169   0.432   2.365 -0.4023  0.3742 -0.3034
 4378TIP3    H113098   6.134   0.468   2.446  0.3923 -0.0381  0.2409
 4378TIP3    H213099   6.227   0.501   2.331 -0.7988  0.5789 -0.5638
 4379TIP3   OH213100   2.524   5.017   5.083 -0.7758 -0.5463  0.0215
 4379TIP3    H113101   2.476   5.099   5.089  0.5967  0.3115 -0.2377
 4379TIP3    H213102   2.558   5.016   4.994  2.6497  0.6864  1.1411
 4380TIP3   OH213103   5.976   4.822   5.567  0.2087 -0.4041 -0.0611
 4380TIP3    H113104   5.963   4.727   5.560  0.6333 -0.3684 -1.7804
 4380TIP3    H213105   6.070   4.834   5.560  0.0559  0.2217 -1.5194
 4381TIP3   OH213106   5.304   1.532   4.450  0.1668  0.6666  0.7029
 4381TIP3    H113107   5.232   1.520   4.388  0.2117 -2.3154  1.0939
 4381TIP3    H213108   5.264   1.518   4.536  0.8985  0.7069  1.0531
 4382TIP3   OH213109   1.555   2.887   1.132 -0.2004  0.5174 -0.3616
 4382TIP3    H113110   1.631   2.833   1.109 -1.4926 -1.6305  0.1017
 4382TIP3    H213111   1.528   2.927   1.049  0.8001  0.4881 -0.7161
 4383TIP3   OH213112   4.092   6.405   1.276 -0.4739 -0.0744 -0.5982
 4383TIP3    H113113   4.035   6.335   1.308 -0.3190 -0.3839 -0.9818
 4383TIP3    H213114   4.174   6.360   1.255  0.0374  0.4198  0.2733
 4384TIP3   OH213115   0.516   3.778   1.889  0.0151 -0.3733  0.2291
 4384TIP3    H113116   0.560   3.714   1.832  0.6194 -1.0434  1.3935
 4384TIP3    H213117   0.428   3.786   1.853  0.7726  0.2701 -1.6019
 4385TIP3   OH213118   0.744   4.539   0.373  0.2161  0.1526 -0.0402
 4385TIP3    H113119   0.682   4.575   0.309 -0.4430 -0.3001  0.3328
 4385TIP3    H213120   0.796   4.477   0.323  0.6908  0.8757 -0.4612
 4386TIP3   OH213121   3.891   6.796   1.350  0.6495  0.5767  0.3343
 4386TIP3    H113122   3.983   6.772   1.343  0.3705 -0.3272 -0.4315
 4386TIP3    H213123   3.861   6.755   1.431 -0.1688 -3.0288 -1.6188
 4387TIP3   OH213124   0.764   2.954   5.433  0.0290 -0.5414  0.1178
 4387TIP3    H113125   0.717   3.025   5.477  0.0530 -0.0286 -0.6523
 4387TIP3    H213126   0.701   2.883   5.427  0.5630 -1.3086  2.5642
 4388TIP3   OH213127   3.530   3.624   1.823 -0.2100 -0.2287  0.0939
 4388TIP3    H113128   3.513   3.670   1.740 -1.4851 -0.6123  0.1213
 4388TIP3    H213129   3.547   3.533   1.797 -0.8148 -0.3924  0.2673
 4389TIP3   OH213130   0.814   0.007   1.556  0.1965 -0.5282 -0.1076
 4389TIP3    H113131   0.841   0.060   1.482 -0.2543 -1.7172 -1.1709
 4389TIP3    H213132   0.895  -0.012   1.604  0.1715  2.6580  1.4608
 4390TIP3   OH213133   3.289   2.846   2.005  0.1926 -0.0842  0.2722
 4390TIP3    H113134   3.248   2.765   1.975 -1.2166  0.5761  0.3588
 4390TIP3    H213135   3.252   2.861   2.092 -0.3815  1.1998 -0.1730
 4391TIP3   OH213136   2.374   0.876   1.391  0.4612  0.3501  0.0669
 4391TIP3    H113137   2.375   0.849   1.483 -0.4272  0.0041 -0.0224
 4391TIP3    H213138   2.330   0.961   1.392  1.0603  0.6747  0.0313
 4392TIP3   OH213139   6.031   3.652   2.753  0.3330  0.3777  0.0385
 4392TIP3    H113140   5.983   3.711   2.695 -1.3597 -1.1248 -0.1870
 4392TIP3    H213141   6.101   3.616   2.698 -0.1284  0.3573 -0.5490
 4393TIP3   OH213142   5.961   0.112   4.293 -0.0106  0.4844  0.1679
 4393TIP3    H113143   5.867   0.112   4.274 -0.6280 -1.4493  2.6927
 4393TIP3    H213144   5.976   0.194   4.340 -1.1593 -0.5200  2.4374
 4394TIP3   OH213145   4.060   2.407   4.107  0.5047  0.7466  0.3022
 4394TIP3    H113146   4.020   2.327   4.073 -0.7288  1.0404  0.9743
 4394TIP3    H213147   4.079   2.460   4.030 -0.6020  0.6633 -0.0471
 4395TIP3   OH213148   2.625   2.541   5.433  0.0733 -0.0355 -0.8776
 4395TIP3    H113149   2.585   2.612   5.482 -1.9346 -2.0023  0.5417
 4395TIP3    H213150   2.649   2.580   5.349  1.7273  2.9384  0.8442
 4396TIP3   OH213151   4.010   6.536   1.036 -0.1321  0.0835  0.6260
 4396TIP3    H113152   4.003   6.469   1.103  0.0562  1.0077  1.6070
 4396TIP3    H213153   3.923   6.541   0.997 -0.7234  0.6804  1.9575
 4397TIP3   OH213154   3.457   4.381   2.636 -0.3771  0.3884 -0.0369
 4397TIP3    H113155   3.363   4.376   2.619 -0.3581  1.8473 -0.6748
 4397TIP3    H213156   3.464   4.408   2.727 -0.5295 -1.0741  0.4462
 4398TIP3   OH213157   2.460   1.895   0.512 -0.4006 -0.0638 -0.4449
 4398TIP3    H113158   2.388   1.883   0.574 -0.0872  1.9119  0.3852
 4398TIP3    H213159   2.538   1.870   0.561 -0.2747  0.3024 -0.4558
 4399TIP3   OH213160   2.786   4.452   0.609  0.2357  0.4025 -0.0028
 4399TIP3    H113161   2.735   4.426   0.686 -0.5964  1.9479  0.0053
 4399TIP3    H213162   2.744   4.407   0.536  0.5092 -0.4036  0.3281
 4400TIP3   OH213163   4.048   1.509   2.234 -0.2189 -0.2819  0.6066
 4400TIP3    H113164   4.084   1.597   2.225 -1.7312  0.3005 -0.0297
 4400TIP3    H213165   3.958   1.522   2.262 -1.2458 -1.4764 -1.7862
 4401TIP3   OH213166   1.422   5.299   4.519  0.1164 -0.6143  0.3788
 4401TIP3    H113167   1.492   5.311   4.584 -0.2753  2.0409  0.4306
 4401TIP3    H213168   1.352   5.357   4.549 -1.0685 -1.2593 -1.0691
 4402TIP3   OH213169   4.495   3.773   4.668  0.2457 -0.7613 -0.5055
 4402TIP3    H113170   4.573   3.792   4.616  0.6119 -1.3046 -0.1630
 4402TIP3    H213171   4.520   3.699   4.723  0.0628  0.1666  0.8811
 4403TIP3   OH213172   7.007   3.102   1.040  0.5713  0.0031  0.6315
 4403TIP3    H113173   7.023   3.027   0.982 -1.1334  1.8025 -2.4243
 4403TIP3    H213174   7.042   3.177   0.993 -2.6499  1.8427  0.8800
 4404TIP3   OH213175   1.582   3.304   4.455  0.1191 -0.5682  0.6756
 4404TIP3    H113176   1.591   3.361   4.531  0.6433 -0.3230  0.4285
 4404TIP3    H213177   1.507   3.340   4.407 -0.1456 -0.6605  1.0185
 4405TIP3   OH213178   3.780   6.585   5.414 -0.5493  0.2098 -0.6288
 4405TIP3    H113179   3.738   6.601   5.498  0.0254 -2.1157  0.1503
 4405TIP3    H213180   3.731   6.513   5.375  1.1028 -0.8359 -0.8506
 4406TIP3   OH213181   4.588   3.662   5.046  0.1334  0.2288 -0.4465
 4406TIP3    H113182   4.520   3.682   4.982  0.2709  0.6077 -0.4764
 4406TIP3    H213183   4.556   3.702   5.127 -0.4407 -0.9540 -0.0637
 4407TIP3   OH213184   1.082   3.129   2.652  0.5206  0.1899 -0.3457
 4407TIP3    H113185   1.123   3.095   2.572  0.1578 -0.7729 -0.1474
 4407TIP3    H213186   1.100   3.222   2.651 -0.5055  0.4336 -2.1956
 4408TIP3   OH213187   5.053   1.848   5.554 -0.8647  0.4295 -0.3570
 4408TIP3    H113188   4.971   1.800   5.543 -0.7074 -1.0141  3.2357
 4408TIP3    H213189   5.099   1.801   5.624  0.7817  3.9769  1.2180
 4409TIP3   OH213190   1.336   5.491   4.136  0.2574 -0.0408  0.0980
 4409TIP3    H113191   1.382   5.485   4.220  0.0289 -1.9190  0.1307
 4409TIP3    H213192   1.400   5.529   4.077  1.3587 -1.1572  0.5193
 4410TIP3   OH213193   5.735   5.291   1.777  0.3609  0.8686 -0.4885
 4410TIP3    H113194   5.755   5.385   1.773  3.2243  0.4284  0.8587
 4410TIP3    H213195   5.801   5.251   1.720  0.0390 -0.4203  0.0154
 4411TIP3   OH213196   2.523   0.586   4.941  0.5725 -0.2336  0.1350
 4411TIP3    H113197   2.579   0.555   5.012  0.1233  0.1166  0.6510
 4411TIP3    H213198   2.496   0.673   4.968  1.1444  0.2840 -0.9092
 4412TIP3   OH213199   4.702   5.004   5.023  0.1416 -0.1503 -0.3936
 4412TIP3    H113200   4.700   5.097   5.000  1.3619  0.1244  0.5096
 4412TIP3    H213201   4.688   5.001   5.117 -1.6524 -1.0388 -0.6515
 4413TIP3   OH213202   1.762   2.114   5.658  0.2747  0.2537 -0.3830
 4413TIP3    H113203   1.673   2.087   5.681  1.0875 -1.3020  1.1049
 4413TIP3    H213204   1.762   2.114   5.562 -0.5873 -2.4946 -0.4645
 4414TIP3   OH213205   1.207   0.305   1.710  0.0493  0.0690  0.1639
 4414TIP3    H113206   1.191   0.393   1.676 -0.2015  0.6749  1.7327
 4414TIP3    H213207   1.281   0.316   1.770  0.1170 -0.8233  0.2588
 4415TIP3   OH213208   4.687   6.611   3.436 -0.8250  0.6841  0.0733
 4415TIP3    H113209   4.602   6.626   3.395 -0.3536  1.5798 -0.6100
 4415TIP3    H213210   4.751   6.640   3.371  0.0816 -1.3579 -0.0304
 4416TIP3   OH213211   1.478   1.510   3.934  0.3993  0.1425 -0.0380
 4416TIP3    H113212   1.571   1.532   3.932  0.7865 -1.2860  0.9726
 4416TIP3    H213213   1.465   1.452   3.860  0.4116  0.0009  0.0699
 4417TIP3   OH213214   4.633   0.472   2.256  0.3868  0.4697  0.7968
 4417TIP3    H113215   4.644   0.433   2.169  3.3618  0.2645  1.1497
 4417TIP3    H213216   4.613   0.397   2.313 -1.9891  0.6599  0.2968
 4418TIP3   OH213217   3.427   5.363   2.375  0.4098 -0.5036  0.1247
 4418TIP3    H113218   3.350   5.341   2.427  0.4345 -0.3180  0.2406
 4418TIP3    H213219   3.451   5.281   2.332 -1.3732 -0.0502 -1.9246
 4419TIP3   OH213220   3.396   5.132   2.024  0.0599 -0.1004  0.3473
 4419TIP3    H113221   3.434   5.113   1.938 -0.8567  0.2772 -0.1563
 4419TIP3    H213222   3.471   5.132   2.084  0.6277 -0.9896 -0.3404
 4420TIP3   OH213223   4.757   3.461   4.986 -0.2218  0.5482  0.1398
 4420TIP3    H113224   4.705   3.539   5.007 -0.2396  0.6917 -0.4387
 4420TIP3    H213225   4.704   3.412   4.923  0.2825  0.6325 -0.3542
 4421TIP3   OH213226   2.378   4.323   4.795 -0.0868 -0.3580 -0.3505
 4421TIP3    H113227   2.428   4.380   4.853 -0.3769 -0.5847  0.1273
 4421TIP3    H213228   2.443   4.264   4.756  0.1252 -0.1131 -0.3664
 4422TIP3   OH213229   6.217   0.343   2.838  0.8458 -0.5307 -0.5949
 4422TIP3    H113230   6.212   0.265   2.783  0.9026 -0.3971 -0.7923
 4422TIP3    H213231   6.213   0.310   2.927 -1.9615 -0.5824 -0.6507
 4423TIP3   OH213232   2.292   2.715   3.631  0.3473  0.0258 -0.1765
 4423TIP3    H113233   2.288   2.755   3.545 -1.7102 -2.4507 -1.3614
 4423TIP3    H213234   2.208   2.735   3.672 -0.4032 -2.1982 -0.4783
 4424TIP3   OH213235   2.879   2.576   5.787 -0.9698 -0.4640 -0.5200
 4424TIP3    H113236   2.856   2.485   5.770 -0.6128 -0.6825  0.1207
 4424TIP3    H213237   2.859   2.622   5.705  1.3960 -1.6016 -1.8400
 4425TIP3   OH213238   1.973   3.995   3.924 -0.4371 -0.7285  0.0310
 4425TIP3    H113239   2.032   4.054   3.877 -0.2743  1.4660  2.7345
 4425TIP3    H213240   2.026   3.918   3.943  1.0658  0.4160  0.7612
 4426TIP3   OH213241   6.526   6.255   3.861 -0.2792 -0.5456  0.6770
 4426TIP3    H113242   6.531   6.295   3.774 -1.2661  0.8010  1.2182
 4426TIP3    H213243   6.580   6.176   3.853  1.1338  0.4929 -0.6270
 4427TIP3   OH213244   0.576   1.871   3.971  0.0768 -0.0322  1.4684
 4427TIP3    H113245   0.660   1.913   3.952 -0.3426  0.8382  1.4549
 4427TIP3    H213246   0.511   1.930   3.932 -0.4540 -2.1515 -1.0809
 4428TIP3   OH213247   4.660   5.415   0.603 -0.2188  0.2686 -0.1033
 4428TIP3    H113248   4.572   5.408   0.567  0.5147 -1.0100 -1.7430
 4428TIP3    H213249   4.655   5.370   0.687 -1.1308  0.2985 -0.1332
 4429TIP3   OH213250   1.511   4.792   1.221  0.2326  0.4199 -0.0004
 4429TIP3    H113251   1.562   4.755   1.293  1.8334  0.2937 -1.1495
 4429TIP3    H213252   1.551   4.756   1.142 -0.2161  2.0788 -1.0441
 4430TIP3   OH213253   0.804   5.457   4.209 -0.5300 -0.4290 -0.2632
 4430TIP3    H113254   0.772   5.494   4.292 -2.5650 -4.0815  0.8470
 4430TIP3    H213255   0.734   5.473   4.147  0.8588  2.0206 -1.3042
 4431TIP3   OH213256   3.297   4.940   2.190  0.3160 -0.2524 -0.2948
 4431TIP3    H113257   3.285   5.026   2.150 -0.3571  0.1527  0.7461
 4431TIP3    H213258   3.244   4.880   2.136 -2.5362  0.6692  1.2585
 4432TIP3   OH213259   4.515   6.369   1.960 -0.3249 -0.3004 -0.9003
 4432TIP3    H113260   4.440   6.339   2.011  0.0343 -1.6099 -1.1267
 4432TIP3    H213261   4.591   6.353   2.016 -0.2671  2.3600 -0.0591
 4433TIP3   OH213262   5.529   4.513   3.722  0.0113 -0.1483 -0.3989
 4433TIP3    H113263   5.621   4.486   3.731  0.5619  1.6462 -0.3277
 4433TIP3    H213264   5.481   4.431   3.720  1.6385 -1.1505 -0.6759
 4434TIP3   OH213265   4.565   3.691   3.924 -0.2034 -0.0758  0.0203
 4434TIP3    H113266   4.498   3.679   3.856 -2.0227 -0.9835  1.8749
 4434TIP3    H213267   4.556   3.614   3.980  1.1679  0.6996  1.3633
 4435TIP3   OH213268   4.635   3.163   1.312  0.5492 -0.0324 -0.2403
 4435TIP3    H113269   4.665   3.097   1.250  0.2030  0.1454 -0.5975
 4435TIP3    H213270   4.565   3.119   1.362  0.6132 -0.0744 -0.1877
 4436TIP3   OH213271   4.036   6.566   2.936 -0.2687 -0.1141  0.4053
 4436TIP3    H113272   4.124   6.595   2.911 -0.9299  1.0126 -0.7810
 4436TIP3    H213273   3.980   6.595   2.863 -2.0960  1.9471  2.4812
 4437TIP3   OH213274   6.257   5.910   2.260 -0.5205 -0.2429  0.8556
 4437TIP3    H113275   6.312   5.879   2.331 -1.3440  1.7778  2.4620
 4437TIP3    H213276   6.170   5.872   2.278 -1.0540  1.3229  1.7356
 4438TIP3   OH213277   5.905   3.622   2.316 -0.4830  0.2058 -0.7139
 4438TIP3    H113278   5.841   3.600   2.249 -1.2422  2.3888 -0.7846
 4438TIP3    H213279   5.884   3.565   2.389 -0.3477 -1.4402 -1.9080
 4439TIP3   OH213280   4.113   5.481   1.982  0.0247  0.1348 -0.0253
 4439TIP3    H113281   4.191   5.452   1.935  0.3057 -0.2825  0.6753
 4439TIP3    H213282   4.040   5.461   1.922  0.2332 -1.7610  0.2651
 4440TIP3   OH213283   5.488   3.945   0.113  0.3029 -0.1491 -0.1185
 4440TIP3    H113284   5.575   3.984   0.107  0.8807 -1.4409 -0.4089
 4440TIP3    H213285   5.504   3.854   0.138 -0.8028 -1.0528 -2.4279
 4441TIP3   OH213286   1.602   1.248   3.484 -0.0977  0.4468  0.1471
 4441TIP3    H113287   1.622   1.185   3.415  0.5214  1.3410 -0.5149
 4441TIP3    H213288   1.555   1.318   3.440 -0.5032  0.6014  0.8113
 4442TIP3   OH213289   2.394   6.162   3.082 -0.1183 -0.1711 -0.9796
 4442TIP3    H113290   2.396   6.095   3.150 -0.1480  0.2937 -0.5096
 4442TIP3    H213291   2.312   6.148   3.036 -0.2075 -0.3453 -0.7684
 4443TIP3   OH213292   0.670   4.251   3.439  0.0934 -0.0163  0.0223
 4443TIP3    H113293   0.616   4.182   3.401  0.4827 -1.1833  1.5325
 4443TIP3    H213294   0.626   4.332   3.413 -1.7470 -0.8940  0.2625
 4444TIP3   OH213295   7.118   3.259   5.881  0.3136 -0.0808 -0.0080
 4444TIP3    H113296   7.056   3.305   5.825 -1.7974 -0.6759  1.7169
 4444TIP3    H213297   7.106   3.167   5.860  0.7222 -0.1961  0.2426
 4445TIP3   OH213298   7.096   5.859   1.501  0.0147 -0.6512  0.1676
 4445TIP3    H113299   7.057   5.776   1.529 -0.7770 -0.0189  0.9828
 4445TIP3    H213300   7.069   5.868   1.409  1.6076 -2.1409 -0.5058
 4446TIP3   OH213301   3.524   0.503   0.960  0.4647 -0.1655  0.6082
 4446TIP3    H113302   3.472   0.424   0.969  1.2082 -1.2018 -2.6240
 4446TIP3    H213303   3.466   0.565   0.917  0.9695 -0.3114 -0.3168
 4447TIP3   OH213304   2.431   2.169   4.292 -0.2134 -0.2522  0.1068
 4447TIP3    H113305   2.433   2.139   4.383  0.0505 -0.5697  0.0004
 4447TIP3    H213306   2.468   2.257   4.295 -1.5293  0.3051  0.5056
 4448TIP3   OH213307   3.141   0.972   0.479 -0.0044 -0.5896  0.5054
 4448TIP3    H113308   3.090   0.969   0.399 -1.3353  0.2910  1.2766
 4448TIP3    H213309   3.189   1.055   0.473  0.4077 -0.8392  0.3271
 4449TIP3   OH213310   5.053   6.611   4.665 -0.6031 -0.2880  0.9809
 4449TIP3    H113311   4.997   6.666   4.720 -0.4714 -0.3557  1.1823
 4449TIP3    H213312   5.012   6.614   4.579 -0.4437  0.3418  0.9267
 4450TIP3   OH213313   5.540   0.450   4.286 -0.0354  0.3993 -0.0209
 4450TIP3    H113314   5.530   0.369   4.336  1.9455 -0.3413 -0.6954
 4450TIP3    H213315   5.622   0.487   4.317  1.4875 -0.2877 -2.8347
 4451TIP3   OH213316   5.770   2.754   4.108  0.7704 -1.0726  0.1611
 4451TIP3    H113317   5.783   2.738   4.015 -2.3088 -0.2423 -0.5461
 4451TIP3    H213318   5.813   2.681   4.152  0.3964 -2.7030 -2.0310
 4452TIP3   OH213319   3.815   0.493   0.707  0.0419 -0.1948  0.0147
 4452TIP3    H113320   3.758   0.420   0.730  0.3249 -0.6368 -0.6602
 4452TIP3    H213321   3.758   0.553   0.658  0.1250 -0.5965 -0.5872
 4453TIP3   OH213322   6.422   4.607   5.400 -0.3279  0.4465 -0.2229
 4453TIP3    H113323   6.477   4.554   5.342  0.3445  0.3700  0.4717
 4453TIP3    H213324   6.333   4.579   5.381  0.0862 -2.2031  1.3150
 4454TIP3   OH213325   3.881   3.088   0.191 -0.0918  0.4655 -0.3965
 4454TIP3    H113326   3.838   3.002   0.190 -1.6514  1.2060 -0.0067
 4454TIP3    H213327   3.911   3.101   0.101  0.6908 -0.7222 -0.3356
 4455TIP3   OH213328   2.197   0.654   3.469 -0.3873  0.5300 -0.2930
 4455TIP3    H113329   2.155   0.608   3.396  0.7200  0.2920 -0.8009
 4455TIP3    H213330   2.135   0.722   3.493 -1.6822 -0.6801 -0.0827
 4456TIP3   OH213331   0.445   3.359   1.714  0.6858  0.4242  0.4729
 4456TIP3    H113332   0.430   3.337   1.806  0.0323  1.6838  0.6890
 4456TIP3    H213333   0.375   3.421   1.692 -0.1684 -1.0798 -1.3439
 4457TIP3   OH213334   4.875   3.874   0.499 -0.2321 -0.1847 -0.0307
 4457TIP3    H113335   4.915   3.877   0.411  3.7787  1.8556  1.6088
 4457TIP3    H213336   4.896   3.787   0.531 -1.4442 -0.8296 -0.8913
 4458TIP3   OH213337   2.753   5.395   1.608 -0.5765 -0.2600  0.0254
 4458TIP3    H113338   2.767   5.382   1.702 -1.8786 -0.1092  0.2628
 4458TIP3    H213339   2.701   5.475   1.602 -0.8716 -0.4983 -0.7934
 4459TIP3   OH213340   2.898   1.910   3.332  0.7977  0.3869 -0.1801
 4459TIP3    H113341   2.932   1.844   3.273  2.0054 -0.3289  1.2599
 4459TIP3    H213342   2.877   1.862   3.412 -0.4522  1.3893  0.1260
 4460TIP3   OH213343   0.339   5.400   5.073 -0.0241  0.2246 -0.5064
 4460TIP3    H113344   0.287   5.456   5.015  0.0208 -0.4922 -1.2569
 4460TIP3    H213345   0.392   5.461   5.123 -2.0425  1.0405  0.7811
 4461TIP3   OH213346   3.848   4.564   2.274 -0.3497 -0.0851  0.5140
 4461TIP3    H113347   3.780   4.625   2.245 -0.9524 -0.7437  0.5045
 4461TIP3    H213348   3.861   4.586   2.367 -0.2530  0.3307  0.4056
 4462TIP3   OH213349   5.593   1.646   0.817 -0.2840  0.3547 -0.0761
 4462TIP3    H113350   5.517   1.617   0.868  0.0866 -0.4005  0.0616
 4462TIP3    H213351   5.631   1.718   0.869 -1.1458  1.0397 -0.3661
 4463TIP3   OH213352   3.267   4.631   0.627 -0.2972 -0.1759 -0.4102
 4463TIP3    H113353   3.319   4.574   0.572 -0.6824  0.7174 -1.7406
 4463TIP3    H213354   3.179   4.627   0.590 -0.5142  0.6272 -0.0168
 4464TIP3   OH213355   2.344   3.695   0.782  0.8913 -0.1818  0.3577
 4464TIP3    H113356   2.425   3.725   0.824  1.7521 -0.7880 -0.7991
 4464TIP3    H213357   2.354   3.601   0.774  0.1351 -0.2434  0.0644
 4465TIP3   OH213358   4.121   1.602   0.103  0.1170 -0.1302 -0.1309
 4465TIP3    H113359   4.177   1.613   0.180 -1.7208  1.1192  1.1285
 4465TIP3    H213360   4.150   1.670   0.042 -2.1017  2.9897  1.9376
 4466TIP3   OH213361   4.254   4.992   3.493 -0.1362 -0.1163  0.4177
 4466TIP3    H113362   4.165   4.983   3.528 -0.3115  2.0553  0.7309
 4466TIP3    H213363   4.294   4.906   3.505 -2.5084 -1.4623 -0.7183
 4467TIP3   OH213364   6.958   4.636   5.617  0.1935  0.3959  0.2220
 4467TIP3    H113365   6.902   4.706   5.649 -0.7169  0.0078 -0.5037
 4467TIP3    H213366   6.919   4.556   5.651 -0.7322 -0.0221 -1.6846
 4468TIP3   OH213367   0.815   0.989   4.088 -0.5206  0.2018 -0.1619
 4468TIP3    H113368   0.787   1.020   4.174 -1.2153  1.2115 -0.7272
 4468TIP3    H213369   0.770   1.047   4.026 -0.4825 -0.8693 -1.2207
 4469TIP3   OH213370   0.003   6.739   0.105 -0.3306  0.5185  0.9613
 4469TIP3    H113371  -0.063   6.679   0.069 -0.4688  0.8872  0.5884
 4469TIP3    H213372   0.067   6.749   0.034  0.8187 -0.8289  1.7519
 4470TIP3   OH213373   5.106   1.634   3.186  0.3446  0.0595  0.3971
 4470TIP3    H113374   5.073   1.653   3.098  0.1964  0.9971  0.6498
 4470TIP3    H213375   5.194   1.600   3.171  0.3086  0.1820 -0.1191
 4471TIP3   OH213376   6.462   0.070   0.226  0.6001 -0.1946  0.5546
 4471TIP3    H113377   6.536   0.083   0.285  1.3966 -1.4465 -0.1247
 4471TIP3    H213378   6.474   0.136   0.157  1.4122 -0.7501  0.1527
 4472TIP3   OH213379   1.383   2.879   0.240 -0.2854 -0.1137  0.4946
 4472TIP3    H113380   1.445   2.829   0.187 -1.4142 -0.7839 -0.2394
 4472TIP3    H213381   1.355   2.950   0.181  1.5322  1.6597  1.6185
 4473TIP3   OH213382   5.581   6.738   2.457  0.1454  0.1958  0.3305
 4473TIP3    H113383   5.667   6.724   2.497 -1.0392 -1.5266  2.5144
 4473TIP3    H213384   5.531   6.659   2.480 -2.2582  1.4615 -0.1994
 4474TIP3   OH213385   1.851   1.622   1.691 -0.0877 -0.0213 -0.5709
 4474TIP3    H113386   1.897   1.597   1.611  1.7102 -2.4305  1.0539
 4474TIP3    H213387   1.777   1.561   1.696  0.3730 -0.5352  0.0633
 4475TIP3   OH213388   2.997   3.961   3.791 -0.2053  0.0423 -0.0371
 4475TIP3    H113389   3.069   3.927   3.738 -0.3593  2.3583 -1.8599
 4475TIP3    H213390   3.041   4.006   3.864  0.0958 -0.6962  0.2470
 4476TIP3   OH213391   0.902   0.497   0.444  0.0511  0.1827 -0.2939
 4476TIP3    H113392   0.892   0.592   0.431  0.6853  0.4992  1.2875
 4476TIP3    H213393   0.958   0.469   0.371  0.2162  1.1046 -0.5435
 4477TIP3   OH213394   0.627   0.337   1.315  0.0354 -0.5692  0.5815
 4477TIP3    H113395   0.635   0.406   1.381  0.0861  0.3289 -0.3476
 4477TIP3    H213396   0.657   0.378   1.234  0.3333 -1.7741  0.0660
 4478TIP3   OH213397   5.350   2.710   0.934 -0.1917  0.3185  1.0919
 4478TIP3    H113398   5.324   2.788   0.884 -0.8309 -0.5725 -0.0104
 4478TIP3    H213399   5.446   2.710   0.930 -0.2128  0.6186  0.4276
 4479TIP3   OH213400   4.684   1.629   4.599 -0.5382  0.1536  0.5524
 4479TIP3    H113401   4.625   1.677   4.541 -0.7295  0.5199  1.0457
 4479TIP3    H213402   4.767   1.677   4.595 -1.0016  1.1327  1.7952
 4480TIP3   OH213403   5.970   3.905   3.847 -0.1269  1.1059 -0.0630
 4480TIP3    H113404   6.054   3.874   3.813 -1.1441  0.1024 -1.8666
 4480TIP3    H213405   5.944   3.840   3.912  0.5064  1.4690  0.5672
 4481TIP3   OH213406   3.309   0.271   0.494 -0.1591  0.6006 -0.0770
 4481TIP3    H113407   3.370   0.221   0.439 -1.2099 -0.4257 -0.3646
 4481TIP3    H213408   3.270   0.205   0.552 -0.2356  1.4101  0.8182
 4482TIP3   OH213409   6.397   4.661   4.961 -0.3158  0.0655 -0.5238
 4482TIP3    H113410   6.469   4.724   4.956 -0.0773 -0.2149 -0.6491
 4482TIP3    H213411   6.318   4.714   4.953 -0.1161  0.3496 -0.6264
 4483TIP3   OH213412   2.567   1.190   2.556 -0.3482  0.0480 -0.5820
 4483TIP3    H113413   2.584   1.111   2.505 -0.6119 -1.0275  0.9207
 4483TIP3    H213414   2.506   1.241   2.503 -0.6799 -1.0756 -1.2944
 4484TIP3   OH213415   3.455   5.668   2.947  0.6553  0.2115  0.5555
 4484TIP3    H113416   3.438   5.733   3.015  1.4882  1.3666 -0.3015
 4484TIP3    H213417   3.499   5.717   2.878  0.6290 -1.1231 -0.4379
 4485TIP3   OH213418   0.686   1.775   2.974 -0.5579 -0.0498 -0.1523
 4485TIP3    H113419   0.673   1.829   2.896 -2.0867 -0.3524 -0.1412
 4485TIP3    H213420   0.597   1.754   3.004 -0.0444  0.7799  2.1868
 4486TIP3   OH213421   2.169   2.748   4.641  0.7279 -0.1151  0.2318
 4486TIP3    H113422   2.106   2.813   4.670  2.1021  1.3575  0.0793
 4486TIP3    H213423   2.169   2.755   4.546  0.4517 -0.7795  0.1784
 4487TIP3   OH213424   5.569   1.770   2.702 -0.3258  0.7139  0.2611
 4487TIP3    H113425   5.498   1.775   2.767 -1.3415 -0.9114 -0.6611
 4487TIP3    H213426   5.554   1.687   2.657  1.4712  0.9211 -0.7962
 4488TIP3   OH213427   7.183   2.046   4.352 -0.0913 -0.2692 -0.3114
 4488TIP3    H113428   7.175   1.950   4.357  3.5063 -0.8391 -2.1005
 4488TIP3    H213429   7.204   2.072   4.441 -1.5962 -1.0265  0.3071
 4489TIP3   OH213430   3.028   2.425   2.132  0.0098 -0.5042  0.6760
 4489TIP3    H113431   2.956   2.478   2.165 -0.9467 -1.1053 -0.4083
 4489TIP3    H213432   2.987   2.362   2.073  1.2683 -1.7011  1.0447
 4490TIP3   OH213433   1.873   1.078   0.699 -0.0366  0.0290  0.0601
 4490TIP3    H113434   1.824   1.005   0.737  0.7277 -0.5259  0.0097
 4490TIP3    H213435   1.959   1.074   0.741  0.2927  0.3792 -0.5645
 4491TIP3   OH213436   6.638   6.772   2.085  0.2451  0.3158 -0.4639
 4491TIP3    H113437   6.568   6.746   2.145  1.1508 -1.8665 -0.2511
 4491TIP3    H213438   6.705   6.810   2.141  1.4479 -2.4634  0.1764
 4492TIP3   OH213439   0.258   2.222   2.245 -0.4652  0.5949  0.1120
 4492TIP3    H113440   0.216   2.137   2.233 -0.0063  0.5063 -0.9699
 4492TIP3    H213441   0.344   2.202   2.282 -0.1972  0.5504 -0.5248
 4493TIP3   OH213442   6.963   2.947   1.703  0.3688 -0.5826  0.4013
 4493TIP3    H113443   6.888   3.007   1.704 -0.0840 -1.0964 -0.8209
 4493TIP3    H213444   7.022   2.982   1.770 -0.4425  0.4994  0.5868
 4494TIP3   OH213445   5.101   5.636   2.247  0.3463 -0.8711 -0.4121
 4494TIP3    H113446   5.134   5.581   2.176  0.3035 -0.9770 -0.3505
 4494TIP3    H213447   5.058   5.575   2.307 -1.5489 -0.5567 -1.3558
 4495TIP3   OH213448   4.560   5.357   0.292  0.2882 -0.2548  0.4281
 4495TIP3    H113449   4.640   5.399   0.324  0.2692  0.4764 -0.4422
 4495TIP3    H213450   4.560   5.271   0.333  0.8869  0.1969  1.3992
 4496TIP3   OH213451   5.071   2.775   0.836  0.0033 -0.3229  0.2214
 4496TIP3    H113452   5.061   2.748   0.927 -2.3661 -3.2564 -0.7490
 4496TIP3    H213453   5.000   2.838   0.822 -0.7084 -1.1621  0.0021
 4497TIP3   OH213454   3.881   1.740   2.236  0.0446  0.0426  0.5266
 4497TIP3    H113455   3.896   1.785   2.319  0.8681 -2.2551  1.7048
 4497TIP3    H213456   3.939   1.786   2.174  1.6694 -0.0342  1.9122
 4498TIP3   OH213457   6.190   1.672   0.071 -0.1981 -0.1962 -0.5718
 4498TIP3    H113458   6.278   1.676   0.034  1.9904 -1.1294  3.8393
 4498TIP3    H213459   6.167   1.579   0.067  0.8849 -0.6309  1.7884
 4499TIP3   OH213460   5.147   1.934   0.392 -0.1309 -0.0828 -0.0733
 4499TIP3    H113461   5.097   2.002   0.347  1.5074  0.8165 -0.6182
 4499TIP3    H213462   5.140   1.955   0.485  1.8216  1.9783 -0.3074
 4500TIP3   OH213463   2.408   0.860   5.255  0.0104  0.0109  0.0209
 4500TIP3    H113464   2.391   0.785   5.312  1.2798  0.6421  1.3055
 4500TIP3    H213465   2.338   0.922   5.275  0.1897  0.0385  0.5942
 4501TIP3   OH213466   5.861   3.704   0.454 -0.1762 -0.3523  0.5476
 4501TIP3    H113467   5.940   3.749   0.484 -0.4276 -0.4205  1.3375
 4501TIP3    H213468   5.892   3.637   0.394  0.2034  1.0075 -0.8623
 4502TIP3   OH213469   0.772   6.448   3.644 -0.3829  0.6008 -0.5624
 4502TIP3    H113470   0.850   6.501   3.661 -0.4552  0.4909  0.1394
 4502TIP3    H213471   0.766   6.444   3.548 -0.8100  2.5144 -0.6691
 4503TIP3   OH213472   0.007   5.185   5.695  0.2622  0.0435 -0.1030
 4503TIP3    H113473   0.029   5.274   5.723 -1.4853  0.1101  1.2399
 4503TIP3    H213474  -0.030   5.197   5.607 -0.7055  0.7745  0.3792
 4504TIP3   OH213475   2.557   4.255   2.641 -0.0645  0.2573  0.4267
 4504TIP3    H113476   2.637   4.274   2.593 -0.3364  1.4072  0.4145
 4504TIP3    H213477   2.504   4.334   2.634 -0.8257 -0.1581  1.2002
 4505TIP3   OH213478   2.139   0.293   4.694  0.1195  0.6247 -0.0972
 4505TIP3    H113479   2.110   0.342   4.617 -0.6139  2.2086  1.1590
 4505TIP3    H213480   2.189   0.355   4.745  0.0739 -0.2315  1.0224
 4506TIP3   OH213481   1.147   3.874   2.620 -0.2925  0.3735 -0.2142
 4506TIP3    H113482   1.210   3.869   2.549 -0.8237  0.9823 -0.7391
 4506TIP3    H213483   1.105   3.788   2.622  0.2059  0.1285 -0.1789
 4507TIP3   OH213484   4.016   1.286   0.842 -0.3500  0.1487 -0.4416
 4507TIP3    H113485   4.086   1.347   0.864  0.2902 -0.3067 -1.1477
 4507TIP3    H213486   3.936   1.338   0.844 -0.3137  0.2225  2.5493
 4508TIP3   OH213487   6.195   6.320   4.608 -0.2360  0.6786 -0.0259
 4508TIP3    H113488   6.143   6.332   4.529 -0.2314  0.5704 -0.0464
 4508TIP3    H213489   6.274   6.274   4.578 -0.4774  0.1564  0.1240
 4509TIP3   OH213490   4.021   5.714   5.552 -0.4223  0.0725  0.1896
 4509TIP3    H113491   4.102   5.664   5.564  0.4700  1.3188 -0.4411
 4509TIP3    H213492   3.951   5.651   5.569  0.6594 -1.4594 -0.8401
 4510TIP3   OH213493   1.966   0.930   4.733  0.3517  0.1095 -0.0698
 4510TIP3    H113494   1.944   0.965   4.819  0.5647  0.1952 -0.0497
 4510TIP3    H213495   1.915   0.850   4.726  0.2594  0.1542  0.0970
 4511TIP3   OH213496   4.888   5.068   3.371  0.0446  0.5462 -0.1939
 4511TIP3    H113497   4.905   5.072   3.465  0.2168  1.1286 -0.2462
 4511TIP3    H213498   4.836   4.989   3.360  0.9117 -0.0993  0.2491
 4512TIP3   OH213499   7.182   3.783   5.299 -0.6488 -0.7156 -0.1021
 4512TIP3    H113500   7.115   3.730   5.255 -1.9569 -0.7775  1.8174
 4512TIP3    H213501   7.132   3.844   5.354  0.8702  0.5083 -0.0194
 4513TIP3   OH213502   6.954   5.940   0.625  0.7062 -0.5071 -0.3469
 4513TIP3    H113503   6.872   5.961   0.670  0.5457  0.5909 -1.0970
 4513TIP3    H213504   7.021   5.985   0.676  0.3567  2.0765 -1.9826
 4514TIP3   OH213505   4.836   5.019   4.142 -0.1820 -0.4792 -0.2376
 4514TIP3    H113506   4.746   4.990   4.159  0.4147 -1.4550  1.4322
 4514TIP3    H213507   4.875   5.030   4.228  0.9312  1.2814 -0.9034
 4515TIP3   OH213508   3.900   4.495   4.070 -0.2115  0.1137 -0.4510
 4515TIP3    H113509   3.943   4.473   4.153 -0.6964 -0.9477 -0.4754
 4515TIP3    H213510   3.888   4.411   4.026  1.6082  0.7715 -2.3952
 4516TIP3   OH213511   5.685   4.305   4.589 -0.0513 -0.2371 -0.8004
 4516TIP3    H113512   5.593   4.294   4.612  0.2070  0.4298  0.6933
 4516TIP3    H213513   5.730   4.232   4.632  0.4064  0.8889  0.7521
 4517TIP3   OH213514   5.685   5.605   5.895  0.6100  1.0193  0.1225
 4517TIP3    H113515   5.607   5.661   5.891 -1.5758 -1.6514  1.9879
 4517TIP3    H213516   5.660   5.525   5.848  2.9654  0.7572 -0.8450
 4518TIP3   OH213517   6.348   0.848   2.240  1.1082  0.0488 -0.4005
 4518TIP3    H113518   6.364   0.754   2.232 -0.2513 -0.1897 -0.4780
 4518TIP3    H213519   6.435   0.886   2.250  1.6459 -1.2699  0.1974
 4519TIP3   OH213520   4.493   5.863   1.277 -0.2354 -0.0103  0.3243
 4519TIP3    H113521   4.539   5.792   1.322 -0.0461 -0.2780 -0.2796
 4519TIP3    H213522   4.404   5.831   1.265 -0.2409 -0.0074  0.3564
 4520TIP3   OH213523   2.609   2.329   4.504  0.2562 -0.1653  0.4441
 4520TIP3    H113524   2.635   2.282   4.583 -1.8342 -1.0318  0.6617
 4520TIP3    H213525   2.648   2.280   4.432  4.0914  1.8610  0.8745
 4521TIP3   OH213526   5.395   6.452   3.300  0.1057 -0.4936 -0.0053
 4521TIP3    H113527   5.354   6.516   3.357  1.6109 -0.7924  1.5123
 4521TIP3    H213528   5.327   6.387   3.283 -1.2602  1.1437 -1.0841
 4522TIP3   OH213529   0.359   4.993   3.301  0.1474  0.0976 -0.8161
 4522TIP3    H113530   0.334   4.903   3.278  0.3881 -0.8599  2.1467
 4522TIP3    H213531   0.422   5.019   3.234  3.4539 -3.6747  0.4349
 4523TIP3   OH213532   0.969   6.607   0.206  0.0599 -0.0414 -0.3652
 4523TIP3    H113533   0.999   6.594   0.296 -0.0144 -2.2728 -0.6106
 4523TIP3    H213534   1.049   6.622   0.156  0.1300  0.8725  0.0037
 4524TIP3   OH213535   2.838   0.468   4.658  0.0401 -0.1386  0.0018
 4524TIP3    H113536   2.886   0.550   4.648 -1.0344  0.4278 -0.6816
 4524TIP3    H213537   2.848   0.446   4.750  0.7645  0.4859  0.0866
 4525TIP3   OH213538   0.684   4.169   5.088  0.0932  0.7275 -0.4214
 4525TIP3    H113539   0.744   4.110   5.133 -1.0396 -0.3048 -0.1986
 4525TIP3    H213540   0.723   4.256   5.098  0.6924  0.3136  1.1522
 4526TIP3   OH213541   3.024   2.216   4.545 -0.7633 -0.2804 -0.4689
 4526TIP3    H113542   3.075   2.149   4.591  0.1645 -0.7658 -2.1094
 4526TIP3    H213543   3.084   2.290   4.536 -1.1363  0.0358 -0.3957
 4527TIP3   OH213544   5.961   2.627   0.793  0.4825 -0.2542 -0.6501
 4527TIP3    H113545   6.005   2.700   0.749 -0.6378  1.5589  1.0910
 4527TIP3    H213546   5.881   2.613   0.743  0.5833 -0.1299 -0.8462
 4528TIP3   OH213547   3.432   3.678   0.247  0.1017 -0.3835 -0.3179
 4528TIP3    H113548   3.339   3.658   0.239  0.0445  0.6039 -2.9317
 4528TIP3    H213549   3.476   3.596   0.228 -0.2062 -0.7236  0.3949
 4529TIP3   OH213550   6.887   2.503   3.057 -0.0854 -0.4606  0.5205
 4529TIP3    H113551   6.951   2.438   3.087  0.5425  0.1532  0.5433
 4529TIP3    H213552   6.839   2.528   3.136  0.2638 -0.2632  0.6727
 4530TIP3   OH213553   5.479   5.416   1.278 -0.0032  0.2640  0.4982
 4530TIP3    H113554   5.534   5.487   1.312 -0.0616  0.4840  0.1397
 4530TIP3    H213555   5.535   5.371   1.214 -0.1292  0.2846  0.3735
 4531TIP3   OH213556   5.205   4.076   5.413 -0.3149 -0.4595 -0.4697
 4531TIP3    H113557   5.261   4.057   5.338  0.1927 -0.7602 -0.0268
 4531TIP3    H213558   5.194   3.991   5.456  0.7675 -0.0359  0.7171
 4532TIP3   OH213559   0.237   5.735   4.638  0.4722  0.0815  0.6297
 4532TIP3    H113560   0.250   5.748   4.545 -0.4940 -0.4846  0.3982
 4532TIP3    H213561   0.175   5.803   4.664  0.3916 -0.0407  0.7615
 4533TIP3   OH213562   5.653   1.371   0.562  0.2128 -0.4156  0.0321
 4533TIP3    H113563   5.661   1.464   0.544 -2.7698 -0.0731 -0.0821
 4533TIP3    H213564   5.587   1.340   0.500  1.6497 -2.8252 -0.4550
 4534TIP3   OH213565   5.551   3.276   0.211 -0.1100  0.1360 -0.4444
 4534TIP3    H113566   5.622   3.218   0.239 -0.5883 -0.0908  0.3416
 4534TIP3    H213567   5.594   3.356   0.182  0.4126  0.6160  1.5254
 4535TIP3   OH213568   3.068   5.786   0.355 -0.0742 -0.2992  0.0385
 4535TIP3    H113569   2.993   5.822   0.402 -0.7010  0.4255 -1.4558
 4535TIP3    H213570   3.065   5.828   0.269  1.3251 -1.1997 -0.4844
 4536TIP3   OH213571   3.526   2.126   1.839 -0.4696  0.2012 -0.4016
 4536TIP3    H113572   3.584   2.110   1.913 -1.3994 -2.4231 -0.1204
 4536TIP3    H213573   3.459   2.186   1.872  1.4590  2.5290 -0.4705
 4537TIP3   OH213574   0.036   0.575   5.481 -0.0406  0.4173 -0.5821
 4537TIP3    H113575   0.057   0.626   5.560  1.4895  1.4049 -1.5737
 4537TIP3    H213576   0.014   0.488   5.515 -0.2310  1.0303  0.9829
 4538TIP3   OH213577   4.899   3.283   5.152  0.5598 -0.8829  0.3355
 4538TIP3    H113578   4.891   3.326   5.237  1.4971  1.0016 -0.4601
 4538TIP3    H213579   4.845   3.336   5.094  1.7719 -0.7243 -0.6938
 4539TIP3   OH213580   5.840   2.987   5.428 -0.3004 -0.1726 -0.4089
 4539TIP3    H113581   5.819   2.946   5.344  0.4472  1.2837 -1.3474
 4539TIP3    H213582   5.819   3.079   5.415  0.6713  0.2307  0.7058
 4540TIP3   OH213583   1.655   0.217   0.477  0.1450 -0.5002  0.2776
 4540TIP3    H113584   1.621   0.146   0.532 -0.4646  0.7761  1.6316
 4540TIP3    H213585   1.750   0.206   0.480  0.0938 -0.7765  1.1621
 4541TIP3   OH213586   6.982   1.264   5.305 -0.4696 -0.5140  0.6731
 4541TIP3    H113587   7.002   1.179   5.265 -0.7964  0.1511 -1.0088
 4541TIP3    H213588   7.059   1.285   5.358  1.0739 -0.3892 -1.4901
 4542TIP3   OH213589   2.143   6.100   2.536  0.7667  0.0804  0.2130
 4542TIP3    H113590   2.148   6.187   2.497  0.7198 -0.1492 -0.3110
 4542TIP3    H213591   2.175   6.041   2.468  0.2649 -0.3717  0.3554
 4543TIP3   OH213592   5.036   5.295   2.044 -0.3521  0.0437 -0.2133
 4543TIP3    H113593   5.090   5.294   1.964 -0.0276  2.0867 -0.0667
 4543TIP3    H213594   5.099   5.309   2.115 -0.7752 -0.6041  0.3074
 4544TIP3   OH213595   6.345   1.745   5.722  0.0344 -0.2074  0.1810
 4544TIP3    H113596   6.302   1.659   5.725  1.1955 -0.8196  0.0862
 4544TIP3    H213597   6.278   1.807   5.750 -1.0809 -1.0418 -0.5606
 4545TIP3   OH213598   7.126   5.558   2.590  0.3293  0.4437 -0.3383
 4545TIP3    H113599   7.207   5.508   2.584  0.0701  0.1677 -2.7326
 4545TIP3    H213600   7.153   5.649   2.578  0.4352  0.5423  0.5696
 4546TIP3   OH213601   1.042   2.095   5.631  0.2266 -0.2961 -0.5947
 4546TIP3    H113602   1.124   2.145   5.627  0.0368  0.1827  0.9195
 4546TIP3    H213603   0.978   2.151   5.586  0.0038  0.9351  1.1312
 4547TIP3   OH213604   4.225   3.878   1.616 -0.3892 -0.0200  0.4169
 4547TIP3    H113605   4.215   3.869   1.711 -3.6758  0.5245  0.2354
 4547TIP3    H213606   4.164   3.813   1.579  1.3437 -0.7357 -1.3978
 4548TIP3   OH213607   5.175   0.289   3.239  0.2178  0.8004 -0.0955
 4548TIP3    H113608   5.213   0.372   3.266 -1.3897  1.6326 -0.2384
 4548TIP3    H213609   5.114   0.312   3.169 -0.0155 -0.5421 -0.3675
 4549TIP3   OH213610   0.781   5.755   2.144 -0.1679  0.4343  0.4388
 4549TIP3    H113611   0.842   5.796   2.206 -0.3951  2.2269 -0.4584
 4549TIP3    H213612   0.716   5.823   2.126 -0.6566 -0.3792 -1.0230
 4550TIP3   OH213613   2.207   0.324   3.236 -0.4331 -0.3573  0.1283
 4550TIP3    H113614   2.281   0.280   3.278  0.2576  1.3934  0.8474
 4550TIP3    H213615   2.225   0.317   3.142 -0.5032 -1.8210  0.2012
 4551TIP3   OH213616   5.605   1.858   5.778  0.4311 -0.1919 -0.1139
 4551TIP3    H113617   5.553   1.782   5.804  0.2907  0.0119  0.1946
 4551TIP3    H213618   5.595   1.920   5.849  0.7170  0.0357 -0.2699
 4552TIP3   OH213619   4.636   4.124   5.513 -0.3745 -0.0594  0.1986
 4552TIP3    H113620   4.708   4.158   5.460 -1.0451  1.7211  0.3547
 4552TIP3    H213621   4.625   4.189   5.583 -2.6452  0.1822 -0.3050
 4553TIP3   OH213622   3.691   2.869   2.810 -0.6630  0.1320 -0.3133
 4553TIP3    H113623   3.638   2.859   2.889 -0.8470  1.5800 -0.2234
 4553TIP3    H213624   3.689   2.783   2.768 -0.3683 -0.7279  1.3700
 4554TIP3   OH213625   5.617   3.427   5.067 -0.2901  0.1793  0.4162
 4554TIP3    H113626   5.527   3.459   5.075 -1.0787 -1.3049 -1.6149
 4554TIP3    H213627   5.666   3.475   5.134 -2.4720  1.4173  1.2206
 4555TIP3   OH213628   1.333   5.185   4.289  0.2830  0.1899  0.0130
 4555TIP3    H113629   1.379   5.239   4.225 -1.6276  2.2102  0.2125
 4555TIP3    H213630   1.365   5.214   4.374 -1.0014  1.3559  0.1370
 4556TIP3   OH213631   2.270   3.944   1.765 -0.6569  0.0403  0.2519
 4556TIP3    H113632   2.214   4.019   1.786 -1.8981 -0.7624 -0.0639
 4556TIP3    H213633   2.273   3.942   1.669  0.1215  0.2033  0.2628
 4557TIP3   OH213634   0.151   0.501   0.580  0.1351  0.0725 -0.6160
 4557TIP3    H113635   0.072   0.545   0.611  0.5054  0.4340 -0.1730
 4557TIP3    H213636   0.222   0.561   0.601  0.6015 -0.5522 -0.3772
 4558TIP3   OH213637   5.049   2.849   5.363  0.4692  1.0204  0.1685
 4558TIP3    H113638   4.974   2.794   5.382  1.4613 -0.3788  0.1557
 4558TIP3    H213639   5.027   2.892   5.280  0.2055 -0.3559 -0.4969
 4559TIP3   OH213640   0.269   0.361   3.697  0.0090  0.0848  0.0304
 4559TIP3    H113641   0.254   0.302   3.623 -2.2031 -1.3302  1.4934
 4559TIP3    H213642   0.305   0.305   3.765 -0.3515  0.8051  0.8310
 4560TIP3   OH213643   4.968   3.340   5.719  0.2281  0.1713  0.1884
 4560TIP3    H113644   4.932   3.417   5.676  1.0971  0.8223  0.6038
 4560TIP3    H213645   4.959   3.270   5.654  0.4883  0.8788 -0.6273
 4561TIP3   OH213646   2.965   1.387   4.314  0.4447  0.2756 -0.3238
 4561TIP3    H113647   2.991   1.479   4.304  1.5581  0.0150  0.0170
 4561TIP3    H213648   2.990   1.365   4.404  1.9926 -0.8968 -1.0025
 4562TIP3   OH213649   2.376   2.946   4.953 -0.4851 -0.5045  0.2704
 4562TIP3    H113650   2.312   3.009   4.986 -0.1783  0.4772 -0.9179
 4562TIP3    H213651   2.369   2.952   4.858  0.6098 -1.1703  0.1305
 4563TIP3   OH213652   5.899   4.805   0.772 -0.0062  0.1243 -0.0556
 4563TIP3    H113653   5.808   4.791   0.744  0.1166 -2.7785  0.6712
 4563TIP3    H213654   5.951   4.782   0.694  0.1274  0.3549 -0.0323
 4564TIP3   OH213655   3.558   1.664   4.353  0.0330 -0.0770  0.0367
 4564TIP3    H113656   3.645   1.692   4.383 -0.1083 -0.6668  1.0372
 4564TIP3    H213657   3.572   1.577   4.316  0.3063  0.8573 -2.2279
 4565TIP3   OH213658   1.603   4.949   5.542 -0.0204  0.1196  0.3216
 4565TIP3    H113659   1.690   4.966   5.505 -1.0298  3.7827 -0.6481
 4565TIP3    H213660   1.606   4.991   5.628 -1.0452  0.9563 -0.0399
 4566TIP3   OH213661   2.461   3.288   1.865 -0.0874 -0.2251 -0.2509
 4566TIP3    H113662   2.490   3.224   1.930  0.9159  0.0434 -0.4157
 4566TIP3    H213663   2.400   3.344   1.913 -0.0417 -0.5619  0.2178
 4567TIP3   OH213664   3.485   1.004   0.896  0.4218  0.1309 -0.2540
 4567TIP3    H113665   3.462   1.062   0.824  0.2562  0.4371  0.0443
 4567TIP3    H213666   3.488   0.917   0.857 -0.3498  0.2073 -0.4827
 4568TIP3   OH213667   6.623   4.640   3.641 -0.2837  0.1912  0.0181
 4568TIP3    H113668   6.633   4.580   3.567 -0.2884  1.3875 -0.9880
 4568TIP3    H213669   6.528   4.643   3.657 -0.2027 -0.8858  0.7942
 4569TIP3   OH213670   5.711   3.578   1.681  0.2805  0.1946 -0.4875
 4569TIP3    H113671   5.782   3.642   1.671  0.5772 -0.2703 -1.4480
 4569TIP3    H213672   5.755   3.493   1.670 -0.0066 -0.2285  1.2812
 4570TIP3   OH213673   7.144   3.059   3.903  0.3223  0.2386 -0.7879
 4570TIP3    H113674   7.142   3.053   3.998 -0.9935 -1.7640 -0.8860
 4570TIP3    H213675   7.223   3.011   3.877  1.2246  1.6198 -0.7106
 4571TIP3   OH213676   0.762   3.571   2.811 -0.2703  0.1374  0.1013
 4571TIP3    H113677   0.855   3.587   2.826 -0.4688  0.1533  1.4353
 4571TIP3    H213678   0.760   3.495   2.752  0.5767  0.9588 -1.0464
 4572TIP3   OH213679   4.065   6.628   0.778  0.6503  0.9309 -0.3513
 4572TIP3    H113680   3.998   6.685   0.743 -0.8443 -0.9615 -0.7456
 4572TIP3    H213681   4.054   6.631   0.873 -0.1118  0.5123 -0.4236
 4573TIP3   OH213682   5.220   0.549   5.106 -0.2191  1.0947  0.0730
 4573TIP3    H113683   5.264   0.486   5.162 -0.1632  0.9280 -0.1560
 4573TIP3    H213684   5.134   0.510   5.089 -0.4146  1.3711  0.4352
 4574TIP3   OH213685   4.304   0.171   4.185 -0.7479 -0.1795 -0.2709
 4574TIP3    H113686   4.391   0.210   4.181 -0.8350  0.1075  0.6110
 4574TIP3    H213687   4.292   0.130   4.099  0.4472 -0.6219 -0.2356
 4575TIP3   OH213688   5.294   3.529   2.920  0.4294 -0.7422  0.2058
 4575TIP3    H113689   5.238   3.457   2.947 -0.2069  0.7421  3.1921
 4575TIP3    H213690   5.382   3.504   2.949  0.3351 -0.5978  0.6080
 4576TIP3   OH213691   4.349   1.270   4.179  0.0051  0.3170  0.4976
 4576TIP3    H113692   4.389   1.357   4.170 -0.9720  0.6628 -0.5847
 4576TIP3    H213693   4.266   1.286   4.224 -0.2040 -0.0572  0.2461
 4577TIP3   OH213694   2.840   0.790   1.133 -0.5221  0.7548  0.2377
 4577TIP3    H113695   2.902   0.862   1.144  0.0799  0.1794  0.6772
 4577TIP3    H213696   2.755   0.829   1.153 -0.4704  1.8206 -1.3987
 4578TIP3   OH213697   3.649   1.226   1.291  0.2470 -0.0402 -0.2413
 4578TIP3    H113698   3.614   1.310   1.262 -0.1189 -0.0813  0.0727
 4578TIP3    H213699   3.586   1.161   1.262  0.2143 -0.1454  0.0570
 4579TIP3   OH213700   7.152   3.000   2.446 -0.0078  0.2233  0.3730
 4579TIP3    H113701   7.085   3.067   2.433 -0.8209 -0.8875 -1.7431
 4579TIP3    H213702   7.231   3.049   2.467 -0.6745  1.8256 -0.6741
 4580TIP3   OH213703   2.839   5.717   1.805  0.0459  0.0592 -0.1571
 4580TIP3    H113704   2.769   5.658   1.781 -0.1159 -1.2719  3.0959
 4580TIP3    H213705   2.914   5.689   1.752 -1.1140 -0.2421 -1.7032
 4581TIP3   OH213706   6.904   5.669   3.513  0.1589 -0.2932 -0.4023
 4581TIP3    H113707   6.957   5.745   3.538 -0.0895  0.0551 -0.9018
 4581TIP3    H213708   6.817   5.688   3.549 -0.9030  1.4138 -3.4567
 4582TIP3   OH213709   1.447   3.371   1.551  0.0584  0.1735 -0.8265
 4582TIP3    H113710   1.537   3.377   1.518  0.3822  1.4897  0.1717
 4582TIP3    H213711   1.439   3.281   1.582  1.3791  0.2869 -0.0539
 4583TIP3   OH213712   6.775   6.308   1.811 -0.5890  0.0249 -0.1013
 4583TIP3    H113713   6.718   6.231   1.823  0.5340 -0.9905 -1.0271
 4583TIP3    H213714   6.734   6.376   1.865 -1.2490 -1.4070  1.3009
 4584TIP3   OH213715   7.097   3.554   0.252 -0.1900 -0.2416 -0.3915
 4584TIP3    H113716   7.056   3.640   0.244  1.4577  0.5661 -0.5262
 4584TIP3    H213717   7.169   3.568   0.314 -0.1270 -1.6235 -0.1210
 4585TIP3   OH213718   1.154   4.951   3.576  0.2350 -0.5533 -0.5859
 4585TIP3    H113719   1.096   4.886   3.616  0.5822 -0.1373  0.6260
 4585TIP3    H213720   1.225   4.898   3.537 -0.1765 -0.9676 -0.7878
 4586TIP3   OH213721   5.395   4.897   3.609 -0.2552 -0.1086  0.5659
 4586TIP3    H113722   5.366   4.840   3.538  0.3566 -0.0310  0.2461
 4586TIP3    H213723   5.371   4.985   3.580  2.7626  0.3202 -1.0648
 4587TIP3   OH213724   5.890   6.742   4.846 -0.2998 -0.0028  0.1090
 4587TIP3    H113725   5.849   6.826   4.867  0.2024 -0.2533  2.4420
 4587TIP3    H213726   5.957   6.763   4.781  0.3114  1.5775  1.1740
 4588TIP3   OH213727   4.317   3.944   0.040  0.4159  0.2023 -0.3759
 4588TIP3    H113728   4.292   4.031   0.008  0.5255  0.0272 -0.9361
 4588TIP3    H213729   4.234   3.898   0.053  0.3818  0.1839 -0.6586
 4589TIP3   OH213730   6.514   0.746   2.630  0.8080 -0.2624 -0.3774
 4589TIP3    H113731   6.469   0.737   2.714 -0.8037 -1.0113 -1.2747
 4589TIP3    H213732   6.539   0.839   2.627 -1.0247  0.3037  0.0401
 4590TIP3   OH213733   6.386   4.566   1.954 -0.2992 -0.1957  0.2243
 4590TIP3    H113734   6.338   4.502   2.007  1.5998 -1.9166  0.0149
 4590TIP3    H213735   6.318   4.616   1.909 -1.9527 -2.7513 -0.3653
 4591TIP3   OH213736   1.501   3.750   4.567  0.0893  0.1450  0.3221
 4591TIP3    H113737   1.535   3.705   4.490  0.2537  0.8859 -0.0472
 4591TIP3    H213738   1.531   3.698   4.642  1.6390  0.5301 -0.0130
 4592TIP3   OH213739   3.696   2.843   1.554 -0.4378  0.0918  0.4566
 4592TIP3    H113740   3.636   2.905   1.514 -1.6823 -0.8515  0.7980
 4592TIP3    H213741   3.763   2.897   1.596 -1.0942  1.1675  0.1401
 4593TIP3   OH213742   2.906   3.775   3.421  0.1078 -0.4561 -0.0927
 4593TIP3    H113743   2.923   3.737   3.508  1.5440 -0.9120 -0.5591
 4593TIP3    H213744   2.811   3.789   3.421  0.1455  0.1612  1.7960
 4594TIP3   OH213745   5.546   1.962   4.800 -0.2425  0.1966  0.1435
 4594TIP3    H113746   5.474   1.950   4.861 -1.5433  0.5997 -1.2423
 4594TIP3    H213747   5.503   1.978   4.716  1.4351 -1.8726 -1.2136
 4595TIP3   OH213748   1.092   0.373   5.450 -0.1873  0.0013 -0.5055
 4595TIP3    H113749   1.121   0.341   5.535  1.3813 -2.6306 -1.8996
 4595TIP3    H213750   1.051   0.458   5.468 -3.5316 -2.1389  3.3864
 4596TIP3   OH213751   6.863   3.354   3.989  0.3485 -0.1661 -0.1411
 4596TIP3    H113752   6.855   3.345   3.894  2.3670 -1.0367 -0.2813
 4596TIP3    H213753   6.812   3.282   4.025  2.4816 -2.0715 -0.7328
 4597TIP3   OH213754   6.590   2.391   5.225 -0.1407  0.3737 -0.4481
 4597TIP3    H113755   6.637   2.310   5.207 -0.8946 -0.0711 -0.4798
 4597TIP3    H213756   6.510   2.385   5.173 -0.9231  0.4320  0.7009
 4598TIP3   OH213757   0.359   0.891   2.221 -0.0856  0.0764  0.5562
 4598TIP3    H113758   0.318   0.842   2.293 -1.1029 -0.2929 -0.2478
 4598TIP3    H213759   0.321   0.979   2.228 -0.2498  0.0160  0.4122
 4599TIP3   OH213760   1.839   5.336   2.216  0.2392  0.3169 -0.0826
 4599TIP3    H113761   1.761   5.330   2.160 -0.1058  0.2538  0.4002
 4599TIP3    H213762   1.864   5.246   2.233 -0.2257  0.3172  0.6441
 4600TIP3   OH213763   1.147   0.702   5.258 -0.7518  0.2325  0.0811
 4600TIP3    H113764   1.223   0.735   5.306 -0.4127 -0.9728  0.4000
 4600TIP3    H213765   1.174   0.704   5.166 -0.7129  0.7507  0.0985
 4601TIP3   OH213766   4.833   6.465   5.333  0.0458  0.3571  0.3790
 4601TIP3    H113767   4.902   6.490   5.393  1.0120  1.0282 -0.9567
 4601TIP3    H213768   4.879   6.434   5.255 -1.1360  0.8935 -0.5661
 4602TIP3   OH213769   1.278   6.258   0.383  0.1072 -0.1784  0.2468
 4602TIP3    H113770   1.218   6.187   0.407  0.9737 -0.6394  1.1413
 4602TIP3    H213771   1.259   6.327   0.447  0.3217 -0.2157  0.3527
 4603TIP3   OH213772   1.918   2.175   5.340  0.0561  0.9266 -0.3745
 4603TIP3    H113773   1.949   2.124   5.266 -0.3256  1.5350 -0.9650
 4603TIP3    H213774   1.836   2.134   5.367 -0.3465  1.3294 -0.9678
 4604TIP3   OH213775   5.209   0.161   4.228 -0.0563 -0.5752  0.4792
 4604TIP3    H113776   5.189   0.184   4.319  0.3217 -2.7589  1.1921
 4604TIP3    H213777   5.189   0.067   4.223  0.7469 -0.6886 -1.4607
 4605TIP3   OH213778   5.258   3.732   3.108 -0.4211 -0.0829  0.4402
 4605TIP3    H113779   5.351   3.753   3.118 -0.2197 -1.6546  2.5319
 4605TIP3    H213780   5.252   3.689   3.023  1.1186 -1.5514  1.0286
 4606TIP3   OH213781   6.475   0.598   0.354 -0.0642  0.1599 -0.3592
 4606TIP3    H113782   6.419   0.556   0.419  0.1184  0.0350 -0.2829
 4606TIP3    H213783   6.551   0.629   0.403  0.0454  0.1186 -0.5027
 4607TIP3   OH213784   1.811   5.669   1.680  0.8682  0.5247 -0.4872
 4607TIP3    H113785   1.882   5.606   1.668  0.5101  0.0782 -0.2905
 4607TIP3    H213786   1.748   5.649   1.611 -1.2017 -2.0675  1.9015
 4608TIP3   OH213787   4.783   6.168   5.533 -0.4244  0.1425 -0.5060
 4608TIP3    H113788   4.847   6.108   5.494 -0.0711  0.7485 -0.8814
 4608TIP3    H213789   4.836   6.228   5.585 -0.7518  0.2893 -0.3442
 4609TIP3   OH213790   5.033   5.432   0.542 -0.2268  0.1977 -0.1805
 4609TIP3    H113791   5.091   5.508   0.544 -0.6891  0.7261 -2.8876
 4609TIP3    H213792   5.087   5.361   0.507 -0.1388 -0.4155  1.1535
 4610TIP3   OH213793   4.886   6.188   1.804  0.1505  0.3481  0.2720
 4610TIP3    H113794   4.821   6.243   1.762 -0.3160 -0.3551  0.0565
 4610TIP3    H213795   4.891   6.220   1.894 -1.1473 -0.1617  0.5381
 4611TIP3   OH213796   0.049   6.005   5.856 -0.3482  0.5716 -0.2040
 4611TIP3    H113797  -0.021   5.987   5.918  0.5679 -1.8832  0.2293
 4611TIP3    H213798   0.012   6.069   5.796 -4.7174 -3.6317 -2.7215
 4612TIP3   OH213799   4.299   6.028   3.817 -0.1401  0.0646 -0.5963
 4612TIP3    H113800   4.291   6.100   3.879  0.6046  1.2146 -1.7849
 4612TIP3    H213801   4.209   6.002   3.799 -0.3983  0.3141  0.2505
 4613TIP3   OH213802   1.513   3.044   4.435 -0.2416  0.1141 -0.0568
 4613TIP3    H113803   1.450   3.047   4.507  0.3591 -1.6869  0.6017
 4613TIP3    H213804   1.558   3.128   4.439  0.9553 -0.5368  2.8367
 4614TIP3   OH213805   6.500   4.241   0.995 -0.1483 -0.3961  0.3369
 4614TIP3    H113806   6.542   4.296   1.061 -0.0168  0.2120 -0.2404
 4614TIP3    H213807   6.469   4.164   1.043 -2.1249  1.0841  1.5464
 4615TIP3   OH213808   1.818   2.756   2.665 -0.5725  1.0009  0.0507
 4615TIP3    H113809   1.892   2.696   2.662 -0.8966  0.5549  0.6090
 4615TIP3    H213810   1.857   2.841   2.689 -0.2307  0.7870  0.2723
 4616TIP3   OH213811   4.847   4.941   1.870 -0.1723  0.4390  0.7179
 4616TIP3    H113812   4.941   4.931   1.855 -0.3192 -2.3141  1.0848
 4616TIP3    H213813   4.818   4.855   1.898 -2.9871  0.9784 -0.1826
 4617TIP3   OH213814   0.656   5.221   2.588  0.1274 -0.3017 -0.5817
 4617TIP3    H113815   0.705   5.211   2.506 -0.7021 -0.6615 -1.0416
 4617TIP3    H213816   0.568   5.247   2.561  0.4637  1.9902  0.3066
 4618TIP3   OH213817   3.000   0.668   0.349 -0.4118  0.2758  0.4302
 4618TIP3    H113818   3.000   0.671   0.445 -1.2391  1.2783  0.4166
 4618TIP3    H213819   3.057   0.594   0.327 -1.2822 -0.8239  1.7141
 4619TIP3   OH213820   0.396   0.673   5.801  0.0052 -0.7340  0.2740
 4619TIP3    H113821   0.401   0.578   5.806 -2.5642 -0.9254  0.5036
 4619TIP3    H213822   0.370   0.691   5.710  1.7843 -0.1286 -0.1497
 4620TIP3   OH213823   3.392   5.433   2.715 -0.2032  0.1111  0.1962
 4620TIP3    H113824   3.363   5.342   2.713  0.3854 -0.0705 -1.8298
 4620TIP3    H213825   3.320   5.481   2.756 -0.5121 -1.2367  1.3052
 4621TIP3   OH213826   4.754   4.023   2.863  0.4308  0.5526  0.7527
 4621TIP3    H113827   4.741   4.006   2.956 -1.4488  0.3713  0.4879
 4621TIP3    H213828   4.722   4.112   2.850  0.3644  0.4540  0.2186
 4622TIP3   OH213829   3.970   6.051   1.236 -0.2296 -0.6951 -0.4815
 4622TIP3    H113830   3.987   6.069   1.144  0.1149  1.7365  0.0134
 4622TIP3    H213831   3.892   6.102   1.257  0.0730 -0.6992  0.7338
 4623TIP3   OH213832   1.168   2.352   0.107 -0.3645  0.8061  0.2741
 4623TIP3    H113833   1.132   2.369   0.020 -0.2206  1.0153  0.2568
 4623TIP3    H213834   1.166   2.256   0.115  1.3375  0.6627 -0.6811
 4624TIP3   OH213835   4.624   1.242   1.776  0.2029 -0.0472  0.2703
 4624TIP3    H113836   4.689   1.173   1.762  0.4195  0.0623  0.7089
 4624TIP3    H213837   4.581   1.251   1.692  0.7802 -0.1024 -0.0397
 4625TIP3   OH213838   4.537   1.098   5.832  0.0934  0.3640 -0.2118
 4625TIP3    H113839   4.501   1.015   5.863 -0.0944 -0.1592 -1.7674
 4625TIP3    H213840   4.461   1.149   5.805  0.2890  0.5633 -0.3911
 4626TIP3   OH213841   2.630   1.588   3.526 -0.2786 -0.3367 -0.2326
 4626TIP3    H113842   2.649   1.496   3.544  0.6410  0.0907  1.1918
 4626TIP3    H213843   2.535   1.592   3.520 -0.3879 -1.2530  0.5323
 4627TIP3   OH213844   5.002   5.693   3.071 -0.2733 -0.6246 -0.4506
 4627TIP3    H113845   4.907   5.699   3.087 -0.4422 -0.0573 -1.5813
 4627TIP3    H213846   5.038   5.666   3.155 -1.3442  0.0695  0.2649
 4628TIP3   OH213847   3.966   2.661   3.105  0.1659 -0.0790 -0.4336
 4628TIP3    H113848   3.899   2.622   3.049 -0.8954  0.1091  0.6575
 4628TIP3    H213849   3.929   2.746   3.130  1.2124  0.4152 -0.5161
 4629TIP3   OH213850   4.525   1.782   4.423 -0.7324  0.1305  0.4296
 4629TIP3    H113851   4.435   1.785   4.455 -1.2211 -1.4907 -0.6463
 4629TIP3    H213852   4.519   1.817   4.334 -0.0020  1.4313  0.8670
 4630TIP3   OH213853   1.423   5.601   5.162 -0.3648  0.1078 -0.2086
 4630TIP3    H113854   1.507   5.627   5.125 -0.3163  1.0762  0.5419
 4630TIP3    H213855   1.360   5.659   5.121 -0.5479 -0.0227 -0.1126
 4631TIP3   OH213856   3.960   4.642   3.821  0.6471 -0.3659  0.2773
 4631TIP3    H113857   4.030   4.581   3.844  0.5003 -1.9173 -2.9154
 4631TIP3    H213858   3.880   4.596   3.845  0.6091  0.1799  1.2455
 4632TIP3   OH213859   1.783   3.314   1.771 -0.0261  0.1571  0.6832
 4632TIP3    H113860   1.786   3.385   1.835 -0.7953  2.3420 -1.5671
 4632TIP3    H213861   1.707   3.261   1.798 -1.8666  2.4341  0.2754
 4633TIP3   OH213862   1.161   4.806   2.002  0.2852  0.0686  0.5753
 4633TIP3    H113863   1.246   4.807   2.045  0.9246  2.7488 -0.5416
 4633TIP3    H213864   1.154   4.892   1.960 -1.9287 -0.9680 -1.4386
 4634TIP3   OH213865   4.098   4.106   0.989  0.5006  0.0207  0.2305
 4634TIP3    H113866   4.154   4.160   0.933  0.3149  0.4766  0.4782
 4634TIP3    H213867   4.079   4.163   1.064  0.3620 -0.4178  0.5262
 4635TIP3   OH213868   0.528   4.506   5.011  0.8967 -0.2535  0.5606
 4635TIP3    H113869   0.504   4.467   5.095  0.5960  1.4163  1.2864
 4635TIP3    H213870   0.549   4.597   5.032 -0.6763  0.6387 -1.3781
 4636TIP3   OH213871   7.007   6.536   5.510  0.5096 -0.2042  0.4360
 4636TIP3    H113872   6.926   6.586   5.521  0.4398 -0.5090  1.3740
 4636TIP3    H213873   6.988   6.449   5.545  1.4101 -0.1126  1.2038
 4637TIP3   OH213874   2.265   1.127   1.227 -0.0116 -0.4894  0.2063
 4637TIP3    H113875   2.358   1.149   1.236 -0.1130  0.1806 -0.2877
 4637TIP3    H213876   2.228   1.143   1.313  0.1408  0.2013  0.1441
 4638TIP3   OH213877   1.100   3.556   4.117 -0.3122  0.4316 -0.5283
 4638TIP3    H113878   1.159   3.551   4.042 -0.1259 -1.0801 -0.3113
 4638TIP3    H213879   1.036   3.487   4.102 -0.6254  0.5052  0.4106
 4639TIP3   OH213880   1.702   2.194   1.050  0.9595 -0.1162  0.1060
 4639TIP3    H113881   1.644   2.261   1.014  1.2629  0.4533  0.6499
 4639TIP3    H213882   1.790   2.225   1.028  1.0789 -0.7797 -0.3845
 4640TIP3   OH213883   4.115   0.148   3.800  0.0803 -0.0706 -0.4836
 4640TIP3    H113884   4.205   0.135   3.831 -0.2665  0.5377  0.8479
 4640TIP3    H213885   4.069   0.187   3.874 -2.1508 -3.3172  0.0981
 4641TIP3   OH213886   4.097   0.311   1.210 -0.1824 -0.4365 -0.6955
 4641TIP3    H113887   4.104   0.404   1.187 -0.8374  0.0908  1.0509
 4641TIP3    H213888   4.027   0.308   1.275  0.9219 -1.9244  0.5015
 4642TIP3   OH213889   2.385   5.059   2.860  0.2214 -0.0653  0.5385
 4642TIP3    H113890   2.306   5.108   2.837  0.7285  0.7403  0.4484
 4642TIP3    H213891   2.377   4.976   2.814 -0.4128  0.1508  0.2566
 4643TIP3   OH213892   5.051   6.019   3.048  0.4219 -0.1637 -0.0806
 4643TIP3    H113893   5.061   6.094   2.988  0.4403 -0.3346 -0.2915
 4643TIP3    H213894   5.001   5.955   2.998  0.4209 -0.2992  0.0946
 4644TIP3   OH213895   6.228   3.065   0.652  0.8340  0.5813  0.8098
 4644TIP3    H113896   6.310   3.049   0.699  1.1984 -0.4478 -0.1338
 4644TIP3    H213897   6.166   3.002   0.688  0.0926  2.1210  2.3321
 4645TIP3   OH213898   3.797   1.455   5.609  0.5220  0.3389  0.3430
 4645TIP3    H113899   3.718   1.438   5.558  1.6306 -0.9707 -1.0634
 4645TIP3    H213900   3.800   1.385   5.674  1.0075 -0.2448 -0.2803
 4646TIP3   OH213901   6.753   1.362   0.853  0.0441  0.4195  0.1635
 4646TIP3    H113902   6.751   1.387   0.945  0.8187 -1.8724  0.8592
 4646TIP3    H213903   6.732   1.269   0.853  1.0651  0.1449 -1.8807
 4647TIP3   OH213904   6.771   2.722   2.734  0.1360 -0.0004 -0.2113
 4647TIP3    H113905   6.784   2.628   2.739  0.1742 -0.0546 -1.1538
 4647TIP3    H213906   6.857   2.760   2.753 -0.3702 -0.0507  2.5250
 4648TIP3   OH213907   3.835   5.257   3.388  0.1560  0.2672 -0.7551
 4648TIP3    H113908   3.880   5.197   3.329 -0.3924  0.8134 -1.7423
 4648TIP3    H213909   3.743   5.230   3.385  0.1816  0.0351  0.1787
 4649TIP3   OH213910   5.863   1.459   1.412 -0.3400  0.1348  0.7453
 4649TIP3    H113911   5.819   1.444   1.328  0.7488  1.8253 -0.1786
 4649TIP3    H213912   5.866   1.372   1.453 -1.3130 -0.6507 -0.7370
 4650TIP3   OH213913   1.782   0.656   5.209 -0.1278  0.6675 -0.9123
 4650TIP3    H113914   1.869   0.690   5.230  0.0228  0.2809 -0.9031
 4650TIP3    H213915   1.768   0.586   5.272 -0.6301  1.0117 -0.6351
 4651TIP3   OH213916   1.060   0.143   3.490 -0.3183  0.5636  0.2813
 4651TIP3    H113917   0.985   0.084   3.482  2.2173 -2.8599 -0.2991
 4651TIP3    H213918   1.094   0.126   3.578  1.0829  0.2823 -0.2859
 4652TIP3   OH213919   1.781   3.680   5.261  0.1286  0.0064 -0.2233
 4652TIP3    H113920   1.828   3.760   5.239 -2.5429  1.1398 -2.2937
 4652TIP3    H213921   1.771   3.633   5.178 -3.9123  0.8082 -0.4005
 4653TIP3   OH213922   5.003   0.930   3.287 -0.2734 -0.0431 -0.2820
 4653TIP3    H113923   4.951   0.892   3.358 -1.8097  3.3561  0.5746
 4653TIP3    H213924   4.986   1.024   3.291  3.8239  0.9940 -1.7544
 4654TIP3   OH213925   0.878   1.473   1.751 -0.4359  0.3432  0.0144
 4654TIP3    H113926   0.966   1.438   1.758 -0.6150  0.0171  0.7598
 4654TIP3    H213927   0.840   1.430   1.675 -0.5744 -0.9279  0.7761
 4655TIP3   OH213928   2.644   4.319   0.413  0.1190  0.6000 -0.2613
 4655TIP3    H113929   2.635   4.231   0.448 -1.0293  1.1057  0.8197
 4655TIP3    H213930   2.640   4.308   0.318 -1.0719 -0.4156 -0.1179
 4656TIP3   OH213931   6.813   1.237   3.071 -0.1720 -0.0292 -0.2276
 4656TIP3    H113932   6.901   1.272   3.086 -0.6325  1.6744 -1.2578
 4656TIP3    H213933   6.807   1.225   2.976 -1.9783  2.6494 -0.5484
 4657TIP3   OH213934   4.457   1.144   0.354 -0.1602  0.0354  0.3769
 4657TIP3    H113935   4.380   1.201   0.359 -0.2369 -0.1260  1.3016
 4657TIP3    H213936   4.531   1.205   0.345 -0.2741  0.2727  0.9847
 4658TIP3   OH213937   7.109   2.411   1.130 -0.4646  0.3983  0.9789
 4658TIP3    H113938   7.022   2.451   1.131 -1.3910 -1.5051  2.7917
 4658TIP3    H213939   7.150   2.446   1.050 -3.6486 -0.2851 -1.1474
 4659TIP3   OH213940   3.848   6.226   5.034 -0.3531 -0.0372  0.3082
 4659TIP3    H113941   3.880   6.298   5.089  0.5420 -2.2791  2.9414
 4659TIP3    H213942   3.787   6.268   4.973  0.2653  2.9434  1.5492
 4660TIP3   OH213943   3.200   0.834   0.066 -0.3266  0.7533 -0.3079
 4660TIP3    H113944   3.195   0.739   0.078  3.1347  0.0714 -2.8460
 4660TIP3    H213945   3.243   0.866   0.145  1.3245 -0.2921 -0.7401
 4661TIP3   OH213946   0.452   1.375   5.742 -0.1809 -0.1595 -0.2929
 4661TIP3    H113947   0.503   1.332   5.810  1.3615  0.5837 -0.9417
 4661TIP3    H213948   0.508   1.445   5.710 -0.5837 -0.8319 -2.7282
 4662TIP3   OH213949   4.715   4.283   2.921  0.2230 -0.4048 -0.2930
 4662TIP3    H113950   4.767   4.260   2.998  1.0829  0.8767 -0.4808
 4662TIP3    H213951   4.643   4.336   2.956  0.0540 -0.6458 -0.2672
 4663TIP3   OH213952   3.013   5.439   3.920 -0.1564 -0.0969 -0.3011
 4663TIP3    H113953   3.072   5.419   3.847  0.3649 -0.9364  0.3204
 4663TIP3    H213954   3.067   5.424   3.998 -0.3051  2.0562  0.2657
 4664TIP3   OH213955   6.074   2.008   2.780 -0.1717  0.1935  0.3990
 4664TIP3    H113956   6.042   2.065   2.850 -1.8511 -0.8375  0.5432
 4664TIP3    H213957   5.994   1.970   2.742  0.8326 -1.4081 -0.2165
 4665TIP3   OH213958   3.619   3.130   3.051  0.7075  0.1896 -0.3319
 4665TIP3    H113959   3.689   3.066   3.067  1.7994  1.2229 -0.8554
 4665TIP3    H213960   3.577   3.101   2.970  0.0188 -0.8508  0.3712
 4666TIP3   OH213961   1.708   2.873   2.318  0.3172 -0.1930  0.1349
 4666TIP3    H113962   1.707   2.969   2.320  0.7575 -0.1963  0.8474
 4666TIP3    H213963   1.799   2.849   2.336  0.2631 -0.7451 -0.2874
 4667TIP3   OH213964   6.776   4.325   4.032 -0.3832 -0.1767 -0.0622
 4667TIP3    H113965   6.825   4.294   4.108 -0.1440  1.9454  0.7243
 4667TIP3    H213966   6.708   4.381   4.068 -0.8585  0.1123 -1.3580
 4668TIP3   OH213967   6.351   0.597   4.622 -0.2453 -0.5419 -0.2952
 4668TIP3    H113968   6.322   0.518   4.667 -2.2577 -0.1401 -0.7486
 4668TIP3    H213969   6.338   0.578   4.529 -1.5925  0.5513 -0.3797
 4669TIP3   OH213970   3.926   3.337   4.145  0.0336  0.4577 -0.3395
 4669TIP3    H113971   3.930   3.245   4.117 -1.4745  0.3013 -0.1332
 4669TIP3    H213972   4.006   3.376   4.110  1.0624 -1.0889  0.1876
 4670TIP3   OH213973   6.386   2.084   3.060 -0.0153 -0.1396  0.1495
 4670TIP3    H113974   6.381   2.052   3.150 -1.4680  1.1343  0.5744
 4670TIP3    H213975   6.364   2.008   3.006  1.1703 -0.9950  0.8278
 4671TIP3   OH213976   6.826   2.812   5.492  0.3277 -0.4260  0.4475
 4671TIP3    H113977   6.818   2.725   5.453 -0.5821  0.3332 -1.1415
 4671TIP3    H213978   6.737   2.834   5.521  0.6363 -0.1853  1.2489
 4672TIP3   OH213979   2.963   4.006   0.506 -0.8170  0.2640 -0.0830
 4672TIP3    H113980   3.022   3.965   0.571  0.4600  0.9793 -0.7504
 4672TIP3    H213981   2.974   4.100   0.520 -0.2751  0.4435 -1.5150
 4673TIP3   OH213982   1.105   3.821   4.214  0.2673  0.5306  0.2132
 4673TIP3    H113983   1.020   3.849   4.248 -0.0675  0.4242 -0.5127
 4673TIP3    H213984   1.086   3.739   4.169  0.3674  1.4504 -1.6233
 4674TIP3   OH213985   0.906   4.488   4.354 -0.1364 -0.3786  0.2479
 4674TIP3    H113986   0.923   4.572   4.396  0.0978  0.2219 -1.0093
 4674TIP3    H213987   0.968   4.428   4.394  1.8311  0.7369 -0.9748
 4675TIP3   OH213988   6.871   1.490   1.101 -0.3780  0.0755  0.1486
 4675TIP3    H113989   6.905   1.578   1.116  0.1364 -0.4929  2.8723
 4675TIP3    H213990   6.778   1.496   1.121 -0.5889  0.2599 -0.8860
 4676TIP3   OH213991   2.933   5.141   3.824 -0.1112 -0.2043  0.2001
 4676TIP3    H113992   2.979   5.151   3.907  0.0264  1.2632 -0.0407
 4676TIP3    H213993   2.899   5.228   3.804 -2.5818 -1.1104  0.1090
 4677TIP3   OH213994   6.217   1.318   1.025  0.6285 -0.0760 -0.4442
 4677TIP3    H113995   6.275   1.327   0.949  1.0305  1.7776  0.0365
 4677TIP3    H213996   6.271   1.346   1.100  0.5050 -2.5974  0.7013
 4678TIP3   OH213997   0.502   2.532   2.194  0.6296  0.2028  0.0649
 4678TIP3    H113998   0.553   2.479   2.255  1.1815  0.1014 -0.4744
 4678TIP3    H213999   0.540   2.513   2.108  0.6354  1.2281 -0.1723
 4679TIP3   OH214000   0.418   3.588   5.341  0.0863 -0.2340  0.4894
 4679TIP3    H114001   0.428   3.628   5.255  1.0882 -0.4326  0.4984
 4679TIP3    H214002   0.487   3.627   5.394  0.1732 -0.9144  0.8919
 4680TIP3   OH214003   2.213   5.730   0.798  0.0505 -0.0371 -0.3299
 4680TIP3    H114004   2.134   5.707   0.847 -0.2857  1.2332 -0.2435
 4680TIP3    H214005   2.215   5.826   0.799  0.6645 -0.0140 -1.8213
 4681TIP3   OH214006   2.033   2.256   2.844 -0.0556  0.4271  0.0320
 4681TIP3    H114007   2.091   2.277   2.917 -1.7013 -2.2455  2.2840
 4681TIP3    H214008   2.070   2.177   2.805  0.3548  1.3712 -1.6379
 4682TIP3   OH214009   0.483   5.032   5.685 -0.5030  0.0502 -0.4254
 4682TIP3    H114010   0.441   5.116   5.707  0.6587  0.6286 -0.3446
 4682TIP3    H214011   0.575   5.045   5.707 -0.4959 -1.6626  0.7315
 4683TIP3   OH214012   3.304   3.258   0.301 -0.6336 -0.4885 -0.0043
 4683TIP3    H114013   3.210   3.244   0.317 -0.9082  0.9591 -0.2496
 4683TIP3    H214014   3.307   3.318   0.226  0.4777  0.0096  0.4239
 4684TIP3   OH214015   3.759   2.839   0.159  0.2837 -0.0847  0.2122
 4684TIP3    H114016   3.819   2.775   0.121 -0.4505  0.0467 -1.2315
 4684TIP3    H214017   3.722   2.795   0.236  0.0838 -1.2573 -0.5290
 4685TIP3   OH214018   4.840   6.266   3.749  0.4148  0.1956  0.2336
 4685TIP3    H114019   4.908   6.200   3.762 -0.2331 -0.6651 -0.6716
 4685TIP3    H214020   4.854   6.298   3.660  0.8864  1.4890  0.7473
 4686TIP3   OH214021   6.541   1.097   0.384 -0.0475 -0.6780 -0.1346
 4686TIP3    H114022   6.549   1.023   0.324  1.2102 -0.0056 -0.8349
 4686TIP3    H214023   6.562   1.174   0.331 -0.1469  0.0626  0.8660
 4687TIP3   OH214024   3.100   4.959   0.054 -0.1021  0.1278 -0.0785
 4687TIP3    H114025   3.097   4.942  -0.040  2.1581  3.3142 -0.8856
 4687TIP3    H214026   3.024   5.015   0.071 -0.6400 -0.6368  0.0556
 4688TIP3   OH214027   0.652   3.690   0.349  0.2312  0.2483  0.0240
 4688TIP3    H114028   0.735   3.681   0.302 -0.1371  0.4878 -0.6805
 4688TIP3    H214029   0.675   3.739   0.428  0.5173  1.6716 -0.8964
 4689TIP3   OH214030   6.335   2.353   1.312 -0.5318 -0.1055  0.2426
 4689TIP3    H114031   6.315   2.311   1.396 -0.9113 -0.7122 -0.1522
 4689TIP3    H214032   6.293   2.298   1.246 -0.8953  0.8028 -0.2967
 4690TIP3   OH214033   7.105   5.330   1.124 -0.3093  0.3225 -0.5776
 4690TIP3    H114034   7.062   5.334   1.209 -0.5368  1.8646 -0.7412
 4690TIP3    H214035   7.143   5.416   1.111  2.2222 -0.7360 -0.8035
 4691TIP3   OH214036   5.791   5.999   2.613  0.3743  0.1448 -0.1428
 4691TIP3    H114037   5.886   6.004   2.620  0.6892 -2.2071 -1.5356
 4691TIP3    H214038   5.774   6.000   2.519 -0.6358 -2.7116 -0.0898
 4692TIP3   OH214039   5.943   6.522   0.420  0.6032  0.0482 -0.3026
 4692TIP3    H114040   5.974   6.457   0.483  0.8254  2.0601  1.7981
 4692TIP3    H214041   5.980   6.494   0.336  1.3509 -2.0542  0.6755
 4693TIP3   OH214042   0.639   6.455   0.218 -0.5111  0.2629  0.1638
 4693TIP3    H114043   0.640   6.375   0.270 -2.0222  0.8268  1.1243
 4693TIP3    H214044   0.555   6.455   0.174  0.1428  0.5409 -1.1343
 4694TIP3   OH214045   3.247   1.036   3.153 -0.5962 -0.1068 -0.1917
 4694TIP3    H114046   3.168   1.056   3.204 -0.4168 -0.3588  0.1910
 4694TIP3    H214047   3.256   0.941   3.160 -0.5662 -0.1418 -0.6917
 4695TIP3   OH214048   3.197   3.463   3.862 -0.0596 -0.3346 -0.4531
 4695TIP3    H114049   3.283   3.422   3.848 -0.0287 -0.1973 -0.6755
 4695TIP3    H214050   3.155   3.459   3.776 -1.3158 -2.7458  0.1942
 4696TIP3   OH214051   3.921   1.704   1.637 -0.2457  0.2848  0.2145
 4696TIP3    H114052   3.974   1.748   1.571 -1.3938  0.8898 -0.3307
 4696TIP3    H214053   3.951   1.742   1.720  0.6992  0.0467  0.0010
 4697TIP3   OH214054   4.398   2.545   3.962  0.6157 -0.0033 -0.1044
 4697TIP3    H114055   4.304   2.529   3.950  0.6433  0.5451 -1.2223
 4697TIP3    H214056   4.410   2.637   3.937  1.2343  0.3692  1.4153
 4698TIP3   OH214057   1.110   5.495   5.183  0.0380  0.4454  0.0706
 4698TIP3    H114058   1.173   5.497   5.255 -1.9740 -0.0009  1.9532
 4698TIP3    H214059   1.087   5.403   5.174  0.5879  0.4337 -1.4976
 4699TIP3   OH214060   5.243   4.886   1.570  0.5961  0.0547  0.1170
 4699TIP3    H114061   5.314   4.943   1.541  1.6292 -1.6869 -0.9973
 4699TIP3    H214062   5.183   4.882   1.495  0.1385  0.2664  0.4673
 4700TIP3   OH214063   5.195   6.496   0.574 -0.6096  0.0958 -0.3481
 4700TIP3    H114064   5.237   6.550   0.507 -0.8036 -1.1238 -1.5002
 4700TIP3    H214065   5.247   6.511   0.653 -0.5770  1.8300 -0.6540
 4701TIP3   OH214066   0.212   3.451   1.429 -0.0886 -0.0357 -0.7376
 4701TIP3    H114067   0.246   3.461   1.518 -0.1953 -1.4555 -0.5081
 4701TIP3    H214068   0.281   3.485   1.372  1.0981 -1.4633 -0.2167
 4702TIP3   OH214069   4.338   4.481   1.813 -0.1626  0.5826  0.2441
 4702TIP3    H114070   4.313   4.433   1.892  0.1825  0.2661  0.1668
 4702TIP3    H214071   4.295   4.433   1.742 -0.6285  0.9790  0.2535
 4703TIP3   OH214072   3.763   2.629   1.728 -1.0632 -0.2477  0.3057
 4703TIP3    H114073   3.711   2.618   1.807 -0.2023 -1.9251  0.7013
 4703TIP3    H214074   3.711   2.687   1.672 -2.8284 -0.9867  1.1117
 4704TIP3   OH214075   1.933   2.907   1.666  0.3832 -0.3467 -0.8080
 4704TIP3    H114076   1.922   2.812   1.672  2.1138 -0.6471 -1.5629
 4704TIP3    H214077   1.861   2.936   1.610  0.3596 -1.3627 -1.3443
 4705TIP3   OH214078   0.948   4.327   1.858  0.1063 -0.2776 -0.0253
 4705TIP3    H114079   0.887   4.321   1.931  1.2564  1.1202  1.1019
 4705TIP3    H214080   0.977   4.237   1.843  0.8137 -0.4504  2.1180
 4706TIP3   OH214081   3.788   4.131   4.097 -0.9457  0.2023  0.4402
 4706TIP3    H114082   3.719   4.105   4.158 -0.4605 -0.4360  0.7266
 4706TIP3    H214083   3.753   4.107   4.011 -0.1595 -2.3457  0.7477
 4707TIP3   OH214084   4.788   0.080   4.875  0.2744  0.0978  0.3110
 4707TIP3    H114085   4.834   0.163   4.862 -1.5007  0.9052 -1.2971
 4707TIP3    H214086   4.710   0.104   4.925  0.7778 -0.9812  1.6504
 4708TIP3   OH214087   4.808   3.113   1.629  0.0422  0.4184 -0.6793
 4708TIP3    H114088   4.770   3.114   1.717 -0.1941 -1.3230 -0.7257
 4708TIP3    H214089   4.767   3.187   1.584 -1.9459 -0.3126 -0.1653
 4709TIP3   OH214090   1.573   4.304   1.783 -0.3684 -0.8233  0.3774
 4709TIP3    H114091   1.600   4.246   1.713 -1.0947  0.2196 -0.8062
 4709TIP3    H214092   1.480   4.321   1.766 -0.2129  0.5550  0.7548
 4710TIP3   OH214093   1.277   2.509   4.190  0.2556  0.9405 -0.0966
 4710TIP3    H114094   1.331   2.588   4.197  2.1447 -0.1696 -1.1791
 4710TIP3    H214095   1.258   2.502   4.096 -1.2186  0.9289  0.1889
 4711TIP3   OH214096   2.628   3.655   0.544 -0.2968  0.0564  0.3033
 4711TIP3    H114097   2.710   3.676   0.499  0.5715 -1.1492  1.2438
 4711TIP3    H214098   2.656   3.613   0.625 -1.8612 -0.6321  0.5125
 4712TIP3   OH214099   3.613   1.318   4.494 -0.2908 -0.4754 -0.3313
 4712TIP3    H114100   3.626   1.240   4.549 -0.8561  0.4274  1.1449
 4712TIP3    H214101   3.577   1.283   4.412 -1.7857 -1.6898  0.7730
 4713TIP3   OH214102   4.346   2.750   2.870  0.2279  0.4286  0.0865
 4713TIP3    H114103   4.433   2.722   2.897 -0.3549  1.5517  3.6629
 4713TIP3    H214104   4.293   2.670   2.870  0.6741  0.1229  0.7350
 4714TIP3   OH214105   6.387   1.960   3.309  0.2556 -0.0123 -0.1593
 4714TIP3    H114106   6.298   1.959   3.345  0.6476  1.5006  0.9485
 4714TIP3    H214107   6.437   1.904   3.367 -0.1280 -1.6693 -1.3511
 4715TIP3   OH214108   6.135   6.035   3.588 -0.1446 -0.4254  0.1351
 4715TIP3    H114109   6.122   5.950   3.546  2.8628 -2.2680  2.4403
 4715TIP3    H214110   6.096   6.025   3.675  0.1822  0.5651  0.4087
 4716TIP3   OH214111   2.815   6.394   2.572 -0.2359 -0.0340 -0.2359
 4716TIP3    H114112   2.762   6.455   2.623  1.1056  1.2365 -0.3087
 4716TIP3    H214113   2.903   6.401   2.609  0.4961 -0.0270 -1.8834
 4717TIP3   OH214114   1.873   0.005   3.206 -0.3736 -0.1887  0.1926
 4717TIP3    H114115   1.808  -0.061   3.183 -0.8575  0.2617  0.2566
 4717TIP3    H214116   1.879   0.061   3.128  0.8782 -0.9627 -0.3039
 4718TIP3   OH214117   6.685   4.185   4.624  0.4710 -0.0584  0.1829
 4718TIP3    H114118   6.750   4.137   4.674  2.0683  0.2901 -1.4611
 4718TIP3    H214119   6.733   4.222   4.550 -1.6497 -0.1524 -1.3614
 4719TIP3   OH214120   2.752   0.043   0.591 -0.3543 -0.1402 -0.2771
 4719TIP3    H114121   2.807   0.064   0.516 -2.5303  2.9838 -1.1587
 4719TIP3    H214122   2.663   0.057   0.561 -1.5167 -1.8215  2.0518
 4720TIP3   OH214123   0.547   2.090   2.302  0.5357 -0.0529  0.1978
 4720TIP3    H114124   0.509   2.099   2.389 -2.5255  0.2009 -1.0712
 4720TIP3    H214125   0.572   1.997   2.297  0.9511 -0.0262  1.3587
 4721TIP3   OH214126   0.222   4.949   3.837  0.2554 -0.0626  0.5400
 4721TIP3    H114127   0.201   4.993   3.919 -1.2684 -1.3318  0.8806
 4721TIP3    H214128   0.281   5.009   3.792 -0.3230  1.4967  1.7670
 4722TIP3   OH214129   6.983   6.069   5.302  0.3376 -0.2743  0.1171
 4722TIP3    H114130   6.966   5.975   5.299  0.5243 -0.3165  0.3760
 4722TIP3    H214131   6.928   6.105   5.233  1.5595 -0.7720 -1.1856
 4723TIP3   OH214132   2.854   3.861   1.801  0.1121 -0.1134 -0.5878
 4723TIP3    H114133   2.804   3.937   1.832  1.1397  0.6726 -0.8328
 4723TIP3    H214134   2.907   3.835   1.876 -1.8162 -2.0017  0.2413
 4724TIP3   OH214135   0.549   1.965   2.004 -0.6521  0.4605  0.2495
 4724TIP3    H114136   0.486   1.961   2.076 -1.2591  0.3051 -0.2729
 4724TIP3    H214137   0.497   1.940   1.927  0.3794 -1.0988  0.0117
 4725TIP3   OH214138   1.475   1.715   3.477 -0.0058  0.4309 -0.3404
 4725TIP3    H114139   1.478   1.769   3.556  1.2087  1.9671 -1.3671
 4725TIP3    H214140   1.567   1.703   3.453 -0.3585  1.1722 -2.2576
 4726TIP3   OH214141   5.671   0.189   3.799 -0.0375 -0.3632 -1.0412
 4726TIP3    H114142   5.712   0.271   3.824 -0.8405  0.5266 -2.4714
 4726TIP3    H214143   5.580   0.197   3.830 -0.1191 -0.7062 -1.1845
 4727TIP3   OH214144   3.767   6.358   3.980  0.4353 -0.4584 -0.1857
 4727TIP3    H114145   3.788   6.418   3.909  0.2451  0.5633  0.5995
 4727TIP3    H214146   3.740   6.414   4.053  1.3331 -1.4186  0.9496
 4728TIP3   OH214147   2.136   3.618   0.535 -0.5900  0.4022  0.4511
 4728TIP3    H114148   2.084   3.698   0.530 -2.4098 -0.6833  1.0613
 4728TIP3    H214149   2.121   3.584   0.623  1.4745  0.1969  0.7788
 4729TIP3   OH214150   3.147   3.827   4.677  0.0654 -0.1962 -0.0701
 4729TIP3    H114151   3.126   3.733   4.671 -1.3017  0.1721 -2.1302
 4729TIP3    H214152   3.227   3.830   4.729  0.3942 -2.5406 -0.3122
 4730TIP3   OH214153   1.571   2.186   5.404 -0.2095 -0.3610 -0.3163
 4730TIP3    H114154   1.585   2.196   5.310  0.1683  0.4217 -0.1769
 4730TIP3    H214155   1.588   2.093   5.420  0.3703 -0.3679 -0.9134
 4731TIP3   OH214156   5.290   3.014   0.775 -0.4728 -0.0260  0.4456
 4731TIP3    H114157   5.294   3.000   0.681  0.8245 -2.4074  0.7600
 4731TIP3    H214158   5.360   3.077   0.793 -0.7628  0.4832 -0.1614
 4732TIP3   OH214159   2.669   3.001   4.218  0.0725  0.2143 -0.1456
 4732TIP3    H114160   2.695   3.086   4.253 -1.2399  0.5783 -0.0146
 4732TIP3    H214161   2.616   3.021   4.142  0.7717 -0.5316 -0.8590
 4733TIP3   OH214162   0.746   2.694   1.806 -0.2437 -0.0558 -0.7229
 4733TIP3    H114163   0.818   2.631   1.809 -0.0359  0.1229 -1.5136
 4733TIP3    H214164   0.786   2.778   1.828  0.1067  0.2826 -2.4928
 4734TIP3   OH214165   2.350   5.521   1.079  0.0353  0.2146  0.4760
 4734TIP3    H114166   2.362   5.607   1.120  0.9958 -0.1772  1.0600
 4734TIP3    H214167   2.271   5.486   1.119 -0.6326  1.0195 -0.1186
 4735TIP3   OH214168   4.746   1.767   3.384  0.0913  0.9420  0.0440
 4735TIP3    H114169   4.736   1.778   3.478 -0.4898  1.0630 -0.0310
 4735TIP3    H214170   4.835   1.731   3.374 -0.0060  0.5093  0.6624
 4736TIP3   OH214171   4.373   6.370   3.542  0.5583 -0.4521 -0.1389
 4736TIP3    H114172   4.293   6.320   3.554  0.6971 -1.0495 -1.4697
 4736TIP3    H214173   4.377   6.386   3.447  2.0001 -0.4438 -0.1016
 4737TIP3   OH214174   3.428   3.232   3.472 -0.8387  0.1271  0.1659
 4737TIP3    H114175   3.499   3.172   3.494 -1.4162 -1.3496 -1.7265
 4737TIP3    H214176   3.351   3.197   3.516 -1.1222 -0.4189 -0.7328
 4738TIP3   OH214177   0.462   5.931   1.566  0.2257  0.6631 -0.2340
 4738TIP3    H114178   0.377   5.893   1.542  1.2861 -2.2131  0.1709
 4738TIP3    H214179   0.447   5.969   1.652 -0.8986  1.1406 -0.6205
 4739TIP3   OH214180   3.864   6.208   5.636 -0.0373 -0.1415  0.3262
 4739TIP3    H114181   3.783   6.208   5.687  0.2986 -0.0765  0.8684
 4739TIP3    H214182   3.876   6.117   5.609  0.4594 -0.4440  1.4783
 4740TIP3   OH214183   4.246   2.614   4.467 -0.2976  0.8565  0.3040
 4740TIP3    H114184   4.206   2.545   4.415 -0.2865  1.4061 -0.4543
 4740TIP3    H214185   4.321   2.572   4.510 -0.4669  0.3294  0.0897
 4741TIP3   OH214186   4.045   4.909   0.916  0.6336 -0.6209 -0.0037
 4741TIP3    H114187   4.070   4.920   1.008  1.8351 -1.8262 -0.1542
 4741TIP3    H214188   4.057   4.816   0.899 -1.5006 -0.7917 -0.8663
 4742TIP3   OH214189   0.981   3.581   3.078 -0.5562 -0.0897 -0.4353
 4742TIP3    H114190   0.991   3.533   2.996  1.4747 -0.8262  0.1785
 4742TIP3    H214191   1.064   3.628   3.089 -0.2223 -1.0869  1.8157
 4743TIP3   OH214192   2.364   1.239   2.243  0.4113 -0.2988 -0.1605
 4743TIP3    H114193   2.365   1.307   2.311 -0.2619 -0.0893 -0.3539
 4743TIP3    H214194   2.452   1.242   2.206 -0.1168  1.7405 -1.3904
 4744TIP3   OH214195   1.786   5.923   2.805  0.0682  0.2301 -0.0518
 4744TIP3    H114196   1.787   6.014   2.833 -0.5416  0.1507  0.2440
 4744TIP3    H214197   1.693   5.899   2.803  0.1616 -0.1007 -1.0654
 4745TIP3   OH214198   3.571   4.292   2.930 -0.6967 -0.3657  0.1048
 4745TIP3    H114199   3.608   4.290   3.018 -0.3633  1.3653  0.0503
 4745TIP3    H214200   3.492   4.346   2.938  0.6817  2.0218 -1.0451
 4746TIP3   OH214201   4.629   1.720   3.906 -0.5561 -0.0085  0.0739
 4746TIP3    H114202   4.605   1.634   3.871  0.1420 -0.4826  0.7191
 4746TIP3    H214203   4.701   1.749   3.849  0.2109 -0.5351  0.7445
 4747TIP3   OH214204   3.242   2.177   4.321  0.4452 -0.1466 -0.0921
 4747TIP3    H114205   3.302   2.102   4.318 -1.7311 -1.9792 -0.1530
 4747TIP3    H214206   3.185   2.165   4.246  0.0408  1.6088 -0.0944
 4748TIP3   OH214207   2.213   6.336   3.638  0.2978 -0.4413  0.1871
 4748TIP3    H114208   2.211   6.244   3.663  1.1349 -0.1173  1.5639
 4748TIP3    H214209   2.306   6.356   3.625 -0.0317 -0.5601 -3.3506
 4749TIP3   OH214210   0.670   1.555   1.426  0.1943  0.2744  0.3083
 4749TIP3    H114211   0.648   1.626   1.366  1.0981 -0.3475 -0.7775
 4749TIP3    H214212   0.739   1.506   1.382  0.4591 -0.5549  1.5924
 4750TIP3   OH214213   1.355   5.285   2.068  0.5957  0.4141 -0.8093
 4750TIP3    H114214   1.318   5.229   2.000  1.3703 -0.8741 -0.1971
 4750TIP3    H214215   1.283   5.344   2.092 -0.4356 -0.7155 -1.0563
 4751TIP3   OH214216   7.193   3.985   4.908 -0.3832 -0.0316  0.3173
 4751TIP3    H114217   7.226   4.074   4.918  0.0387 -0.2674  1.2551
 4751TIP3    H214218   7.108   3.985   4.952 -1.2697  0.3553 -1.3270
 4752TIP3   OH214219   6.741   3.428   5.511 -0.3275  0.0217 -0.0578
 4752TIP3    H114220   6.810   3.420   5.445  0.3725  0.5896  0.5877
 4752TIP3    H214221   6.677   3.361   5.487 -0.6842  0.9661 -2.0080
 4753TIP3   OH214222   0.918   0.567   3.353 -0.2329 -0.7291  0.4351
 4753TIP3    H114223   0.988   0.506   3.330  0.2744 -0.1306  0.3613
 4753TIP3    H214224   0.862   0.518   3.413  0.1327 -1.2853  0.3314
 4754TIP3   OH214225   0.128   1.682   2.391  0.0073  0.5792 -0.1134
 4754TIP3    H114226   0.181   1.651   2.464 -0.1025 -0.2248 -0.3564
 4754TIP3    H214227   0.155   1.773   2.377  0.6295  0.4705  0.3798
 4755TIP3   OH214228   0.958   5.716   4.660  0.5850  0.2813  0.7999
 4755TIP3    H114229   0.961   5.653   4.733  1.2605 -2.8363 -1.6873
 4755TIP3    H214230   0.870   5.752   4.663 -0.0178 -1.1926  2.0621
 4756TIP3   OH214231   3.409   2.149   2.211 -0.3867  0.3266 -0.2383
 4756TIP3    H114232   3.471   2.220   2.223 -1.5995  1.3405  0.2184
 4756TIP3    H214233   3.462   2.069   2.218  1.3215  1.1544 -2.5956
 4757TIP3   OH214234   3.338   4.753   0.066  0.5595  0.0659 -0.5362
 4757TIP3    H114235   3.289   4.833   0.087  0.5352 -0.2113  0.5342
 4757TIP3    H214236   3.355   4.759  -0.028  0.8140  1.4699 -0.4225
 4758TIP3   OH214237   5.926   5.494   3.394 -0.0360  0.3912 -0.1932
 4758TIP3    H114238   6.013   5.469   3.426 -1.1934 -1.5339  1.7463
 4758TIP3    H214239   5.937   5.501   3.299  1.8048 -1.9565 -0.2819
 4759TIP3   OH214240   4.307   2.472   1.559  0.2136  0.3118  0.0147
 4759TIP3    H114241   4.367   2.399   1.575  0.3645  0.7100  1.4147
 4759TIP3    H214242   4.260   2.447   1.480  1.2486 -0.6481 -0.3318
 4760TIP3   OH214243   0.301   1.648   5.724  0.0770 -0.1452 -0.3160
 4760TIP3    H114244   0.217   1.622   5.686 -0.5781  0.2998  0.7789
 4760TIP3    H214245   0.356   1.668   5.648 -0.4317 -1.5062 -1.0948
 4761TIP3   OH214246   7.042   4.585   5.027  0.3179  0.1093 -0.3489
 4761TIP3    H114247   7.128   4.545   5.038  0.8366  1.7408  2.4864
 4761TIP3    H214248   7.040   4.616   4.937  1.9705 -1.4697 -0.9816
 4762TIP3   OH214249   6.715   3.085   1.703  0.2928  0.8562  0.1380
 4762TIP3    H114250   6.641   3.130   1.744 -0.2058 -0.8786  1.2757
 4762TIP3    H214251   6.681   3.055   1.619 -0.3354  0.0756  0.6529
 4763TIP3   OH214252   3.826   0.496   3.268 -0.1845  0.0536 -0.4147
 4763TIP3    H114253   3.800   0.411   3.234 -2.1041  0.1635  0.6496
 4763TIP3    H214254   3.921   0.490   3.279 -0.1526 -1.5626 -1.3253
 4764TIP3   OH214255   6.294   1.603   2.436 -0.0931 -0.3070  0.1908
 4764TIP3    H114256   6.378   1.564   2.461  0.7210 -0.2983 -2.2835
 4764TIP3    H214257   6.297   1.691   2.472  0.5467 -0.5997  0.8952
 4765TIP3   OH214258   6.162   0.780   4.708 -0.3683  0.0685  0.0800
 4765TIP3    H114259   6.165   0.864   4.662 -0.2768  0.0422  0.0382
 4765TIP3    H214260   6.233   0.728   4.668 -0.4283 -0.0299  0.1018
 4766TIP3   OH214261   1.664   4.551   2.286  0.2957  0.3152 -0.5947
 4766TIP3    H114262   1.718   4.485   2.331 -1.9510 -0.5110  1.0765
 4766TIP3    H214263   1.591   4.501   2.249 -0.3788  1.6226 -1.0989
 4767TIP3   OH214264   5.735   4.235   5.194  0.0354  0.1828 -0.3224
 4767TIP3    H114265   5.672   4.184   5.142 -0.2201  0.1810 -0.0110
 4767TIP3    H214266   5.756   4.180   5.269 -0.2840  0.5567  0.0458
 4768TIP3   OH214267   1.113   5.621   4.246  0.2135 -0.3084 -0.2530
 4768TIP3    H114268   1.156   5.702   4.218 -0.8230  0.0104 -0.9897
 4768TIP3    H214269   1.172   5.552   4.216  2.0102  0.1736  1.9474
 4769TIP3   OH214270   2.703   4.899   3.453  0.1216  0.1724 -0.2671
 4769TIP3    H114271   2.634   4.963   3.438  0.1408  0.2718  0.0704
 4769TIP3    H214272   2.714   4.896   3.548  0.0249 -0.4273 -0.2678
 4770TIP3   OH214273   5.752   3.942   1.629  0.1785 -0.2940 -0.6873
 4770TIP3    H114274   5.768   4.032   1.601  0.0781 -0.6960 -2.1023
 4770TIP3    H214275   5.832   3.895   1.606  0.8618 -0.3012  1.4496
 4771TIP3   OH214276   3.609   3.350   2.736  0.3613  0.3228 -0.1203
 4771TIP3    H114277   3.655   3.266   2.735 -0.3605 -0.0894  0.3996
 4771TIP3    H214278   3.517   3.326   2.729  0.1676  1.0936 -0.2198
 4772TIP3   OH214279   2.512   2.799   3.753 -0.4848  0.2511  0.1138
 4772TIP3    H114280   2.509   2.894   3.765 -1.3394  0.2511 -0.0646
 4772TIP3    H214281   2.430   2.777   3.709  1.0940 -0.1709 -2.8480
 4773TIP3   OH214282   5.327   6.518   4.603  0.2638  0.4445 -0.0222
 4773TIP3    H114283   5.246   6.468   4.613  0.3316 -0.3140 -2.5624
 4773TIP3    H214284   5.300   6.610   4.609 -0.5157  0.1876  0.6155
 4774TIP3   OH214285   4.023   4.120   5.529 -0.1576 -0.0663  0.3946
 4774TIP3    H114286   4.040   4.089   5.617 -0.7695 -1.4987  0.0340
 4774TIP3    H214287   4.037   4.215   5.534  0.8206 -0.2560  1.7616
 4775TIP3   OH214288   3.485   6.167   0.675  0.4551 -0.2578  0.3583
 4775TIP3    H114289   3.459   6.219   0.751  1.7409  1.0644 -0.0457
 4775TIP3    H214290   3.478   6.076   0.703 -2.0109  0.0814  1.0648
 4776TIP3   OH214291   6.137   6.151   5.726 -0.1617  0.3550  0.0933
 4776TIP3    H114292   6.161   6.209   5.797 -0.7540  0.7025  0.0153
 4776TIP3    H214293   6.220   6.115   5.694  0.2926  1.8261 -0.4354
 4777TIP3   OH214294   3.075   5.035   0.618 -0.1297  0.3052  0.5462
 4777TIP3    H114295   3.154   5.085   0.639  0.7054 -0.0779 -1.4158
 4777TIP3    H214296   3.053   4.989   0.699  2.4028 -0.5291  0.8530
 4778TIP3   OH214297   5.208   6.557   3.840  0.1943 -0.1384  0.1783
 4778TIP3    H114298   5.212   6.547   3.935  0.0865  1.3630  0.3634
 4778TIP3    H214299   5.296   6.535   3.810  0.4623  0.1862  0.7091
 4779TIP3   OH214300   4.733   4.188   0.646 -0.0552  0.2350  0.4159
 4779TIP3    H114301   4.813   4.140   0.665 -0.4728 -1.3327 -1.4642
 4779TIP3    H214302   4.731   4.195   0.551 -1.7101  1.0022  0.4705
 4780TIP3   OH214303   6.858   0.129   0.063  0.2548  0.2824 -0.5726
 4780TIP3    H114304   6.934   0.111   0.119  0.0812  1.7275  0.1799
 4780TIP3    H214305   6.782   0.112   0.119  0.0358 -0.1258 -0.9891
 4781TIP3   OH214306   1.100   1.714   5.158  0.0660 -0.1447 -0.4204
 4781TIP3    H114307   1.089   1.712   5.063  1.9634 -0.8671 -0.6695
 4781TIP3    H214308   1.087   1.806   5.182  0.1552  0.1498 -1.4670
 4782TIP3   OH214309   0.832   0.801   0.726  0.2269  0.1886 -0.3516
 4782TIP3    H114310   0.816   0.763   0.640 -3.8094 -0.5360  0.4823
 4782TIP3    H214311   0.837   0.726   0.785 -2.5019  0.6358  0.6110
 4783TIP3   OH214312   4.690   0.018   2.822 -0.1446  0.1096 -0.4488
 4783TIP3    H114313   4.626   0.003   2.891  0.8218 -0.0814  0.4305
 4783TIP3    H214314   4.739   0.095   2.851  1.1836 -0.7996 -0.2121
 4784TIP3   OH214315   3.917   4.691   2.497 -0.0652  0.5296  0.0027
 4784TIP3    H114316   3.869   4.770   2.521  1.1341  0.8412  1.5180
 4784TIP3    H214317   4.009   4.714   2.509  0.2964 -1.1894  0.7911
 4785TIP3   OH214318   2.145   2.490   3.341 -0.0890  0.4521  0.5392
 4785TIP3    H114319   2.070   2.502   3.399  1.4363  3.1567  2.1684
 4785TIP3    H214320   2.146   2.568   3.286  0.6516 -0.3056 -0.5807
 4786TIP3   OH214321   1.056   2.180   1.609 -0.3089 -0.3777  0.3590
 4786TIP3    H114322   1.103   2.224   1.538 -0.2585 -1.3904 -0.2625
 4786TIP3    H214323   1.003   2.249   1.649 -0.5756  0.1706 -0.8710
 4787TIP3   OH214324   4.956   5.557   5.569 -0.1653  0.0995 -0.1358
 4787TIP3    H114325   4.973   5.621   5.638 -1.4632  1.4080 -0.9913
 4787TIP3    H214326   5.041   5.516   5.553  0.7541  1.7632  0.2803
 4788TIP3   OH214327   5.783   2.975   4.335  0.8511 -0.4768 -0.2837
 4788TIP3    H114328   5.763   2.917   4.408 -3.0384  0.7800 -0.0822
 4788TIP3    H214329   5.757   2.924   4.257  0.4529 -0.1718 -0.3563
 4789TIP3   OH214330   5.133   1.595   2.718  0.3611  0.3643  0.4425
 4789TIP3    H114331   5.080   1.675   2.719  1.4049  1.0649  1.0590
 4789TIP3    H214332   5.146   1.576   2.625 -0.9513  0.1701  0.2709
 4790TIP3   OH214333   6.059   4.102   0.385 -0.7654  0.0185  0.2797
 4790TIP3    H114334   6.100   4.038   0.443 -0.8890 -0.5434 -0.2375
 4790TIP3    H214335   6.103   4.185   0.405  0.4846 -0.5171 -0.0969
 4791TIP3   OH214336   6.167   1.125   1.449  0.2751 -0.1065  0.1036
 4791TIP3    H114337   6.128   1.169   1.373 -1.1080  0.8566  1.3221
 4791TIP3    H214338   6.204   1.196   1.502  1.1849 -0.7638  0.3881
 4792TIP3   OH214339   0.469   2.986   0.940  0.0279  0.2680  0.3360
 4792TIP3    H114340   0.409   3.033   0.997  2.2931  0.2795  2.9038
 4792TIP3    H214341   0.462   2.894   0.966 -1.0399 -0.2139 -1.4860
 4793TIP3   OH214342   5.648   2.136   0.962  0.1898 -0.1662 -0.2390
 4793TIP3    H114343   5.654   2.230   0.948 -2.0922 -0.1398 -1.4348
 4793TIP3    H214344   5.577   2.126   1.025  0.9153 -1.0751  0.4598
 4794TIP3   OH214345   0.472   5.477   0.915 -0.0764 -0.0688  0.0122
 4794TIP3    H114346   0.567   5.483   0.919  0.0673 -1.2488 -0.8545
 4794TIP3    H214347   0.454   5.383   0.926 -1.1547  0.1781  0.4582
 4795TIP3   OH214348   2.009   0.485   3.303  0.1133 -0.1145 -0.2262
 4795TIP3    H114349   2.080   0.423   3.291  1.2744  0.7523  1.5955
 4795TIP3    H214350   1.966   0.457   3.384 -0.8726  0.0709 -0.6680
 4796TIP3   OH214351   2.149   2.262   5.715 -0.2650  0.0434 -0.1807
 4796TIP3    H114352   2.189   2.337   5.670 -1.4320  0.2482 -0.9073
 4796TIP3    H214353   2.207   2.189   5.693  1.4099  0.8448  1.2780
 4797TIP3   OH214354   0.193   1.322   5.755  0.6217  0.2464 -0.2891
 4797TIP3    H114355   0.221   1.235   5.725  1.2829  0.0361  0.8419
 4797TIP3    H214356   0.272   1.376   5.750  0.8346  0.1280  1.2514
 4798TIP3   OH214357   1.779   6.192   2.538 -0.4575  0.0417 -0.0049
 4798TIP3    H114358   1.700   6.159   2.581  0.3567 -0.2045  1.3728
 4798TIP3    H214359   1.766   6.174   2.445 -1.7360 -0.5669  0.2729
 4799TIP3   OH214360   3.908   1.247   1.584  0.7284 -0.4435  0.0914
 4799TIP3    H114361   3.936   1.214   1.499  0.3010 -1.2428  0.2564
 4799TIP3    H214362   3.871   1.333   1.566 -0.5410 -1.1360 -0.7231
 4800TIP3   OH214363   5.033   3.490   0.278  0.1521  0.2776 -0.9252
 4800TIP3    H114364   4.986   3.495   0.195 -0.1687  1.2362 -0.6978
 4800TIP3    H214365   5.003   3.408   0.318  0.7583 -0.4913 -2.0104
 4801TIP3   OH214366   6.169   1.411   0.203  0.0914 -0.6024 -1.0983
 4801TIP3    H114367   6.176   1.316   0.197  0.1065 -0.6661 -0.1917
 4801TIP3    H214368   6.255   1.440   0.232 -0.1427 -0.3855 -0.6139
 4802TIP3   OH214369   6.356   3.784   3.950 -0.3608  0.3168  0.2166
 4802TIP3    H114370   6.399   3.827   3.876  0.8952  1.9526  1.7914
 4802TIP3    H214371   6.403   3.701   3.960  0.0525  0.4845 -0.2894
 4803TIP3   OH214372   4.340   3.893   2.222  0.1197  0.4533 -0.4989
 4803TIP3    H114373   4.339   3.931   2.134 -0.1649  0.0330 -0.6847
 4803TIP3    H214374   4.249   3.899   2.251 -0.8659 -3.3743 -2.0243
 4804TIP3   OH214375   4.234   4.737   4.454 -0.2136  0.1404  0.5537
 4804TIP3    H114376   4.183   4.802   4.405 -0.2033 -0.3837 -0.1664
 4804TIP3    H214377   4.325   4.755   4.430 -0.1031  0.6862  1.3659
 4805TIP3   OH214378   1.330   6.415   1.632  0.0784 -0.5724 -0.1755
 4805TIP3    H114379   1.327   6.383   1.722  0.3640 -1.8113 -0.5849
 4805TIP3    H214380   1.396   6.484   1.634 -0.0715 -0.4385  0.6030
 4806TIP3   OH214381   6.265   2.850   0.192  0.0525 -0.0739  0.1280
 4806TIP3    H114382   6.237   2.766   0.155 -0.9723  1.0768 -1.8773
 4806TIP3    H214383   6.189   2.907   0.181  1.5428  1.8198 -0.9228
 4807TIP3   OH214384   1.155   6.472   3.731 -0.1565  0.4344 -0.0924
 4807TIP3    H114385   1.220   6.535   3.764 -0.5710  1.4211 -1.0941
 4807TIP3    H214386   1.077   6.525   3.714 -0.2740 -0.1956 -1.7052
 4808TIP3   OH214387   3.992   0.963   1.722 -0.1486  0.2009  0.1551
 4808TIP3    H114388   4.076   1.004   1.745 -0.4404  0.9545 -0.0821
 4808TIP3    H214389   4.001   0.873   1.751  0.4818  0.4547  0.7925
 4809TIP3   OH214390   5.491   4.394   5.777 -0.5812 -0.1389  0.4910
 4809TIP3    H114391   5.416   4.352   5.736  0.9355 -1.8099 -0.7353
 4809TIP3    H214392   5.517   4.335   5.848 -0.7465  0.7035  1.2683
 4810TIP3   OH214393   5.437   1.945   2.188  0.2039  0.1801 -0.1236
 4810TIP3    H114394   5.343   1.954   2.175  0.1487  0.8049  0.6054
 4810TIP3    H214395   5.446   1.900   2.271  0.5429  0.5272  0.0353
 4811TIP3   OH214396   4.261   5.559   4.401 -0.7187  0.0863 -0.5759
 4811TIP3    H114397   4.261   5.597   4.313 -2.4697 -1.6282 -1.4065
 4811TIP3    H214398   4.175   5.580   4.436 -0.1182  0.5549  0.6595
 4812TIP3   OH214399   4.009   2.318   4.715  0.2008  0.3484 -0.8588
 4812TIP3    H114400   3.959   2.270   4.650 -0.3459  1.1752 -1.0734
 4812TIP3    H214401   4.082   2.261   4.738 -0.5802 -0.6882 -0.8909
 4813TIP3   OH214402   3.064   3.015   0.905 -0.0755  0.1453  0.1744
 4813TIP3    H114403   3.137   2.958   0.929  0.0641  0.3861  0.3300
 4813TIP3    H214404   3.022   3.036   0.989  0.2950  0.8354  0.1863
 4814TIP3   OH214405   6.478   5.515   5.645  0.8257  0.2914  0.0249
 4814TIP3    H114406   6.388   5.516   5.677  0.7770  0.5405 -0.1158
 4814TIP3    H214407   6.531   5.539   5.721  0.6069  2.2044 -0.3831
 4815TIP3   OH214408   5.968   6.362   4.797 -0.4103  0.1107 -0.0340
 4815TIP3    H114409   5.924   6.278   4.784  0.2011 -0.2106 -0.0395
 4815TIP3    H214410   6.040   6.362   4.734  0.3974  0.0677  0.8533
 4816TIP3   OH214411   2.049   5.945   1.632 -0.3141  0.2212  0.0328
 4816TIP3    H114412   2.084   5.979   1.550  0.1286  1.2469  0.6418
 4816TIP3    H214413   2.124   5.940   1.691 -0.5610 -0.8465  0.2840
 4817TIP3   OH214414   5.925   1.795   0.719 -0.1251 -0.2926 -0.3409
 4817TIP3    H114415   5.845   1.802   0.770 -1.6295 -2.1057 -2.2513
 4817TIP3    H214416   5.992   1.770   0.782 -1.1277  0.7927  1.2356
 4818TIP3   OH214417   4.742   0.179   4.509  0.6276 -0.3553  0.0778
 4818TIP3    H114418   4.782   0.097   4.482  0.1610 -0.1790 -1.2743
 4818TIP3    H214419   4.672   0.154   4.570  0.2982 -0.9987 -0.5532
 4819TIP3   OH214420   4.580   3.445   5.296 -0.0232  0.3395 -0.1152
 4819TIP3    H114421   4.558   3.373   5.237  1.8487  0.5007 -1.0967
 4819TIP3    H214422   4.506   3.505   5.291 -0.8049 -0.6443 -0.6801
 4820TIP3   OH214423   1.559   3.055   0.912  0.4176  0.2257 -0.3101
 4820TIP3    H114424   1.564   3.057   0.816  0.8730  1.0807 -0.2747
 4820TIP3    H214425   1.511   3.134   0.935 -1.6992 -1.0980  0.0757
 4821TIP3   OH214426   3.322   5.453   0.308 -0.2417 -0.0467 -0.1283
 4821TIP3    H114427   3.292   5.527   0.256  0.0410  0.6363  0.6513
 4821TIP3    H214428   3.411   5.437   0.277  0.0161  0.5172  0.3007
 4822TIP3   OH214429   6.842   4.988   2.935 -0.0788 -0.0496 -0.2311
 4822TIP3    H114430   6.906   5.052   2.967 -0.8566  0.6869 -0.1035
 4822TIP3    H214431   6.764   5.040   2.915 -0.8510 -1.0029  0.2084
 4823TIP3   OH214432   3.797   0.483   4.298  0.2639 -0.2330  0.1491
 4823TIP3    H114433   3.843   0.489   4.214  2.2684  1.2522  1.2877
 4823TIP3    H214434   3.717   0.434   4.277  0.8982 -0.3005 -2.5223
 4824TIP3   OH214435   0.980   1.275   4.210 -0.4588  0.0143 -0.0787
 4824TIP3    H114436   0.981   1.277   4.114  2.4995 -0.1948 -0.1330
 4824TIP3    H214437   0.989   1.366   4.236  4.3821 -0.1305 -0.2624
 4825TIP3   OH214438   3.130   2.847   4.086  0.3020 -0.1440 -0.3232
 4825TIP3    H114439   3.053   2.824   4.138 -0.3326  0.1131 -1.1261
 4825TIP3    H214440   3.173   2.916   4.137  0.9564 -1.4462  0.9560
 4826TIP3   OH214441   5.489   1.158   3.586  0.0350  0.6032  0.2518
 4826TIP3    H114442   5.416   1.179   3.644 -1.4469 -1.1828 -0.8650
 4826TIP3    H214443   5.466   1.073   3.548  1.6522  1.0049 -1.7996
 4827TIP3   OH214444   5.134   1.268   1.816 -0.4829  0.6319 -0.2713
 4827TIP3    H114445   5.067   1.295   1.879 -0.9915 -0.0096 -0.5270
 4827TIP3    H214446   5.104   1.304   1.733  0.0716  1.2824 -0.2064
 4828TIP3   OH214447   6.786   0.409   2.918  0.4012 -0.2192 -0.3304
 4828TIP3    H114448   6.698   0.447   2.925 -0.3619 -1.9049 -0.3966
 4828TIP3    H214449   6.845   0.484   2.924 -0.8670  0.6707  3.3955
 4829TIP3   OH214450   3.463   4.555   3.580  0.3790  0.1862 -0.6551
 4829TIP3    H114451   3.382   4.567   3.530 -2.0678  0.5174  3.0242
 4829TIP3    H214452   3.506   4.640   3.577  0.5517  0.0762 -2.4511
 4830TIP3   OH214453   6.565   2.184   0.806 -0.3205  0.6139  0.4632
 4830TIP3    H114454   6.608   2.270   0.803  1.0888 -0.0644  0.1450
 4830TIP3    H214455   6.473   2.203   0.823 -0.1602  2.2310 -0.3069
 4831TIP3   OH214456   0.980   3.875   4.897  0.5054  0.3434 -0.3571
 4831TIP3    H114457   0.952   3.959   4.861  1.0497  0.4889 -0.4554
 4831TIP3    H214458   1.075   3.874   4.884  0.3975 -0.6756 -1.1689
 4832TIP3   OH214459   5.870   2.938   0.591  0.3015 -0.1548  0.0385
 4832TIP3    H114460   5.855   2.976   0.678  0.5815 -1.4972  0.6913
 4832TIP3    H214461   5.836   3.004   0.530 -2.1382 -0.1945  1.2321
 4833TIP3   OH214462   6.851   3.972   5.829  0.1925 -0.4303 -0.5340
 4833TIP3    H114463   6.866   3.879   5.812 -0.4670 -0.6971  0.2603
 4833TIP3    H214464   6.835   4.010   5.743 -0.0304 -1.1466 -0.8147
 4834TIP3   OH214465   3.582   5.639   3.807 -0.2666 -0.6558 -0.0568
 4834TIP3    H114466   3.571   5.630   3.712 -0.2630  0.4955 -0.1755
 4834TIP3    H214467   3.506   5.689   3.836  0.9200  1.0930  0.1697
 4835TIP3   OH214468   4.233   4.299   1.620  0.3599  0.1061  0.0734
 4835TIP3    H114469   4.242   4.204   1.609 -0.3782  0.1158 -0.6447
 4835TIP3    H214470   4.141   4.312   1.644  0.4632  0.6462  0.1914
 4836TIP3   OH214471   6.536   3.257   4.215 -0.4006 -0.3308  0.5964
 4836TIP3    H114472   6.494   3.254   4.129 -0.6857 -0.9444  0.7529
 4836TIP3    H214473   6.585   3.175   4.220 -2.1583 -1.3616  1.9074
 4837TIP3   OH214474   4.891   0.669   5.714  0.0471  0.0478 -0.3836
 4837TIP3    H114475   4.837   0.619   5.652  0.7278 -1.0083 -0.1547
 4837TIP3    H214476   4.839   0.746   5.735 -1.3456 -0.8986 -0.2237
 4838TIP3   OH214477   3.648   3.803   3.997 -0.4663  0.0191  0.3907
 4838TIP3    H114478   3.649   3.899   3.989 -0.9414 -0.0991 -1.3853
 4838TIP3    H214479   3.724   3.783   4.052  1.2724  1.2530 -1.4301
 4839TIP3   OH214480   4.181   0.643   0.063  0.4250 -0.1072  0.5970
 4839TIP3    H114481   4.191   0.586  -0.013  0.1865  0.7341 -0.0754
 4839TIP3    H214482   4.166   0.583   0.136  2.1960 -1.0193  0.2682
 4840TIP3   OH214483   3.948   4.061   0.078 -0.8336 -0.0435 -0.3348
 4840TIP3    H114484   3.918   4.017  -0.001  0.4256 -2.5170  0.4401
 4840TIP3    H214485   3.868   4.085   0.125 -1.5769 -0.1735 -1.5052
 4841TIP3   OH214486   1.732   1.455   3.610  0.2861 -0.2915  0.3024
 4841TIP3    H114487   1.682   1.374   3.595  1.9922 -1.2554 -0.3937
 4841TIP3    H214488   1.727   1.469   3.704 -0.5432 -0.8602  0.3582
 4842TIP3   OH214489   4.855   4.556   5.453  0.1180 -0.1577 -0.7448
 4842TIP3    H114490   4.899   4.579   5.370  0.0397  0.6570 -0.5718
 4842TIP3    H214491   4.878   4.464   5.468 -0.3819 -0.5025 -1.9908
 4843TIP3   OH214492   0.431   5.705   3.787 -0.5556 -0.1847  0.7964
 4843TIP3    H114493   0.506   5.646   3.796 -1.2070 -1.4133 -1.1899
 4843TIP3    H214494   0.360   5.661   3.833 -1.0120 -0.9801 -0.5915
 4844TIP3   OH214495   1.984   0.167   3.011 -0.0714 -0.1830 -0.1864
 4844TIP3    H114496   1.985   0.138   2.920  2.1161 -2.9486  0.5826
 4844TIP3    H214497   2.062   0.222   3.020  0.2581 -0.7039  0.2155
 4845TIP3   OH214498   1.494   4.115   2.414  0.1602 -0.0362  0.1207
 4845TIP3    H114499   1.580   4.084   2.386  0.3107 -0.8967  1.4440
 4845TIP3    H214500   1.508   4.147   2.504 -0.5479  1.4685 -0.2677
 4846TIP3   OH214501   6.884   1.713   5.064  0.8670  0.2747 -0.2779
 4846TIP3    H114502   6.955   1.773   5.088  0.0631  0.2213  2.6437
 4846TIP3    H214503   6.908   1.630   5.105 -0.8465  0.2740  0.8296
 4847TIP3   OH214504   3.283   2.897   4.480 -0.1992  0.2735 -0.5993
 4847TIP3    H114505   3.207   2.843   4.501 -0.0779  0.7172  1.1070
 4847TIP3    H214506   3.355   2.857   4.527 -0.2355  2.2317  1.2994
 4848TIP3   OH214507   1.375   2.570   0.672  0.1873  0.2693  0.3808
 4848TIP3    H114508   1.464   2.567   0.706  0.9857  0.6216 -1.5649
 4848TIP3    H214509   1.369   2.494   0.614 -1.2408 -0.5211  1.4961
 4849TIP3   OH214510   4.034   1.582   4.302  0.4433 -0.3555  0.3053
 4849TIP3    H114511   3.994   1.584   4.390 -0.1496 -0.3412  0.0427
 4849TIP3    H214512   3.976   1.525   4.251  1.3943 -1.2596  0.2061
 4850TIP3   OH214513   4.076   0.471   3.390 -0.2000  0.5454 -0.3373
 4850TIP3    H114514   4.014   0.499   3.458  1.4775 -1.4555  2.2070
 4850TIP3    H214515   4.136   0.544   3.380 -0.0654  0.6218  0.8978
 4851TIP3   OH214516   0.097   2.225   0.613  0.5168 -0.2638 -0.1919
 4851TIP3    H114517   0.182   2.236   0.570  1.2194 -1.7213  0.7292
 4851TIP3    H214518   0.101   2.283   0.689  1.3935 -1.4887  0.7553
 4852TIP3   OH214519   3.110   0.757   4.344 -0.1599 -0.0026  0.0665
 4852TIP3    H114520   3.022   0.795   4.341  0.6573  2.0733  0.4345
 4852TIP3    H214521   3.156   0.795   4.269  0.5303 -0.7785  0.0822
 4853TIP3   OH214522   6.553   3.431   1.143  0.1847 -0.1444  0.4676
 4853TIP3    H114523   6.497   3.509   1.140 -0.2207 -0.4808 -1.5241
 4853TIP3    H214524   6.616   3.451   1.213 -0.5898  1.4911  0.7618
 4854TIP3   OH214525   4.650   2.130   2.650  0.0292 -0.3170  0.0737
 4854TIP3    H114526   4.703   2.113   2.573  0.3892 -0.6894  0.3962
 4854TIP3    H214527   4.686   2.071   2.717 -0.0822  0.2126  0.6045
 4855TIP3   OH214528   5.769   1.844   5.072 -0.1074  0.3065 -0.3106
 4855TIP3    H114529   5.746   1.753   5.091 -1.1007  0.6149  0.0740
 4855TIP3    H214530   5.859   1.853   5.101 -0.1228 -0.4551  0.0013
 4856TIP3   OH214531   0.923   0.823   5.861  0.0008  0.5710  0.3548
 4856TIP3    H114532   0.838   0.864   5.847  1.4131  2.8685 -2.8637
 4856TIP3    H214533   0.968   0.881   5.922  0.3119  1.0826 -0.3585
 4857TIP3   OH214534   2.000   3.610   4.824 -0.0429  0.1721 -0.1010
 4857TIP3    H114535   1.984   3.593   4.731 -1.1381  1.4270 -0.1649
 4857TIP3    H214536   2.038   3.697   4.826  0.1352  0.0822  0.6245
 4858TIP3   OH214537   0.413   3.006   1.296  0.1910  0.2548 -0.5468
 4858TIP3    H114538   0.389   3.083   1.244 -2.1907 -0.2032 -0.2037
 4858TIP3    H214539   0.381   3.026   1.384  0.4929 -0.7048 -0.2103
 4859TIP3   OH214540   3.856   5.489   2.956 -0.2215  0.7617  0.0771
 4859TIP3    H114541   3.831   5.397   2.947  0.7972  0.5029 -0.2738
 4859TIP3    H214542   3.809   5.519   3.033 -0.1571 -0.2038  0.5097
 4860TIP3   OH214543   3.275   2.825   0.944 -0.1310 -0.0634  0.0492
 4860TIP3    H114544   3.222   2.748   0.965  1.1407 -0.8594  0.4962
 4860TIP3    H214545   3.325   2.842   1.024  0.2075  0.7347 -0.3171
 4861TIP3   OH214546   4.062   6.583   3.989 -0.2576  0.7533  0.1932
 4861TIP3    H114547   4.075   6.581   3.894  0.2126 -1.4934  0.2451
 4861TIP3    H214548   3.969   6.604   4.000 -0.4552  0.4266 -0.7836
 4862TIP3   OH214549   3.118   3.695   2.741  0.2746  0.1524  0.3060
 4862TIP3    H114550   3.071   3.615   2.717  0.3892 -0.4012  1.8613
 4862TIP3    H214551   3.208   3.666   2.756  0.3193  0.5765  0.8787
 4863TIP3   OH214552   5.003   1.547   2.415 -0.1919  0.4154 -0.9074
 4863TIP3    H114553   5.025   1.578   2.327 -1.2996  3.3388 -0.2560
 4863TIP3    H214554   4.923   1.594   2.438 -0.1490 -0.5591  1.5396
 4864TIP3   OH214555   4.479   1.724   4.795  0.0305  0.4681 -0.1427
 4864TIP3    H114556   4.532   1.686   4.726 -0.9568  1.2745 -1.3923
 4864TIP3    H214557   4.466   1.816   4.769  0.8505  1.2216  1.8597
 4865TIP3   OH214558   3.466   2.471   4.162 -0.6378  0.4499  0.3116
 4865TIP3    H114559   3.490   2.430   4.079 -0.4517 -0.4208  0.7932
 4865TIP3    H214560   3.550   2.489   4.205 -0.7771 -0.4445  0.9583
 4866TIP3   OH214561   3.162   4.276   3.853  0.1692 -0.2489  0.6127
 4866TIP3    H114562   3.128   4.270   3.765  1.1962 -0.7948  0.2347
 4866TIP3    H214563   3.142   4.192   3.894  0.7087 -0.4284  0.5146
 4867TIP3   OH214564   0.295   0.842   0.923  0.9566  0.0039 -0.1804
 4867TIP3    H114565   0.306   0.753   0.889  1.8808  0.4357 -1.0567
 4867TIP3    H214566   0.384   0.876   0.929  0.5755  1.0689 -0.3809
 4868TIP3   OH214567   4.632   6.113   0.433 -0.1166 -0.2085 -0.7006
 4868TIP3    H114568   4.602   6.058   0.361  1.1754  0.4794 -1.8118
 4868TIP3    H214569   4.717   6.076   0.457  0.0058  0.3063 -0.3365
 4869TIP3   OH214570   6.214   5.650   0.006 -0.0730  0.0819  0.4388
 4869TIP3    H114571   6.191   5.581   0.068 -0.4148 -0.8578 -0.6936
 4869TIP3    H214572   6.281   5.702   0.051 -0.0155 -0.8268  1.4201
 4870TIP3   OH214573   3.627   5.247   4.392  0.1905  0.0817 -0.1401
 4870TIP3    H114574   3.701   5.230   4.451 -0.4337 -1.7581  0.1832
 4870TIP3    H214575   3.551   5.251   4.450 -0.4718 -2.0394 -0.7692
 4871TIP3   OH214576   1.523   5.747   0.858 -0.5868  0.3608 -0.2514
 4871TIP3    H114577   1.526   5.674   0.796 -2.3786  0.9496 -1.1006
 4871TIP3    H214578   1.607   5.792   0.845  0.1305 -0.9521 -0.4118
 4872TIP3   OH214579   6.971   4.912   3.714  0.9382 -0.0802  0.3230
 4872TIP3    H114580   6.924   4.977   3.663  2.1097  0.2875 -0.3353
 4872TIP3    H214581   6.903   4.854   3.749  0.0510  0.0924 -1.0450
 4873TIP3   OH214582   4.480   5.460   5.129 -0.4344 -0.2971 -0.4463
 4873TIP3    H114583   4.538   5.531   5.100 -2.4051  1.0584 -1.2275
 4873TIP3    H214584   4.521   5.429   5.210  0.2805  2.0447  0.1955
 4874TIP3   OH214585   2.270   2.428   3.586 -0.1020  0.0712  0.1960
 4874TIP3    H114586   2.289   2.517   3.614 -1.9941  0.8211 -0.7096
 4874TIP3    H214587   2.215   2.438   3.508 -1.2255 -1.8539  0.6551
 4875TIP3   OH214588   6.209   4.664   1.790  0.6440 -0.1654 -0.2401
 4875TIP3    H114589   6.118   4.635   1.793  0.3026  0.8126 -0.5967
 4875TIP3    H214590   6.203   4.759   1.781  1.7055  0.0179  0.7429
 4876TIP3   OH214591   5.582   6.735   1.170 -0.3393  0.1944 -0.3170
 4876TIP3    H114592   5.537   6.652   1.186 -0.1296  0.3343  1.0988
 4876TIP3    H214593   5.664   6.728   1.219  0.0146  0.9654 -0.7660
 4877TIP3   OH214594   4.721   6.468   3.090 -0.1174  0.2025  0.3113
 4877TIP3    H114595   4.629   6.453   3.112 -0.0706 -0.3507  0.1468
 4877TIP3    H214596   4.769   6.408   3.146  0.0565 -0.5422 -0.6185
 4878TIP3   OH214597   5.329   0.447   4.871 -0.2394 -0.1450 -0.4864
 4878TIP3    H114598   5.292   0.366   4.906  2.0894 -0.8558  0.5454
 4878TIP3    H214599   5.341   0.502   4.948 -0.9263  0.8535 -1.0661
 4879TIP3   OH214600   5.172   6.163   5.540  0.4832 -0.3871  0.3057
 4879TIP3    H114601   5.239   6.117   5.590  1.6244  0.7261 -0.1534
 4879TIP3    H214602   5.100   6.176   5.602  1.4959  0.1593  1.3969
 4880TIP3   OH214603   5.264   3.352   5.697 -0.4459  0.0072 -0.0449
 4880TIP3    H114604   5.169   3.345   5.710 -0.3350  0.6471  1.3000
 4880TIP3    H214605   5.297   3.263   5.710 -0.7950 -0.0966  0.1461
 4881TIP3   OH214606   3.576   6.755   2.351  0.5269 -0.0010 -0.3198
 4881TIP3    H114607   3.588   6.696   2.427  0.8293 -0.1227 -0.4608
 4881TIP3    H214608   3.581   6.697   2.275 -0.7703 -0.0269 -0.3960
 4882TIP3   OH214609   0.759   5.466   1.201  0.6010  0.2920 -0.0692
 4882TIP3    H114610   0.703   5.462   1.279  1.2579 -0.7619  0.3674
 4882TIP3    H214611   0.798   5.553   1.203  1.1730  0.0183  1.1862
 4883TIP3   OH214612   4.157   5.618   0.607  0.0274  0.1213  0.1655
 4883TIP3    H114613   4.209   5.562   0.550  2.4389  0.0872  2.2351
 4883TIP3    H214614   4.161   5.576   0.693 -2.7468  0.6148  0.6326
 4884TIP3   OH214615   2.967   5.383   3.181  0.0575  0.4491  0.4851
 4884TIP3    H114616   2.887   5.425   3.148  0.0843  1.4991  1.6660
 4884TIP3    H214617   2.935   5.313   3.238 -0.0666  1.0910  1.2386
 4885TIP3   OH214618   4.807   3.378   3.862  0.4166 -0.3217 -0.5666
 4885TIP3    H114619   4.810   3.415   3.950  1.2542  0.1442 -0.7775
 4885TIP3    H214620   4.801   3.283   3.876  1.1278 -0.2940 -0.0024
 4886TIP3   OH214621   5.709   4.762   2.051  0.0229 -0.1436  0.0135
 4886TIP3    H114622   5.744   4.793   1.968 -1.2233 -0.8139 -0.7977
 4886TIP3    H214623   5.679   4.841   2.096  1.6772  0.3478  0.3528
 4887TIP3   OH214624   0.288   6.383   3.918 -0.1993  0.1312  0.4480
 4887TIP3    H114625   0.226   6.456   3.924 -0.4176  0.0706 -0.8308
 4887TIP3    H214626   0.235   6.306   3.941 -0.3540  0.1929  0.3029
 4888TIP3   OH214627   3.826   1.377   1.088  0.3757  0.1753 -0.1381
 4888TIP3    H114628   3.814   1.292   1.046 -0.5039  0.4194 -0.4005
 4888TIP3    H214629   3.738   1.414   1.093  0.7562  1.1104 -0.1137
 4889TIP3   OH214630   1.218   5.179   2.939 -0.4250 -0.2935 -0.0294
 4889TIP3    H114631   1.126   5.157   2.954 -0.8041  0.3721 -1.1441
 4889TIP3    H214632   1.255   5.191   3.026 -1.4011 -0.5528  0.4373
 4890TIP3   OH214633   4.444   2.717   1.913  0.0845 -0.1324  0.8822
 4890TIP3    H114634   4.450   2.624   1.931  2.2816  0.2648  2.7218
 4890TIP3    H214635   4.502   2.731   1.837 -2.2111 -0.5366 -1.0557
 4891TIP3   OH214636   4.817   5.542   0.916 -0.7498 -0.5938 -0.0835
 4891TIP3    H114637   4.809   5.562   1.009  1.4968 -0.7329  0.2036
 4891TIP3    H214638   4.811   5.446   0.912  0.4385 -0.6945  0.1218
 4892TIP3   OH214639   2.579   3.780   2.305 -0.0352  0.0053  0.0883
 4892TIP3    H114640   2.501   3.832   2.321 -0.1148  0.5943 -2.0259
 4892TIP3    H214641   2.650   3.844   2.300  0.1401 -0.2491 -0.7740
 4893TIP3   OH214642   1.584   1.410   4.936  0.0811  0.4531 -0.3882
 4893TIP3    H114643   1.515   1.387   4.872 -0.4906  0.2254  0.3008
 4893TIP3    H214644   1.537   1.452   5.007  0.8957  2.0790 -0.7719
 4894TIP3   OH214645   1.094   0.369   0.279 -0.0823  0.2628 -0.1203
 4894TIP3    H114646   1.167   0.371   0.341  1.8999 -1.4824 -2.2299
 4894TIP3    H214647   1.078   0.276   0.263 -2.5832  0.5963 -0.0505
 4895TIP3   OH214648   1.248   1.100   4.423 -0.3022 -0.0489  0.1907
 4895TIP3    H114649   1.277   1.098   4.332 -3.2210  0.8863 -0.8953
 4895TIP3    H214650   1.184   1.029   4.429  0.8295 -0.9783  1.9447
 4896TIP3   OH214651   7.011   5.325   4.093 -0.1242  0.3130  0.2032
 4896TIP3    H114652   7.002   5.407   4.045  0.3049 -0.3986 -1.1578
 4896TIP3    H214653   7.067   5.270   4.037  1.4909 -0.1228  2.1087
 4897TIP3   OH214654   1.936   4.107   5.431 -0.2736 -0.1282  0.2412
 4897TIP3    H114655   1.994   4.169   5.475  0.3956 -1.0293  0.6643
 4897TIP3    H214656   1.883   4.069   5.501  0.5742 -1.3389  0.2539
 4898TIP3   OH214657   0.792   0.336   5.602 -0.2211 -0.1921  0.3501
 4898TIP3    H114658   0.748   0.399   5.658 -0.5738  0.4612 -0.6484
 4898TIP3    H214659   0.855   0.292   5.660  2.0389  2.9654  0.5455
 4899TIP3   OH214660   6.973   4.939   4.424  0.1974  0.0275  0.4151
 4899TIP3    H114661   6.991   5.021   4.379  0.4595  0.2741  0.9603
 4899TIP3    H214662   6.914   4.963   4.496  1.2045 -0.0572  1.2881
 4900TIP3   OH214663   2.719   0.038   5.702  0.6661 -0.1595 -0.3530
 4900TIP3    H114664   2.728  -0.007   5.618  0.2155 -0.9337  0.0028
 4900TIP3    H214665   2.736   0.130   5.681 -2.7913  0.2818 -2.0129
 4901TIP3   OH214666   1.535   3.791   2.162 -0.1652  0.3371 -0.4192
 4901TIP3    H114667   1.442   3.769   2.168 -0.5780  2.1744  1.1713
 4901TIP3    H214668   1.579   3.726   2.217 -0.9127  1.1797  1.2616
 4902TIP3   OH214669   3.294   0.600   2.009  0.6353 -0.5407 -0.2266
 4902TIP3    H114670   3.334   0.684   2.031 -1.2902  0.0792  1.1638
 4902TIP3    H214671   3.319   0.542   2.081 -0.2235 -0.3789  0.2164
 4903TIP3   OH214672   6.404   3.320   2.586 -0.3288 -0.7168  0.2339
 4903TIP3    H114673   6.435   3.389   2.645 -2.7296 -0.1683  0.9613
 4903TIP3    H214674   6.407   3.359   2.499  0.7173 -0.6149  0.2969
 4904TIP3   OH214675   5.433   6.112   4.094  0.4649 -0.4680  0.2343
 4904TIP3    H114676   5.343   6.111   4.128  1.4907  1.1049  3.3646
 4904TIP3    H214677   5.456   6.205   4.088  2.2393 -0.8447  0.6102
 4905TIP3   OH214678   3.386   1.111   3.416  0.4562 -0.0750 -0.2439
 4905TIP3    H114679   3.367   1.173   3.345  1.3914  3.7327  2.5086
 4905TIP3    H214680   3.301   1.070   3.435 -0.4198  1.0176 -1.5841
 4906TIP3   OH214681   4.450   1.936   3.844 -0.2345  0.1093  0.5451
 4906TIP3    H114682   4.470   1.846   3.868 -2.2637 -0.3976  0.5640
 4906TIP3    H214683   4.358   1.948   3.870 -0.8238  1.3208 -1.8105
 4907TIP3   OH214684   6.799   5.093   2.458  0.5540  0.2388 -0.2924
 4907TIP3    H114685   6.726   5.119   2.515  1.1586 -0.4872  0.8584
 4907TIP3    H214686   6.825   5.174   2.414 -0.8166  0.5466 -0.5823
 4908TIP3   OH214687   4.037   2.423   0.208  0.3686 -0.1523  0.4974
 4908TIP3    H114688   4.002   2.348   0.158 -3.3588  0.6375  1.5903
 4908TIP3    H214689   4.105   2.385   0.263 -0.6401 -2.5586  0.2239
 4909TIP3   OH214690   0.465   3.330   1.213 -0.5306 -0.1145  0.4886
 4909TIP3    H114691   0.388   3.304   1.162 -1.2870  1.0513  0.9947
 4909TIP3    H214692   0.490   3.415   1.178  0.6119 -0.5157  0.2762
 4910TIP3   OH214693   0.665   0.374   4.304  0.5953  0.1334 -0.2706
 4910TIP3    H114694   0.608   0.376   4.381 -0.1822  1.7224 -0.8377
 4910TIP3    H214695   0.641   0.293   4.259 -0.8845  0.5064 -0.2239
 4911TIP3   OH214696   5.401   2.982   5.187  1.1334  0.1002  0.2801
 4911TIP3    H114697   5.409   3.049   5.118  0.8389 -0.0319  0.1150
 4911TIP3    H214698   5.455   2.910   5.157 -0.0619 -0.5089 -0.4915
 4912TIP3   OH214699   5.914   0.786   0.282  0.3840 -0.2649 -0.0130
 4912TIP3    H114700   5.970   0.862   0.295 -0.4279  0.0932  1.7056
 4912TIP3    H214701   5.974   0.712   0.274  1.1380  0.3813 -0.4622
 4913TIP3   OH214702   3.207   1.089   1.227  0.9688  0.1093  0.0760
 4913TIP3    H114703   3.208   1.028   1.153 -0.2575 -1.0530  0.9766
 4913TIP3    H214704   3.247   1.040   1.299 -0.0070  0.3416  0.8044
 4914TIP3   OH214705   6.491   6.598   1.265  0.4720 -0.2025  0.5472
 4914TIP3    H114706   6.510   6.588   1.172 -0.7787  0.5473  0.1890
 4914TIP3    H214707   6.573   6.575   1.309  1.4111  0.4921 -0.7778
 4915TIP3   OH214708   4.114   6.148   5.742  0.7628 -0.2737 -0.0788
 4915TIP3    H114709   4.156   6.094   5.674  0.5233 -0.8595  0.2293
 4915TIP3    H214710   4.024   6.158   5.712  1.1847  1.2937 -0.9253
 4916TIP3   OH214711   4.412   4.826   2.612 -0.4600  0.0939  0.5250
 4916TIP3    H114712   4.470   4.777   2.669  0.3003 -0.0156 -0.3292
 4916TIP3    H214713   4.451   4.819   2.525 -0.2300  2.3479  0.3898
 4917TIP3   OH214714   2.422   4.482   2.664 -0.7792  0.4442  0.4183
 4917TIP3    H114715   2.351   4.500   2.725 -0.8198  0.5698  0.3348
 4917TIP3    H214716   2.475   4.561   2.664  0.4173 -0.3313  1.8851
 4918TIP3   OH214717   1.243   6.454   0.556 -0.2931 -0.0361  0.4415
 4918TIP3    H114718   1.323   6.472   0.606  0.5003 -2.5285  0.1801
 4918TIP3    H214719   1.220   6.539   0.518  2.1264  0.8120  0.6579
 4919TIP3   OH214720   2.533   1.605   0.645 -0.3057 -0.5195 -0.0232
 4919TIP3    H114721   2.465   1.670   0.634  1.9995  2.0123 -0.3972
 4919TIP3    H214722   2.509   1.557   0.724 -0.9479  2.3800  1.6627
 4920TIP3   OH214723   4.168   1.762   5.669 -0.1407 -0.0820  0.1541
 4920TIP3    H114724   4.081   1.759   5.629 -0.5929 -0.6183  1.1343
 4920TIP3    H214725   4.155   1.727   5.757  1.0495 -0.0420  0.3627
 4921TIP3   OH214726   0.873   3.009   5.195 -0.3997  0.0761  0.0270
 4921TIP3    H114727   0.859   3.014   5.290  0.6631  1.1035  0.1556
 4921TIP3    H214728   0.842   3.094   5.162  0.1080  0.0970 -0.4126
 4922TIP3   OH214729   3.476   2.485   2.598  0.0536 -0.2679  0.1960
 4922TIP3    H114730   3.459   2.456   2.508 -0.6119 -1.7504  0.7720
 4922TIP3    H214731   3.481   2.404   2.649  0.3981  0.5499  1.5109
 4923TIP3   OH214732   5.510   6.668   5.632 -0.2891  0.2879 -0.2400
 4923TIP3    H114733   5.579   6.722   5.670 -0.5003 -0.4554  1.2444
 4923TIP3    H214734   5.435   6.679   5.690 -1.4708  1.0828 -1.8305
 4924TIP3   OH214735   6.548   3.939   4.097  0.3471 -0.4164  0.0961
 4924TIP3    H114736   6.517   3.982   4.176  1.8326 -1.1379  1.1341
 4924TIP3    H214737   6.471   3.896   4.061 -0.7464  1.4388  0.1083
 4925TIP3   OH214738   0.372   0.153   3.075  0.6984 -0.3876 -0.1101
 4925TIP3    H114739   0.394   0.193   3.159 -0.5829 -0.5963  0.3493
 4925TIP3    H214740   0.428   0.198   3.012 -0.5187  2.0337  0.3963
 4926TIP3   OH214741   4.693   4.546   0.460  0.1152  0.5126 -0.1063
 4926TIP3    H114742   4.706   4.637   0.487 -0.4724  0.5212  0.1772
 4926TIP3    H214743   4.724   4.543   0.370 -1.4935  1.4524 -0.7434
 4927TIP3   OH214744   4.205   4.098   3.378  0.1534 -0.3452  0.4645
 4927TIP3    H114745   4.225   4.046   3.456 -0.6276 -0.4645  0.5873
 4927TIP3    H214746   4.291   4.123   3.344  0.5058  0.9655  2.1913
 4928TIP3   OH214747   1.234   2.694   0.921 -0.0196  0.7898  0.7760
 4928TIP3    H114748   1.302   2.662   0.980 -0.2954 -0.7756  0.2709
 4928TIP3    H214749   1.251   2.651   0.837 -2.2905 -0.6114  0.9432
 4929TIP3   OH214750   6.892   4.662   4.364  0.1107 -0.6711  0.3144
 4929TIP3    H114751   6.915   4.750   4.393 -0.6928 -0.2344 -0.3234
 4929TIP3    H214752   6.955   4.642   4.295 -1.6502  0.7738 -1.8687
 4930TIP3   OH214753   1.562   1.421   2.069 -0.4940 -0.3204  0.2019
 4930TIP3    H114754   1.552   1.326   2.071 -0.1569 -0.3521  0.3618
 4930TIP3    H214755   1.482   1.452   2.025 -1.7521 -0.4953  2.2499
 4931TIP3   OH214756   2.318   0.729   2.732 -0.3565 -0.7147 -0.0333
 4931TIP3    H114757   2.361   0.788   2.670  1.5962 -0.4501  1.4797
 4931TIP3    H214758   2.240   0.777   2.759 -0.0632  0.1253 -0.6372
 4932TIP3   OH214759   2.606   6.718   4.953 -0.1127  0.1289 -0.3383
 4932TIP3    H114760   2.524   6.755   4.921 -1.2930 -1.1380  1.0974
 4932TIP3    H214761   2.590   6.697   5.044  1.0521 -2.2430 -0.5927
 4933TIP3   OH214762   5.084   4.884   1.330 -0.8109  0.1297  0.6883
 4933TIP3    H114763   5.085   4.864   1.237 -0.7298 -0.4456  0.8091
 4933TIP3    H214764   5.044   4.971   1.336 -2.5499 -0.6095  0.2652
 4934TIP3   OH214765   6.604   6.465   2.778  0.1285 -0.4310  0.2567
 4934TIP3    H114766   6.627   6.521   2.853 -1.5884 -0.6362  0.9785
 4934TIP3    H214767   6.638   6.379   2.801  0.5879 -0.2546  0.2655
 4935TIP3   OH214768   0.652   6.327   2.431 -0.1915 -0.4789  0.2650
 4935TIP3    H114769   0.604   6.346   2.512 -2.5854  0.0788 -1.1981
 4935TIP3    H214770   0.667   6.233   2.435 -1.3886 -0.6717  0.8058
 4936TIP3   OH214771   4.153   5.586   3.185  0.1064  0.7399  0.1216
 4936TIP3    H114772   4.101   5.540   3.251 -1.1560  1.6829 -0.1872
 4936TIP3    H214773   4.243   5.557   3.201 -0.7152 -2.7683 -0.7959
 4937TIP3   OH214774   3.237   5.188   0.155  0.2654 -0.3383  0.0057
 4937TIP3    H114775   3.201   5.112   0.111 -0.1029 -0.3910  0.3932
 4937TIP3    H214776   3.274   5.242   0.085 -0.4663 -0.3370 -0.3824
 4938TIP3   OH214777   2.185   6.453   0.893 -0.4612 -0.1374 -0.5213
 4938TIP3    H114778   2.257   6.447   0.831 -2.3230 -1.7528 -2.6889
 4938TIP3    H214779   2.131   6.524   0.860 -0.2350  0.6290  0.7077
 4939TIP3   OH214780   1.819   2.523   1.901 -0.0439 -0.8880  0.3524
 4939TIP3    H114781   1.770   2.491   1.977 -1.5180 -0.8191 -0.5278
 4939TIP3    H214782   1.810   2.618   1.906  0.8358 -0.8162  0.7068
 4940TIP3   OH214783   5.445   3.666   2.097 -0.2618 -0.0907 -0.3936
 4940TIP3    H114784   5.448   3.756   2.131  0.8334 -0.1054 -0.4183
 4940TIP3    H214785   5.458   3.676   2.003  0.1266 -0.2843 -0.3630
 4941TIP3   OH214786   3.241   5.956   5.470  0.3195  0.3389  0.1374
 4941TIP3    H114787   3.281   5.956   5.383 -0.5214  0.8955 -0.2589
 4941TIP3    H214788   3.294   5.894   5.520  0.7906 -0.0227 -0.7788
 4942TIP3   OH214789   1.514   3.928   1.070  0.0030 -0.6373  0.1277
 4942TIP3    H114790   1.445   3.950   1.007  0.5899 -0.9836 -0.6544
 4942TIP3    H214791   1.488   3.972   1.151 -1.1792 -0.8381 -0.1299
 4943TIP3   OH214792   0.775   6.515   1.477 -0.3367 -0.1320 -0.2663
 4943TIP3    H114793   0.822   6.439   1.443  0.4401 -0.2602  1.0538
 4943TIP3    H214794   0.713   6.479   1.540  1.5799  0.4305  2.0818
 4944TIP3   OH214795   3.081   3.804   1.172 -0.4142  0.2216  0.2883
 4944TIP3    H114796   3.041   3.719   1.187  0.7084 -0.1611  1.1959
 4944TIP3    H214797   3.014   3.867   1.201 -0.5378 -0.3915  1.3787
 4945TIP3   OH214798   3.608   0.831   4.816 -0.5772 -0.2198 -0.2039
 4945TIP3    H114799   3.586   0.745   4.781  0.3717 -1.2891  1.6796
 4945TIP3    H214800   3.525   0.878   4.820 -1.2227 -1.3038 -0.5957
 4946TIP3   OH214801   6.956   3.912   0.564  0.4800 -0.4229  0.3794
 4946TIP3    H114802   6.890   3.859   0.520  1.2741 -1.1064 -0.0095
 4946TIP3    H214803   6.934   4.002   0.540 -0.0301 -0.6760 -0.1221
 4947TIP3   OH214804   6.290   1.352   0.498 -0.6004 -0.5242 -0.2694
 4947TIP3    H114805   6.360   1.408   0.465  1.6489 -1.4816  2.5462
 4947TIP3    H214806   6.211   1.405   0.488  0.7348  1.3020 -1.9297
 4948TIP3   OH214807   3.269   2.145   3.640 -0.3830  0.1224  0.0517
 4948TIP3    H114808   3.247   2.086   3.568  1.7992  1.4460 -1.8592
 4948TIP3    H214809   3.323   2.213   3.599  0.7894  1.0742  2.9197
 4949TIP3   OH214810   2.264   5.767   2.923 -0.1943 -0.1327 -0.7708
 4949TIP3    H114811   2.328   5.799   2.987 -0.8100 -0.6572  0.1276
 4949TIP3    H214812   2.306   5.782   2.838  0.0542  1.9129 -0.3466
 4950TIP3   OH214813   1.733   0.368   3.384  0.1581  0.1658 -0.0321
 4950TIP3    H114814   1.752   0.462   3.378  0.6484  0.1135  0.6411
 4950TIP3    H214815   1.812   0.330   3.422 -0.6421 -0.2785  1.2691
 4951TIP3   OH214816   6.279   5.952   0.611  0.6765  0.4718  0.7010
 4951TIP3    H114817   6.288   5.857   0.620 -0.1609  0.4982  2.0909
 4951TIP3    H214818   6.205   5.963   0.552  0.8973  0.2710  0.3791
 4952TIP3   OH214819   6.526   6.616   4.032  0.0569 -0.1103  0.2391
 4952TIP3    H114820   6.463   6.552   3.999  0.1569 -0.1386  0.1048
 4952TIP3    H214821   6.594   6.621   3.965  0.5536 -0.5978  0.6891
 4953TIP3   OH214822   4.013   5.331   2.262  0.3326 -0.0112 -0.8999
 4953TIP3    H114823   3.997   5.399   2.327  1.5354  1.3339 -1.9445
 4953TIP3    H214824   3.927   5.313   2.224 -0.7188 -2.0428  2.1021
 4954TIP3   OH214825   2.711   0.691   2.390 -0.4453  0.0747 -0.0097
 4954TIP3    H114826   2.702   0.786   2.376 -1.4760  0.0733  0.5790
 4954TIP3    H214827   2.805   0.675   2.382  0.2535  1.6982  3.2732
 4955TIP3   OH214828   5.655   2.721   0.893 -0.2135  0.1208  0.7010
 4955TIP3    H114829   5.664   2.680   0.807  0.5383  1.8338 -0.0925
 4955TIP3    H214830   5.726   2.683   0.945 -0.6571 -0.9098  0.5801
 4956TIP3   OH214831   6.319   1.259   2.685  0.0495  0.2366 -0.7340
 4956TIP3    H114832   6.341   1.306   2.605  0.0905  0.1453 -0.7752
 4956TIP3    H214833   6.228   1.285   2.703  0.5724  1.5723  0.1019
 4957TIP3   OH214834   3.072   0.345   0.911 -0.8343 -0.0298 -0.3286
 4957TIP3    H114835   3.011   0.321   0.841 -0.5664 -1.9676  0.0611
 4957TIP3    H214836   3.050   0.286   0.983  0.1966  0.6007  0.5289
 4958TIP3   OH214837   6.598   3.941   2.004  0.0108  0.6470 -0.0398
 4958TIP3    H114838   6.635   4.023   2.036  2.8100 -0.4734 -0.1300
 4958TIP3    H214839   6.638   3.928   1.918  0.5434 -1.3150  0.4435
 4959TIP3   OH214840   4.901   2.026   1.718 -0.2959 -0.2623 -0.1646
 4959TIP3    H114841   4.822   2.040   1.771 -0.9024 -0.4685 -0.9901
 4959TIP3    H214842   4.934   2.115   1.701 -0.1913 -0.1891  0.4236
 4960TIP3   OH214843   6.014   1.164   3.464  0.4953 -0.1207  0.2938
 4960TIP3    H114844   6.091   1.112   3.439 -0.0955 -1.4412  1.1006
 4960TIP3    H214845   5.964   1.174   3.383  1.4464  0.6684 -0.2175
 4961TIP3   OH214846   4.306   3.977   3.584 -0.0570 -0.1073  0.1059
 4961TIP3    H114847   4.259   3.922   3.647  0.4402  0.0457  0.6248
 4961TIP3    H214848   4.391   3.934   3.573 -0.6707 -0.9408 -1.6017
 4962TIP3   OH214849   2.704   4.556   2.369  0.0998  0.1302 -0.6359
 4962TIP3    H114850   2.797   4.533   2.376  0.0986  0.0702 -0.8084
 4962TIP3    H214851   2.681   4.588   2.455  0.0346 -0.7575 -0.3109
 4963TIP3   OH214852   3.967   0.828   3.145  0.0338 -0.7506  0.2768
 4963TIP3    H114853   3.877   0.795   3.140 -0.8492  1.3542  0.8851
 4963TIP3    H214854   3.957   0.923   3.145  2.3233 -0.4513 -0.1813
 4964TIP3   OH214855   5.945   2.095   2.023  0.4456 -0.3346  0.0681
 4964TIP3    H114856   5.856   2.068   2.045  0.3970 -0.1023  0.1672
 4964TIP3    H214857   5.961   2.059   1.936  0.1190 -0.0653 -0.1062
 4965TIP3   OH214858   2.112   2.477   4.721  0.2436 -0.0483 -0.2342
 4965TIP3    H114859   2.179   2.414   4.695 -0.3203 -0.7416 -0.0446
 4965TIP3    H214860   2.158   2.560   4.729  0.4634  0.2383 -3.4006
 4966TIP3   OH214861   1.461   5.624   1.096  0.1224  0.1590  0.1614
 4966TIP3    H114862   1.501   5.650   1.013 -0.1286 -0.3602 -0.1243
 4966TIP3    H214863   1.457   5.705   1.147 -1.9912  1.0200 -1.2598
 4967TIP3   OH214864   1.870   2.934   3.861 -0.1724  0.5100  0.0405
 4967TIP3    H114865   1.919   2.852   3.865 -0.3814  0.3654 -0.3019
 4967TIP3    H214866   1.877   2.971   3.949 -1.7789 -0.8554  0.7926
 4968TIP3   OH214867   4.871   0.231   3.531  0.6318  0.2319 -0.0092
 4968TIP3    H114868   4.909   0.269   3.610  1.5170 -0.2449 -0.1979
 4968TIP3    H214869   4.942   0.232   3.467  0.5181 -1.1797 -0.1979
 4969TIP3   OH214870   3.862   4.851   3.349 -0.5182  0.2442 -0.0908
 4969TIP3    H114871   3.886   4.798   3.425 -0.8073 -0.6628 -0.6167
 4969TIP3    H214872   3.849   4.787   3.278 -1.0768  0.9993 -0.6859
 4970TIP3   OH214873   6.893   2.690   1.629 -0.2951 -0.4953  0.1066
 4970TIP3    H114874   6.905   2.770   1.680 -2.8764  0.9906 -1.3686
 4970TIP3    H214875   6.929   2.711   1.543 -1.3700 -0.7195 -0.4176
 4971TIP3   OH214876   3.517   6.193   0.006 -0.8062  0.6399  0.1110
 4971TIP3    H114877   3.474   6.253  -0.055 -1.0789  0.6366  0.2974
 4971TIP3    H214878   3.579   6.249   0.055 -0.2400  0.5504 -0.4959
 4972TIP3   OH214879   5.468   0.785   3.648 -0.0280  0.1100 -0.2751
 4972TIP3    H114880   5.535   0.802   3.715  0.1603  0.4634 -0.5548
 4972TIP3    H214881   5.389   0.826   3.683 -0.1996 -0.6157  0.2273
 4973TIP3   OH214882   4.851   4.090   0.959  0.3805  0.3944 -0.2897
 4973TIP3    H114883   4.858   4.036   1.038 -1.7115 -0.1672 -0.4290
 4973TIP3    H214884   4.932   4.072   0.911  0.3031 -1.7034  0.2553
 4974TIP3   OH214885   0.809   4.462   2.075  0.2093 -0.0691 -0.1256
 4974TIP3    H114886   0.732   4.424   2.032  0.1971 -1.5323  1.1314
 4974TIP3    H214887   0.783   4.470   2.167  1.3481  0.0316  0.1946
 4975TIP3   OH214888   0.157   3.681   2.083 -0.0685 -0.0563  0.4847
 4975TIP3    H114889   0.223   3.749   2.072  0.3597 -0.5108  0.1717
 4975TIP3    H214890   0.118   3.698   2.168  1.0993 -0.3332  1.0916
 4976TIP3   OH214891   5.648   0.033   1.038  0.2473  0.6281 -0.4326
 4976TIP3    H114892   5.658   0.106   0.977  2.3828  0.4093 -0.4011
 4976TIP3    H214893   5.737   0.012   1.065 -0.5377 -0.1525  1.7515
 4977TIP3   OH214894   3.744   4.429   0.113 -0.0956 -0.2781 -0.3484
 4977TIP3    H114895   3.666   4.485   0.120 -0.4758 -0.9454  1.2899
 4977TIP3    H214896   3.719   4.362   0.050 -1.9166 -1.9692  1.9527
 4978TIP3   OH214897   0.769   6.636   5.189  0.2804  0.4135  0.4108
 4978TIP3    H114898   0.725   6.654   5.106  0.6249 -0.7700 -0.0555
 4978TIP3    H214899   0.704   6.658   5.256 -0.7366 -0.4847 -0.2347
 4979TIP3   OH214900   6.478   6.330   0.920  0.1794  0.4952  0.1015
 4979TIP3    H114901   6.434   6.248   0.899 -0.6642  0.8306  0.4995
 4979TIP3    H214902   6.545   6.339   0.853  0.4614 -0.6519  0.2138
 4980TIP3   OH214903   2.667   6.371   1.615 -0.0485 -0.4790  0.4258
 4980TIP3    H114904   2.593   6.425   1.646 -0.7546 -1.3397  0.2860
 4980TIP3    H214905   2.642   6.346   1.526  1.7258  1.5500 -0.7496
 4981TIP3   OH214906   6.288   6.765   4.176  0.2109 -0.7045  0.5475
 4981TIP3    H114907   6.302   6.770   4.081  0.6904 -0.1362  0.6459
 4981TIP3    H214908   6.315   6.676   4.200  0.5463 -0.6890  0.2262
 4982TIP3   OH214909   4.901   4.431   5.838 -0.4342  0.4441  0.1340
 4982TIP3    H114910   4.852   4.461   5.914  1.4390 -1.2418  2.1572
 4982TIP3    H214911   4.966   4.499   5.823  0.6487 -0.2179  1.5709
 4983TIP3   OH214912   1.293   6.521   2.972 -0.5285  0.0306  0.7553
 4983TIP3    H114913   1.223   6.484   2.918  0.5855  0.2490 -0.9089
 4983TIP3    H214914   1.340   6.445   3.006 -1.2116 -0.1068  1.4298
 4984TIP3   OH214915   0.320   1.319   0.977 -0.0426 -1.3340  0.7530
 4984TIP3    H114916   0.371   1.297   1.055 -1.4611 -3.1456  1.2490
 4984TIP3    H214917   0.282   1.404   0.995  1.5133 -0.6582  1.0128
 4985TIP3   OH214918   1.914   4.117   0.860  0.3816 -0.8045  0.0481
 4985TIP3    H114919   1.968   4.074   0.927 -1.2853  0.0682  2.0461
 4985TIP3    H214920   1.833   4.066   0.857  0.5051 -0.9587 -1.5189
 4986TIP3   OH214921   5.093   5.719   4.114  0.3739  0.4600 -0.9770
 4986TIP3    H114922   5.087   5.704   4.019 -2.1465 -0.7898 -0.6999
 4986TIP3    H214923   5.008   5.692   4.148  1.0136  1.4273  1.6065
 4987TIP3   OH214924   2.172   3.196   1.981 -0.4182 -0.6905 -0.2013
 4987TIP3    H114925   2.078   3.184   1.970 -0.6853 -0.1776  1.3428
 4987TIP3    H214926   2.206   3.107   1.989 -0.6593 -0.9115 -1.4083
 4988TIP3   OH214927   0.677   3.454   5.812  0.3100  0.0064 -0.0504
 4988TIP3    H114928   0.680   3.549   5.814  0.9837 -0.0304  0.7171
 4988TIP3    H214929   0.685   3.432   5.719  0.0834  0.6916 -0.2379
 4989TIP3   OH214930   3.417   4.449   1.343  0.1691  0.0864  0.3697
 4989TIP3    H114931   3.373   4.393   1.407  0.9117  0.7352  1.4767
 4989TIP3    H214932   3.481   4.392   1.300  0.4016 -0.1005  0.9587
 4990TIP3   OH214933   0.186   4.540   1.457  0.0923  0.1089 -0.0109
 4990TIP3    H114934   0.244   4.575   1.525 -0.6308  1.0122  0.1609
 4990TIP3    H214935   0.169   4.614   1.399  0.9017 -0.7173 -1.3458
 4991TIP3   OH214936   7.071   3.142   1.510  0.2355  0.1652 -0.1036
 4991TIP3    H114937   7.150   3.121   1.461 -0.4399 -1.1964 -0.6528
 4991TIP3    H214938   7.074   3.085   1.586 -1.4624 -1.8620 -1.4494
 4992TIP3   OH214939   6.225   4.814   0.195  0.2756  0.7347 -0.4585
 4992TIP3    H114940   6.164   4.854   0.133  1.2327  0.4696 -1.5848
 4992TIP3    H214941   6.186   4.729   0.216  0.4837  0.3658 -1.5370
 4993TIP3   OH214942   2.743   3.449   4.823  0.2387 -1.3935 -0.1891
 4993TIP3    H114943   2.703   3.523   4.868  1.5898 -0.7763  0.0442
 4993TIP3    H214944   2.834   3.449   4.853  1.4010 -0.5540 -3.3498
 4994TIP3   OH214945   6.054   2.499   4.504  0.4437 -0.2250 -0.2619
 4994TIP3    H114946   6.135   2.450   4.518  1.1853  1.1207  0.4120
 4994TIP3    H214947   6.075   2.589   4.531 -1.3888  0.0857  0.2746
 4995TIP3   OH214948   3.143   6.105   3.950 -0.1133  0.3090 -0.3539
 4995TIP3    H114949   3.189   6.128   3.869 -1.8357  1.2999 -1.1032
 4995TIP3    H214950   3.188   6.154   4.019  0.3031  0.7969 -0.9692
 4996TIP3   OH214951   1.277   6.110   1.882  0.4249  0.1358  0.2205
 4996TIP3    H114952   1.326   6.049   1.827  0.5643 -0.1058  0.6101
 4996TIP3    H214953   1.232   6.168   1.820 -0.0261 -0.6084 -0.1654
 4997TIP3   OH214954   1.237   6.612   4.876 -0.0662  0.2227  0.4246
 4997TIP3    H114955   1.289   6.572   4.806 -0.3647  1.9021 -0.8356
 4997TIP3    H214956   1.264   6.704   4.876 -2.0937  0.8636  0.5911
 4998TIP3   OH214957   2.556   0.315   5.251  0.5196 -0.0913 -0.1624
 4998TIP3    H114958   2.592   0.231   5.279  0.9776  0.5233  1.1545
 4998TIP3    H214959   2.513   0.295   5.168  1.3921 -1.4394 -0.3355
 4999TIP3   OH214960   5.900   4.358   2.399 -0.3686 -0.5889 -0.5465
 4999TIP3    H114961   5.845   4.361   2.477 -1.0040 -0.5006 -0.9963
 4999TIP3    H214962   5.939   4.446   2.393 -0.8643 -0.3819 -0.7213
 5000TIP3   OH214963   3.796   2.886   3.862 -0.8435  0.3446  0.2499
 5000TIP3    H114964   3.716   2.914   3.905 -1.2223  0.0172 -0.2322
 5000TIP3    H214965   3.773   2.805   3.817 -0.1879  0.1284  0.2809
 5001TIP3   OH214966   0.178   0.637   4.409 -0.4599 -0.0205  0.0430
 5001TIP3    H114967   0.219   0.713   4.367 -0.8507  0.3351  0.2988
 5001TIP3    H214968   0.093   0.629   4.366 -0.1301 -0.7627 -0.4903
 5002TIP3   OH214969   4.844   0.188   1.539 -0.1855 -0.6578  0.0868
 5002TIP3    H114970   4.771   0.234   1.580  0.2459 -0.1515  0.2974
 5002TIP3    H214971   4.843   0.217   1.448  1.0774  1.0798  0.5750
 5003TIP3   OH214972   4.088   6.153   3.202 -0.2206 -0.0537 -0.1822
 5003TIP3    H114973   4.048   6.213   3.140  0.0181  0.3395  0.0400
 5003TIP3    H214974   4.031   6.155   3.279 -1.4459 -1.7988 -0.9729
 5004TIP3   OH214975   2.590   5.225   4.448 -0.5453  0.2721 -0.8857
 5004TIP3    H114976   2.544   5.142   4.459 -1.4456  0.9055  0.5335
 5004TIP3    H214977   2.522   5.292   4.457  0.4265  1.2063 -0.1514
 5005TIP3   OH214978   5.781   1.636   1.862  0.0214  0.3739 -0.2095
 5005TIP3    H114979   5.779   1.637   1.766 -1.2808 -0.4967 -0.2156
 5005TIP3    H214980   5.721   1.707   1.888  0.0774  0.3626 -0.0477
 5006TIP3   OH214981   1.653   6.292   2.081  0.3557  0.3808 -0.0554
 5006TIP3    H114982   1.633   6.255   1.994 -0.3031  0.6424 -0.0250
 5006TIP3    H214983   1.578   6.349   2.100  0.5186  0.3623  0.6675
 5007TIP3   OH214984   3.797   5.144   2.468  0.4778 -0.7629  0.3000
 5007TIP3    H114985   3.892   5.155   2.471  0.4502 -0.5653  0.4957
 5007TIP3    H214986   3.765   5.201   2.539  0.2199 -0.8709  0.2678
 5008TIP3   OH214987   5.775   0.332   2.627 -0.0789 -0.6657  0.2009
 5008TIP3    H114988   5.836   0.362   2.694 -0.7705 -0.1797  0.6283
 5008TIP3    H214989   5.690   0.368   2.654 -0.3956 -0.6017 -0.8451
 5009TIP3   OH214990   5.481   3.068   0.041  0.1145  0.3959  0.0581
 5009TIP3    H114991   5.489   3.147   0.094 -2.0653 -0.3197  1.6249
 5009TIP3    H214992   5.386   3.056   0.031  0.2395 -3.0937  1.6941
 5010TIP3   OH214993   1.085   4.042   5.423  0.2527  0.4399 -0.7337
 5010TIP3    H114994   1.112   3.954   5.447  1.8106  1.2017  0.4321
 5010TIP3    H214995   0.995   4.031   5.392  0.6812 -1.6644 -1.4334
 5011TIP3   OH214996   3.827   6.076   4.259 -0.0388 -0.0002 -0.3813
 5011TIP3    H114997   3.774   5.997   4.260  0.6555 -0.5022 -1.1921
 5011TIP3    H214998   3.764   6.148   4.252 -0.6415 -0.5307 -0.4405
 5012TIP3   OH214999   4.274   0.526   5.438 -0.3451 -0.1646  0.3251
 5012TIP3    H115000   4.335   0.599   5.451  0.0210 -0.7140  1.9517
 5012TIP3    H215001   4.231   0.545   5.355  0.0790  1.6615  0.4829
 5013TIP3   OH215002   3.685   1.907   3.297  0.4008  0.1342  0.2886
 5013TIP3    H115003   3.758   1.945   3.249 -0.9472  0.9358 -1.2142
 5013TIP3    H215004   3.724   1.836   3.348  2.1271  0.1639 -0.9202
 5014TIP3   OH215005   6.292   1.889   2.883  0.3395  0.7425 -0.4316
 5014TIP3    H115006   6.209   1.923   2.848  0.4307  5.0628  2.7336
 5014TIP3    H215007   6.266   1.825   2.948 -0.5647  1.6472  0.1294
 5015TIP3   OH215008   6.322   5.612   4.879  0.3354  0.0944 -0.4244
 5015TIP3    H115009   6.352   5.690   4.832  0.8995 -1.0728 -2.1017
 5015TIP3    H215010   6.382   5.603   4.953  0.6099  0.9134 -0.5404
 5016TIP3   OH215011   5.197   2.895   2.617  0.0795  0.0047  0.0697
 5016TIP3    H115012   5.122   2.895   2.676  0.5837  2.4472  0.8213
 5016TIP3    H215013   5.273   2.881   2.674  0.3140 -1.3881 -0.5424
 5017TIP3   OH215014   4.417   1.982   2.644 -0.3423 -0.4874 -0.0564
 5017TIP3    H115015   4.336   2.027   2.621 -1.0996 -1.0845  1.3091
 5017TIP3    H215016   4.486   2.033   2.601 -1.0605  2.5235  1.9874
 5018TIP3   OH215017   6.272   3.910   0.170 -0.1886 -0.4585 -0.3040
 5018TIP3    H115018   6.346   3.863   0.132  0.0939  1.5941 -2.5954
 5018TIP3    H215019   6.294   3.921   0.262  2.3524 -0.0120 -0.9081
 5019TIP3   OH215020   5.221   5.232   2.250 -0.2954 -0.3142 -0.0834
 5019TIP3    H115021   5.269   5.170   2.196  1.0565  0.8229 -0.2448
 5019TIP3    H215022   5.286   5.264   2.313 -1.1280  0.4569  0.4068
 5020TIP3   OH215023   7.009   4.519   1.755 -0.1213 -0.0552  0.2480
 5020TIP3    H115024   6.999   4.580   1.829  0.0167  0.3339 -0.0495
 5020TIP3    H215025   6.977   4.568   1.679 -0.1226 -0.3998  0.0255
 5021TIP3   OH215026   7.220   4.951   2.212 -0.1640 -0.6384  0.5132
 5021TIP3    H115027   7.227   4.868   2.165  1.3065  0.1605 -0.7618
 5021TIP3    H215028   7.126   4.964   2.224 -0.5456 -1.2786 -1.5016
 5022TIP3   OH215029   2.803   2.321   5.658 -0.5697 -0.3407 -0.2167
 5022TIP3    H115030   2.813   2.229   5.683 -1.0526 -0.0127  1.2587
 5022TIP3    H215031   2.847   2.327   5.573  0.2268 -1.7396  0.0615
 5023TIP3   OH215032   4.572   4.981   4.226  0.3949  0.0398 -0.1809
 5023TIP3    H115033   4.514   4.986   4.150  1.6035 -1.6822 -1.3106
 5023TIP3    H215034   4.539   4.907   4.277  0.2698  0.4675  0.3633
 5024TIP3   OH215035   5.357   3.578   2.627 -0.4097 -0.0010  0.0184
 5024TIP3    H115036   5.313   3.578   2.712  0.2856  2.1787  0.4539
 5024TIP3    H215037   5.289   3.601   2.564 -0.5940  0.0498  0.2361
 5025TIP3   OH215038   3.731   2.881   2.494 -0.2680  0.3645 -0.0134
 5025TIP3    H115039   3.809   2.926   2.462 -1.3643  3.0187  0.8013
 5025TIP3    H215040   3.763   2.829   2.568  0.9297  0.3849 -0.4899
 5026TIP3   OH215041   5.807   6.748   2.654 -0.3050  0.1210 -0.2274
 5026TIP3    H115042   5.882   6.749   2.594 -0.6584  0.3123 -0.6692
 5026TIP3    H215043   5.844   6.774   2.738  0.2237 -0.2911 -0.3239
 5027TIP3   OH215044   7.040   2.322   5.824  0.1914 -0.5489 -0.6805
 5027TIP3    H115045   7.038   2.261   5.750 -2.0949 -0.1757 -0.9950
 5027TIP3    H215046   7.064   2.407   5.785  2.2975 -0.9505 -0.4061
 5028TIP3   OH215047   5.991   6.636   3.418 -0.0787 -0.4601  0.3932
 5028TIP3    H115048   5.914   6.608   3.467  0.3685 -1.3257  0.6093
 5028TIP3    H215049   6.062   6.638   3.482  0.1795 -0.1064  0.1003
 5029TIP3   OH215050   4.153   5.368   3.843  0.0035  0.6606  0.2919
 5029TIP3    H115051   4.116   5.325   3.920  1.7512 -0.5805  0.4946
 5029TIP3    H215052   4.116   5.320   3.769 -1.9424  2.0681  0.2763
 5030TIP3   OH215053   1.519   6.114   4.320 -0.2770 -0.0918 -0.4802
 5030TIP3    H115054   1.473   6.030   4.325  1.1523 -0.8445  0.7582
 5030TIP3    H215055   1.454   6.174   4.286 -1.2395 -1.7763 -1.7888
 5031TIP3   OH215056   1.007   4.927   1.008 -0.3216 -0.8551 -0.4352
 5031TIP3    H115057   0.940   4.993   0.988 -1.3648 -1.9222 -0.5700
 5031TIP3    H215058   1.055   4.916   0.926  0.8228  0.7596 -0.0310
 5032TIP3   OH215059   2.482   2.456   4.232 -0.3390 -0.2759  0.1810
 5032TIP3    H115060   2.507   2.402   4.157 -1.3593 -0.1120 -0.2887
 5032TIP3    H215061   2.544   2.530   4.229  0.0252 -0.5877 -0.1235
 5033TIP3   OH215062   2.611   5.684   4.572 -0.3065 -0.1128  0.4638
 5033TIP3    H115063   2.547   5.620   4.541 -0.0789 -0.1606  0.0792
 5033TIP3    H215064   2.585   5.703   4.662 -1.7795  1.0395 -0.1698
 5034TIP3   OH215065   1.566   2.510   3.083 -0.0714  0.4634 -0.6197
 5034TIP3    H115066   1.488   2.531   3.033  0.0062  3.8052  0.4601
 5034TIP3    H215067   1.631   2.485   3.018 -1.7196 -1.7248 -1.5783
 5035TIP3   OH215068   3.051   6.737   2.638  0.2696 -0.0197  0.1423
 5035TIP3    H115069   3.031   6.765   2.728  1.8967 -0.9901  0.8718
 5035TIP3    H215070   3.110   6.662   2.650  1.6400  0.6881 -1.7531
 5036TIP3   OH215071   1.029   3.395   1.792  0.0600 -0.0037 -0.1785
 5036TIP3    H115072   1.070   3.318   1.832  1.0364  1.0242  0.9076
 5036TIP3    H215073   0.953   3.361   1.746  0.7214 -1.6745 -0.1184
 5037TIP3   OH215074   3.040   4.275   0.309 -0.7569  0.7248 -0.1003
 5037TIP3    H115075   3.069   4.366   0.317 -0.2229  0.5921 -0.4875
 5037TIP3    H215076   2.945   4.278   0.325 -0.8195  1.4148 -0.5991
 5038TIP3   OH215077   2.426   5.568   4.132 -0.0152  0.5333 -0.0154
 5038TIP3    H115078   2.359   5.527   4.078 -0.9011 -1.5839  2.4867
 5038TIP3    H215079   2.502   5.575   4.074 -1.7297  1.1607 -2.3373
 5039TIP3   OH215080   5.898   0.522   0.023  0.3550 -0.6732 -0.3925
 5039TIP3    H115081   5.815   0.483  -0.003 -0.0845  0.7748 -1.2538
 5039TIP3    H215082   5.897   0.518   0.119 -2.1965  2.1386 -0.1644
 5040TIP3   OH215083   0.321   3.705   3.179  0.1064  0.5672 -0.2972
 5040TIP3    H115084   0.263   3.716   3.254  0.8308  2.2749  0.0603
 5040TIP3    H215085   0.264   3.714   3.102 -0.5455 -0.6376  0.0286
 5041TIP3   OH215086   6.028   6.646   1.033  0.3034 -0.4716 -0.6241
 5041TIP3    H115087   5.981   6.571   1.069  1.1549 -0.9517 -0.4804
 5041TIP3    H215088   5.994   6.657   0.945  0.3632 -1.2048 -0.7406
 5042TIP3   OH215089   3.228   4.938   5.236  0.3154  0.3218 -0.5486
 5042TIP3    H115090   3.181   5.017   5.210 -0.3214 -0.2219 -1.0968
 5042TIP3    H215091   3.161   4.869   5.235  1.0461 -0.3988 -0.9718
 5043TIP3   OH215092   3.675   4.778   1.964 -0.6941  0.2464  0.0888
 5043TIP3    H115093   3.715   4.692   1.958  1.3248  1.1522 -0.1339
 5043TIP3    H215094   3.613   4.781   1.890  1.0692 -0.1210 -1.4740
 5044TIP3   OH215095   3.728   2.588   5.885 -0.4623 -0.3471 -1.1512
 5044TIP3    H115096   3.710   2.649   5.814  0.8025 -0.7522 -1.8613
 5044TIP3    H215097   3.823   2.596   5.900 -0.5599 -0.9027 -0.1010
 5045TIP3   OH215098   1.514   0.322   1.406  0.2696  0.7675 -0.3640
 5045TIP3    H115099   1.552   0.238   1.381 -0.4049  0.0425  0.9513
 5045TIP3    H215100   1.557   0.385   1.349  3.7330  0.0934  1.2956
 5046TIP3   OH215101   5.580   3.355   5.682  0.4557 -1.2204 -0.1062
 5046TIP3    H115102   5.496   3.389   5.653 -0.3453 -2.0517  1.1577
 5046TIP3    H215103   5.561   3.268   5.717  1.2242 -0.2782  3.0369
 5047TIP3   OH215104   3.260   4.311   5.783 -0.3483 -0.6941 -0.5235
 5047TIP3    H115105   3.201   4.285   5.854 -2.8306  0.5566 -1.9838
 5047TIP3    H215106   3.277   4.404   5.798  0.3491 -0.7837 -0.7267
 5048TIP3   OH215107   3.532   2.492   3.056  0.2112 -0.8916  0.9514
 5048TIP3    H115108   3.454   2.538   3.028  1.0187 -0.3150 -0.4344
 5048TIP3    H215109   3.583   2.558   3.103  0.4796 -0.9080  0.6819
 5049TIP3   OH215110   1.948   1.977   0.760 -0.4085  0.6727  0.2304
 5049TIP3    H115111   2.015   1.998   0.695  0.0696  1.4707  0.9556
 5049TIP3    H215112   1.927   1.885   0.744 -0.2963  0.8457 -1.0353
 5050TIP3   OH215113   6.886   2.623   0.224  0.2882 -0.2161 -0.0200
 5050TIP3    H115114   6.848   2.680   0.157  0.3223 -1.7417 -1.3867
 5050TIP3    H215115   6.950   2.679   0.269  1.3108  0.4828 -2.2220
 5051TIP3   OH215116   0.441   3.178   3.578 -0.0109 -0.1030  0.2263
 5051TIP3    H115117   0.409   3.108   3.634 -0.0472 -1.1814 -1.1120
 5051TIP3    H215118   0.535   3.180   3.594  0.3531 -1.9875 -1.3281
 5052TIP3   OH215119   1.412   6.395   4.308 -0.0325  0.6021  0.5687
 5052TIP3    H115120   1.326   6.431   4.291 -0.1362  0.6465  1.1782
 5052TIP3    H215121   1.422   6.399   4.403  0.7683  0.8942  0.4778
 5053TIP3   OH215122   1.020   4.156   4.943  0.2653 -0.4197 -0.0343
 5053TIP3    H115123   1.071   4.178   5.021 -0.7971  0.6590  0.3824
 5053TIP3    H215124   1.085   4.142   4.875  1.1632 -0.2739  0.7759
 5054TIP3   OH215125   3.038   6.217   1.095 -0.0348 -0.1331  0.8754
 5054TIP3    H115126   3.122   6.181   1.067  0.1733  0.0504  1.2564
 5054TIP3    H215127   2.979   6.141   1.098  0.4425 -0.4783  1.8458
 5055TIP3   OH215128   5.142   0.396   2.422  0.1045 -0.4038  0.1214
 5055TIP3    H115129   5.214   0.356   2.472  1.2228  0.7772 -0.5023
 5055TIP3    H215130   5.063   0.364   2.465  0.9871  1.2170  3.2381
 5056TIP3   OH215131   4.084   4.058   1.395  0.3734  0.0755 -0.2097
 5056TIP3    H115132   4.099   3.988   1.459  0.8225  0.1353 -0.2427
 5056TIP3    H215133   3.990   4.057   1.379 -0.0229  1.1784  1.7297
 5057TIP3   OH215134   5.246   0.551   3.356  0.3262 -0.2332  0.0578
 5057TIP3    H115135   5.176   0.581   3.299 -0.9443  1.4072  2.3251
 5057TIP3    H215136   5.314   0.618   3.348  0.9484 -0.9364 -0.8247
 5058TIP3   OH215137   1.366   6.269   2.792  0.4611 -0.3931 -0.0641
 5058TIP3    H115138   1.276   6.299   2.805  0.6481  0.1317  0.0604
 5058TIP3    H215139   1.410   6.345   2.753  0.9595 -0.4912  0.3130
 5059TIP3   OH215140   4.863   2.496   2.428  0.2444 -0.5421 -0.5315
 5059TIP3    H115141   4.800   2.567   2.436 -0.5650 -1.2423 -0.4846
 5059TIP3    H215142   4.941   2.527   2.474 -0.0133  0.3922 -0.7109
 5060TIP3   OH215143   5.114   3.306   2.941 -0.1632  0.1751  0.1026
 5060TIP3    H115144   5.052   3.323   3.012 -0.6388 -0.6666 -0.0979
 5060TIP3    H215145   5.066   3.330   2.861  0.2402  0.7772  0.0392
 5061TIP3   OH215146   5.394   3.017   0.518  0.4608 -0.1887 -0.5063
 5061TIP3    H115147   5.367   2.980   0.434 -0.9177 -0.0968 -0.1384
 5061TIP3    H215148   5.477   3.061   0.500  0.2817 -0.3316 -1.7722
 5062TIP3   OH215149   7.178   0.650   1.013 -0.8295 -0.1173 -0.3243
 5062TIP3    H115150   7.229   0.666   1.092  0.8923  0.6019 -1.5214
 5062TIP3    H215151   7.133   0.733   0.997 -0.6519 -0.0469 -0.4610
 5063TIP3   OH215152   1.643   4.280   4.023 -0.0107  0.0693 -0.4460
 5063TIP3    H115153   1.615   4.353   4.078  0.6021  0.1752 -0.2723
 5063TIP3    H215154   1.617   4.202   4.072  0.8195  0.1576  0.1552
 5064TIP3   OH215155   3.588   5.159   3.377  0.3097  0.2043  0.2162
 5064TIP3    H115156   3.499   5.155   3.414 -0.1359  1.0904 -0.7264
 5064TIP3    H215157   3.575   5.188   3.287  1.6474  1.4338  0.3903
 5065TIP3   OH215158   0.488   6.117   1.193  0.2465  0.2833 -0.0764
 5065TIP3    H115159   0.490   6.034   1.145 -2.4904 -0.4963  0.9851
 5065TIP3    H215160   0.480   6.184   1.125  0.3119 -0.4777 -0.8455
 5066TIP3   OH215161   2.217   5.720   2.474  0.6290  0.1179  0.5507
 5066TIP3    H115162   2.123   5.717   2.491  0.2472  1.2137 -1.1627
 5066TIP3    H215163   2.256   5.732   2.561 -0.9126  1.1662  1.1519
 5067TIP3   OH215164   7.032   2.550   5.700  0.1985 -0.1767 -0.7772
 5067TIP3    H115165   7.105   2.592   5.655  0.7554 -1.6769 -1.3350
 5067TIP3    H215166   6.973   2.523   5.630  0.3896 -1.2894 -0.5315
 5068TIP3   OH215167   2.323   6.148   4.572 -0.1615 -0.3891  0.1939
 5068TIP3    H115168   2.344   6.219   4.633 -1.9749 -0.6286  1.1589
 5068TIP3    H215169   2.395   6.149   4.508  0.2580  1.7876  0.6287
 5069TIP3   OH215170   5.210   5.401   0.127  0.5728 -0.1148 -0.3120
 5069TIP3    H115171   5.267   5.378   0.200 -0.4681 -0.3939  0.4255
 5069TIP3    H215172   5.166   5.320   0.104 -1.2474  0.5379  0.6588
 5070TIP3   OH215173   5.531   2.791   0.472  0.9685  1.1920  0.3414
 5070TIP3    H115174   5.443   2.766   0.499  0.5543  0.6094 -1.4206
 5070TIP3    H215175   5.540   2.882   0.502 -0.4166  1.4209  0.1482
 5071TIP3   OH215176   7.052   5.429   4.965  0.4177 -0.0022  0.3766
 5071TIP3    H115177   7.117   5.418   5.034 -0.5996 -1.1646  1.2005
 5071TIP3    H215178   7.053   5.346   4.917 -0.0976  0.1571  0.0818
 5072TIP3   OH215179   5.614   5.552   3.161  0.3012  0.3696  0.2682
 5072TIP3    H115180   5.548   5.569   3.229  0.8523  1.8954  0.4590
 5072TIP3    H215181   5.697   5.564   3.206  0.8132 -2.8855  0.3870
 5073TIP3   OH215182   5.733   5.258   5.156  0.1200 -0.0429  0.1430
 5073TIP3    H115183   5.685   5.333   5.190 -0.1389  0.3105 -0.9625
 5073TIP3    H215184   5.668   5.187   5.152 -0.0482  0.1332 -0.3322
 5074TIP3   OH215185   5.769   4.070   2.071 -0.4278 -0.1872 -0.6824
 5074TIP3    H115186   5.689   4.046   2.023  0.3743 -1.9291 -1.2185
 5074TIP3    H215187   5.738   4.101   2.156 -1.8092  1.7336 -1.7973
 5075TIP3   OH215188   1.913   6.605   4.348 -0.6230  0.1784  0.0719
 5075TIP3    H115189   1.969   6.591   4.424 -0.4978 -0.7753 -0.1856
 5075TIP3    H215190   1.833   6.556   4.368 -1.5635  1.8377  0.6130
 5076TIP3   OH215191   6.257   3.137   5.071 -0.2323 -0.2742  0.3881
 5076TIP3    H115192   6.258   3.082   5.149  0.1216  0.4613  0.9120
 5076TIP3    H215193   6.296   3.083   5.003 -1.7185 -1.3879  0.3842
 5077TIP3   OH215194   1.947   0.060   3.453 -0.1088 -0.1475 -0.6348
 5077TIP3    H115195   2.036   0.086   3.429  0.1404  0.4016  0.8363
 5077TIP3    H215196   1.911   0.024   3.371  0.1960  2.9391 -2.2705
 5078TIP3   OH215197   0.268   3.536   4.856 -0.5956 -0.0642 -0.0958
 5078TIP3    H115198   0.246   3.468   4.920  1.2707 -1.9084 -1.3065
 5078TIP3    H215199   0.190   3.543   4.801 -1.8277  0.7912  1.6360
 5079TIP3   OH215200   1.662   3.146   1.310  0.3852  0.1122  0.7766
 5079TIP3    H115201   1.670   3.241   1.322  1.6937 -0.2432  3.3610
 5079TIP3    H215202   1.568   3.132   1.301  0.2408  1.7316 -0.8797
 5080TIP3   OH215203   2.614   0.936   1.226 -0.5240  0.6703  0.3079
 5080TIP3    H115204   2.555   0.929   1.151 -0.5814 -0.4065  0.4328
 5080TIP3    H215205   2.560   0.909   1.301 -0.0444  0.2541  0.5093
 5081TIP3   OH215206   6.186   3.693   5.504 -0.0418 -0.0229  0.1243
 5081TIP3    H115207   6.190   3.724   5.414  3.3412 -0.9260 -0.1564
 5081TIP3    H215208   6.170   3.599   5.497 -1.6181  0.1837  0.5964
 5082TIP3   OH215209   0.809   1.179   1.543  0.7419 -0.4750  0.4303
 5082TIP3    H115210   0.862   1.122   1.599  0.5075  0.4328  1.6203
 5082TIP3    H215211   0.861   1.259   1.535  0.2748 -0.1873  0.2525
 5083TIP3   OH215212   5.498   3.793   5.442 -0.7713  0.1114 -0.1322
 5083TIP3    H115213   5.589   3.763   5.447 -0.7099  0.3581  0.4467
 5083TIP3    H215214   5.446   3.714   5.446 -0.5900  0.0070  0.2820
 5084TIP3   OH215215   6.978   3.258   2.605  0.5136  0.2510  0.0394
 5084TIP3    H115216   6.976   3.220   2.517  0.6379  2.0686 -0.8131
 5084TIP3    H215217   6.936   3.344   2.594  4.2342  2.4017  0.7261
 5085TIP3   OH215218   1.813   3.284   5.229  0.3101 -0.1248  0.8427
 5085TIP3    H115219   1.811   3.301   5.135  0.3509  0.2467  0.9081
 5085TIP3    H215220   1.871   3.208   5.239  0.4459 -0.0545  0.5846
 5086TIP3   OH215221   4.690   2.086   1.870 -0.0492 -0.4830  0.2915
 5086TIP3    H115222   4.605   2.043   1.875  0.1622 -0.8095  1.2040
 5086TIP3    H215223   4.669   2.180   1.871 -0.3450 -0.5087  2.6479
 5087TIP3   OH215224   2.664   2.809   2.592  0.5831 -0.2184 -0.1336
 5087TIP3    H115225   2.598   2.805   2.523 -0.0038 -0.1640  0.4182
 5087TIP3    H215226   2.677   2.902   2.607 -0.1727 -0.2306  0.6542
 5088TIP3   OH215227   6.525   5.236   4.557 -0.0422  0.2532 -0.1661
 5088TIP3    H115228   6.456   5.296   4.529 -1.4222 -0.7597  0.9673
 5088TIP3    H215229   6.480   5.166   4.604  1.4941 -1.8147 -1.5863
 5089TIP3   OH215230   3.871   4.946   5.620  0.5093  0.6322 -0.6296
 5089TIP3    H115231   3.949   4.982   5.663  0.5874  0.2857 -0.4778
 5089TIP3    H215232   3.863   4.857   5.655 -0.1861  0.8014 -0.3458
 5090TIP3   OH215233   6.605   1.197   0.662  0.0436 -0.0891 -0.6179
 5090TIP3    H115234   6.613   1.134   0.590 -1.9379  0.4352 -1.3625
 5090TIP3    H215235   6.629   1.281   0.623 -1.2635  0.2362 -0.7931
 5091TIP3   OH215236   3.382   0.119   3.171  0.3239  0.3003  0.1756
 5091TIP3    H115237   3.309   0.059   3.155 -0.2390  0.8149  0.7248
 5091TIP3    H215238   3.437   0.110   3.094 -0.3314 -0.0888 -0.2659
 5092TIP3   OH215239   0.832   0.120   0.288  0.0457  0.0334  0.4333
 5092TIP3    H115240   0.789   0.195   0.330 -1.0670 -0.4070  0.1244
 5092TIP3    H215241   0.780   0.105   0.209 -0.2479 -1.5703  0.8985
 5093TIP3   OH215242   0.869   2.244   4.799  0.2746  0.1664  0.1670
 5093TIP3    H115243   0.882   2.254   4.704  1.7355  3.9018  0.5875
 5093TIP3    H215244   0.783   2.283   4.815 -0.5163 -1.5326  0.3547
 5094TIP3   OH215245   3.780   0.253   2.952 -0.4548 -0.3260 -0.4437
 5094TIP3    H115246   3.759   0.239   3.045  0.0201  0.0973 -0.2682
 5094TIP3    H215247   3.874   0.238   2.947 -0.5460 -0.7377 -0.9388
 5095TIP3   OH215248   5.251   3.001   3.725  0.0203  0.2559 -0.4403
 5095TIP3    H115249   5.285   2.942   3.658  0.1138 -0.0875 -0.0949
 5095TIP3    H215250   5.299   3.083   3.712  1.1997 -0.3039  0.2140
 5096TIP3   OH215251   6.377   3.437   0.800 -0.2666 -0.1814  0.1682
 5096TIP3    H115252   6.367   3.489   0.880 -0.9509 -1.0973  0.7009
 5096TIP3    H215253   6.310   3.370   0.806  0.0739 -0.6480 -0.8909
 5097TIP3   OH215254   6.298   2.880   5.687  0.3987  0.9310  0.0847
 5097TIP3    H115255   6.274   2.886   5.780  1.0312  1.6460  0.2154
 5097TIP3    H215256   6.223   2.915   5.640 -1.6923 -3.0036  0.0052
 5098TIP3   OH215257   6.548   1.005   2.352  0.0202  0.5099  0.3920
 5098TIP3    H115258   6.562   0.981   2.443  1.0663 -0.0771  0.1017
 5098TIP3    H215259   6.632   0.987   2.309 -0.7118 -0.1200 -0.8702
 5099TIP3   OH215260   5.726   4.074   0.978  0.0327  0.0341 -0.0958
 5099TIP3    H115261   5.700   3.986   1.007 -0.9053  0.8121  1.5392
 5099TIP3    H215262   5.788   4.058   0.907  0.2774 -1.9480  0.5053
 5100TIP3   OH215263   7.144   6.073   3.899  0.4889  0.6359  0.3970
 5100TIP3    H115264   7.106   6.042   3.981  2.3941  0.7493  1.3800
 5100TIP3    H215265   7.234   6.098   3.922  2.1300 -2.0971 -2.2661
 5101TIP3   OH215266   2.193   4.892   4.573 -0.1954 -0.5776 -0.6514
 5101TIP3    H115267   2.125   4.912   4.637 -1.4673 -0.5173 -1.9647
 5101TIP3    H215268   2.227   4.806   4.600 -0.2799 -0.2853  0.4270
 5102TIP3   OH215269   1.595   4.304   3.127  0.0725 -0.1902  0.1953
 5102TIP3    H115270   1.593   4.397   3.147  0.4680  0.0208 -0.6955
 5102TIP3    H215271   1.511   4.271   3.159 -0.4419  0.6419 -0.2644
 5103TIP3   OH215272   0.529   1.536   0.169 -0.1642  0.2952 -0.1875
 5103TIP3    H115273   0.532   1.621   0.213 -1.0068  0.3568 -0.2417
 5103TIP3    H215274   0.492   1.477   0.234 -1.0250  0.2965 -0.6683
 5104TIP3   OH215275   0.413   1.038   3.213  0.4370  0.8108  0.5520
 5104TIP3    H115276   0.483   1.051   3.149  0.2081  0.9668  0.3330
 5104TIP3    H215277   0.443   1.086   3.291  1.6170 -0.9411  1.2553
 5105TIP3   OH215278   6.971   2.785   2.519 -0.3992 -0.6095  0.8713
 5105TIP3    H115279   7.024   2.807   2.443  1.0958 -0.6618  1.8491
 5105TIP3    H215280   6.883   2.772   2.484  0.3362 -1.1167 -0.9162
 5106TIP3   OH215281   3.589   3.155   5.070  0.5034  0.5209  0.5475
 5106TIP3    H115282   3.598   3.117   5.158 -2.2353  0.2452  0.7883
 5106TIP3    H215283   3.623   3.087   5.011 -0.4842 -0.5889  1.2292
 5107TIP3   OH215284   6.965   3.960   5.029  0.4963 -0.0342 -0.0667
 5107TIP3    H115285   6.902   3.899   4.991 -1.2072  2.1008 -0.8998
 5107TIP3    H215286   6.923   3.991   5.109  1.2673  0.1279  0.2795
 5108TIP3   OH215287   0.236   0.195   0.187  0.7252 -0.0583  0.4457
 5108TIP3    H115288   0.147   0.201   0.224  0.5097 -0.2737 -0.0284
 5108TIP3    H215289   0.293   0.190   0.263  0.3012 -0.2584  0.7559
 5109TIP3   OH215290   3.498   1.408   2.230  0.3405 -0.5551  0.0831
 5109TIP3    H115291   3.444   1.428   2.154  1.4658  1.3224 -0.2860
 5109TIP3    H215292   3.553   1.335   2.202 -1.2210 -1.7701  0.1014
 5110TIP3   OH215293   5.660   5.741   1.360 -0.1832  0.6814 -0.3760
 5110TIP3    H115294   5.612   5.822   1.381 -0.1152  0.4564  0.7421
 5110TIP3    H215295   5.647   5.729   1.266 -1.3600  1.2523 -0.3109
 5111TIP3   OH215296   5.638   1.656   0.524 -0.2805 -0.2652  0.2817
 5111TIP3    H115297   5.558   1.695   0.488  0.9620  3.2267  0.9532
 5111TIP3    H215298   5.638   1.682   0.616  1.5044 -0.4069  0.3519
 5112TIP3   OH215299   3.748   0.831   1.014  0.5753  0.1593 -0.2851
 5112TIP3    H115300   3.783   0.885   0.943  1.5917 -0.1759 -0.0514
 5112TIP3    H215301   3.682   0.886   1.056  1.0805  0.9472 -0.5079
 5113TIP3   OH215302   2.352   4.267   2.140  0.1956  0.4811  0.1389
 5113TIP3    H115303   2.309   4.183   2.156 -1.2433  1.0632 -0.5380
 5113TIP3    H215304   2.419   4.272   2.209  1.6398 -2.0488 -0.9406
 5114TIP3   OH215305   4.542   4.185   0.875 -0.8637  0.3185 -0.3532
 5114TIP3    H115306   4.618   4.179   0.816  0.9421 -1.8523  1.9843
 5114TIP3    H215307   4.512   4.275   0.865  0.9391  0.7906 -2.6372
 5115TIP3   OH215308   0.714   6.240   1.873 -0.3911  0.4986 -0.9839
 5115TIP3    H115309   0.763   6.236   1.791 -1.8243  0.8609 -1.9003
 5115TIP3    H215310   0.674   6.327   1.873 -1.0240  0.2249 -0.2848
 5116TIP3   OH215311   2.805   5.467   0.231  0.0829  0.1305 -0.0340
 5116TIP3    H115312   2.753   5.532   0.278  0.2805 -0.2286  0.7029
 5116TIP3    H215313   2.776   5.473   0.141 -0.6278  0.5256  0.2155
 5117TIP3   OH215314   0.550   0.670   0.161  0.2006 -0.1113  0.1584
 5117TIP3    H115315   0.582   0.753   0.126  0.9669 -0.1419  0.7370
 5117TIP3    H215316   0.485   0.640   0.098  0.0390  0.8470 -0.1379
 5118TIP3   OH215317   4.605   0.938   4.830 -0.1610  0.0179  0.5173
 5118TIP3    H115318   4.626   1.030   4.816  0.8748 -0.4220 -1.1224
 5118TIP3    H215319   4.511   0.932   4.816 -0.1239  0.7151 -0.0821
 5119TIP3   OH215320   0.193   5.028   4.478 -0.7179  0.2407  0.0464
 5119TIP3    H115321   0.116   5.068   4.518 -0.6973 -1.6113  2.1287
 5119TIP3    H215322   0.182   5.044   4.384 -2.4664  1.9524  0.4682
 5120TIP3   OH215323   4.583   5.319   2.344  0.8011  0.1697  0.3370
 5120TIP3    H115324   4.504   5.339   2.293  0.2312 -3.4432 -0.4515
 5120TIP3    H215325   4.655   5.340   2.286  0.2965  0.2748 -0.2615
 5121TIP3   OH215326   5.711   0.145   4.207 -0.1546  0.4893 -0.1460
 5121TIP3    H115327   5.740   0.113   4.121 -0.6978  1.8788 -0.8972
 5121TIP3    H215328   5.617   0.158   4.197  0.0476  2.3746  0.0453
 5122TIP3   OH215329   3.828   0.961   1.984 -0.2370 -0.1241 -0.0482
 5122TIP3    H115330   3.916   0.946   2.019 -0.1412  0.3596 -0.0671
 5122TIP3    H215331   3.842   0.974   1.890 -0.0517  1.9623  0.2093
 5123TIP3   OH215332   2.005   4.941   2.604 -0.2156  0.0222  0.1462
 5123TIP3    H115333   2.020   5.012   2.541 -3.7933  1.6304  0.8298
 5123TIP3    H215334   1.944   4.882   2.559  0.1438 -0.8354  0.7694
 5124TIP3   OH215335   0.817   1.037   3.565 -0.2924  0.3845 -0.1781
 5124TIP3    H115336   0.862   1.117   3.592 -0.0850 -0.4537  2.1674
 5124TIP3    H215337   0.886   0.971   3.558 -0.6156  0.1087 -0.8856
 5125TIP3   OH215338   3.055   4.651   5.014  0.2144 -0.3252 -0.3812
 5125TIP3    H115339   2.980   4.596   4.992 -0.5306  0.0320  1.1000
 5125TIP3    H215340   3.028   4.740   4.990 -0.0338 -0.1337  0.5688
 5126TIP3   OH215341   1.043   3.940   2.991 -0.6024 -0.0825  0.0983
 5126TIP3    H115342   1.003   3.987   3.064  0.6264  1.6593 -0.2749
 5126TIP3    H215343   1.006   3.981   2.913 -0.1616 -0.3386 -0.2464
 5127TIP3   OH215344   4.280   3.582   2.877  0.1742 -0.2235 -0.4057
 5127TIP3    H115345   4.329   3.578   2.794 -2.0847  0.6190 -1.8968
 5127TIP3    H215346   4.296   3.670   2.910  1.5492 -0.7538  0.4094
 5128TIP3   OH215347   1.015   5.933   3.776 -1.0349  0.2770 -0.1006
 5128TIP3    H115348   1.009   6.028   3.779 -3.0142  0.1780  0.9971
 5128TIP3    H215349   0.942   5.903   3.830  0.2566 -1.8625  0.5840
 5129TIP3   OH215350   2.574   1.388   3.223 -0.2882 -0.3963 -0.7848
 5129TIP3    H115351   2.558   1.306   3.176 -0.6592 -1.4586  1.0681
 5129TIP3    H215352   2.666   1.383   3.249 -0.3212 -0.2385 -0.6353
 5130TIP3   OH215353   1.769   4.938   2.956 -0.0365 -1.0058  0.6152
 5130TIP3    H115354   1.796   4.871   3.018  0.0940 -1.3078  0.2310
 5130TIP3    H215355   1.738   4.890   2.879  4.0655 -0.7205 -1.5065
 5131TIP3   OH215356   6.218   4.030   4.385  0.1518 -0.2478 -0.6956
 5131TIP3    H115357   6.236   4.002   4.295  0.1137  0.7701 -1.0354
 5131TIP3    H215358   6.135   4.076   4.379  0.8525  1.1170 -0.4328
 5132TIP3   OH215359   5.304   5.963   3.646 -0.2473  0.4741  0.7436
 5132TIP3    H115360   5.255   5.885   3.672  1.0119 -1.3777 -1.9016
 5132TIP3    H215361   5.396   5.940   3.659  0.2357  0.8212 -1.5263
 5133TIP3   OH215362   5.384   5.653   3.361  0.4366 -0.1717  0.0677
 5133TIP3    H115363   5.417   5.743   3.369  0.4945 -0.1826 -0.0375
 5133TIP3    H215364   5.290   5.663   3.351  0.5507 -0.0545 -1.0371
 5134TIP3   OH215365   6.800   3.873   3.781 -0.3835 -0.2029  0.2737
 5134TIP3    H115366   6.824   3.965   3.795 -1.0356 -0.0836  0.6138
 5134TIP3    H215367   6.795   3.836   3.869 -0.8159 -0.3929  0.1685
 5135TIP3   OH215368   6.715   0.698   0.075  0.7287  0.0428  0.1062
 5135TIP3    H115369   6.805   0.728   0.086  1.5868 -2.2629 -0.1350
 5135TIP3    H215370   6.723   0.604   0.060 -1.6422 -0.0126 -1.2181
 5136TIP3   OH215371   0.048   4.801   0.783 -0.8202 -0.3627  0.0188
 5136TIP3    H115372   0.070   4.832   0.871  1.2427 -1.6828  0.0450
 5136TIP3    H215373   0.061   4.707   0.787  0.1707 -0.3626 -1.9073
 5137TIP3   OH215374   0.067   6.673   3.175  0.3567 -0.7446 -0.2675
 5137TIP3    H115375   0.028   6.659   3.089  0.0795  1.0821 -0.4853
 5137TIP3    H215376   0.086   6.585   3.207 -2.2322 -1.6258 -0.9181
 5138TIP3   OH215377   5.893   5.418   1.469 -0.6949  0.4567 -0.2529
 5138TIP3    H115378   5.971   5.373   1.502 -1.9247 -1.0740  0.7017
 5138TIP3    H215379   5.925   5.471   1.396  1.2114 -0.1821  0.0627
 5139TIP3   OH215380   4.430   2.519   5.495  0.0721 -0.5491  0.1799
 5139TIP3    H115381   4.458   2.516   5.586  0.3735  1.8231  0.2158
 5139TIP3    H215382   4.442   2.429   5.463  1.4296 -1.0693  2.0266
 5140TIP3   OH215383   3.895   0.273   1.394  0.2094  0.6045  0.1722
 5140TIP3    H115384   3.850   0.190   1.381  1.3242  0.0704 -0.4087
 5140TIP3    H215385   3.838   0.322   1.454 -0.8207 -0.2747 -0.0551
 5141TIP3   OH215386   6.592   4.632   5.667  0.7621 -0.2349  0.2786
 5141TIP3    H115387   6.613   4.540   5.684 -0.4051 -0.2885  1.6858
 5141TIP3    H215388   6.538   4.631   5.588  1.9390 -0.5778 -0.5482
 5142TIP3   OH215389   1.359   6.644   1.211  0.4784  0.0621  0.2671
 5142TIP3    H115390   1.330   6.731   1.186 -0.7552  0.1144  1.7253
 5142TIP3    H215391   1.392   6.655   1.301 -0.6444 -1.1470  0.8543
 5143TIP3   OH215392   4.694   5.814   0.026  0.0912  0.0267  0.1549
 5143TIP3    H115393   4.665   5.751  -0.040 -0.5453  1.2864 -0.8268
 5143TIP3    H215394   4.790   5.816   0.016  0.1395 -0.9589  0.3749
 5144TIP3   OH215395   2.926   4.572   2.516  0.7454  0.2740 -0.0042
 5144TIP3    H115396   3.019   4.556   2.526  0.4347 -0.2164  3.1775
 5144TIP3    H215397   2.917   4.667   2.528  0.7158  0.1032  1.4978
 5145TIP3   OH215398   4.306   6.006   3.236  0.4607 -0.4465  0.2887
 5145TIP3    H115399   4.220   6.041   3.213  0.0578 -0.9632  0.9960
 5145TIP3    H215400   4.351   5.998   3.152 -0.2587 -0.3761 -0.1132
 5146TIP3   OH215401   6.735   5.370   0.463 -0.0288  0.0950 -0.4999
 5146TIP3    H115402   6.713   5.291   0.415 -0.6137 -0.1158  0.0973
 5146TIP3    H215403   6.651   5.413   0.478  0.2245  0.5344 -0.3265
 5147TIP3   OH215404   0.229   5.564   0.996 -0.5944  0.1688  0.1053
 5147TIP3    H115405   0.197   5.616   0.922 -0.0131  2.2004  1.1854
 5147TIP3    H215406   0.324   5.563   0.986 -0.6321 -1.3435 -0.2764
 5148TIP3   OH215407   1.230   0.480   3.708 -0.2045  0.5174  0.1677
 5148TIP3    H115408   1.288   0.405   3.697 -0.2156  0.5495 -0.1209
 5148TIP3    H215409   1.145   0.442   3.730 -0.3465  0.4146 -0.5263
 5149TIP3   OH215410   2.129   4.827   0.661  0.4746  0.4386 -0.0619
 5149TIP3    H115411   2.218   4.862   0.661  1.5490 -2.0650 -0.2933
 5149TIP3    H215412   2.105   4.823   0.568  0.8377 -0.4593 -0.1315
 5150TIP3   OH215413   3.142   1.730   3.272 -0.2201 -0.6653 -0.1422
 5150TIP3    H115414   3.079   1.713   3.202 -1.8025  2.2117  0.4288
 5150TIP3    H215415   3.226   1.740   3.226 -0.4823 -2.5564 -1.1398
 5151TIP3   OH215416   3.012   1.911   4.732  0.1663 -0.4312  0.2940
 5151TIP3    H115417   2.998   1.859   4.811 -0.2905 -0.6989  0.0459
 5151TIP3    H215418   2.926   1.948   4.713  0.6261  0.9797  0.8496
 5152TIP3   OH215419   1.906   6.392   4.131  0.2300  1.1354  0.7014
 5152TIP3    H115420   1.853   6.465   4.162 -2.0783  0.5781 -1.6152
 5152TIP3    H215421   1.901   6.398   4.035  1.2708 -1.1496  0.4482
 5153TIP3   OH215422   2.204   4.187   3.137  0.7217  0.6737  0.1427
 5153TIP3    H115423   2.249   4.231   3.208  0.7201  2.4787 -0.9157
 5153TIP3    H215424   2.272   4.171   3.071  0.4639  0.2736 -0.0313
 5154TIP3   OH215425   5.968   2.541   0.300 -0.3186  0.3692 -0.0071
 5154TIP3    H115426   5.911   2.584   0.363  0.7827  2.1546 -0.1685
 5154TIP3    H215427   5.924   2.552   0.216 -1.6048 -1.6902  0.3304
 5155TIP3   OH215428   3.881   4.348   1.453  0.1832  0.3220 -0.1150
 5155TIP3    H115429   3.881   4.433   1.498 -1.5958  0.1046  0.3856
 5155TIP3    H215430   3.791   4.315   1.464  0.6974 -1.3982 -0.7372
 5156TIP3   OH215431   2.687   2.408   0.406 -0.4383 -0.7049 -0.3008
 5156TIP3    H115432   2.709   2.327   0.360 -0.7532 -0.9904  0.0377
 5156TIP3    H215433   2.729   2.399   0.492  1.0526  0.2897 -0.8820
 5157TIP3   OH215434   1.299   5.888   0.866  0.4173  0.1679  0.0198
 5157TIP3    H115435   1.375   5.831   0.880  1.4701  1.0940 -1.6245
 5157TIP3    H215436   1.336   5.976   0.864 -1.0047  0.8356  1.1806
 5158TIP3   OH215437   0.965   5.823   0.129 -0.2861  0.2237  0.5051
 5158TIP3    H115438   0.986   5.906   0.086  1.4323 -0.4879 -0.1174
 5158TIP3    H215439   1.007   5.828   0.214 -0.4321  0.1181  0.5840
 5159TIP3   OH215440   5.945   1.060   3.767  0.4565  0.2470 -0.4867
 5159TIP3    H115441   5.990   1.107   3.837  0.6804  1.7474 -1.5827
 5159TIP3    H215442   5.866   1.112   3.751  0.0068 -0.5182 -0.8134
 5160TIP3   OH215443   4.648   4.261   5.762 -0.1810  0.4735 -0.0651
 5160TIP3    H115444   4.689   4.228   5.842  0.1680  1.9829  0.4223
 5160TIP3    H215445   4.690   4.347   5.748 -0.7848  0.5637 -1.4405
 5161TIP3   OH215446   6.147   3.185   1.708 -0.3468 -0.5745 -0.3914
 5161TIP3    H115447   6.193   3.228   1.637 -0.2413 -1.0069 -0.5844
 5161TIP3    H215448   6.138   3.253   1.775 -0.6662 -0.0948 -0.9094
 5162TIP3   OH215449   4.763   5.952   4.191  0.3557  0.0766  0.5464
 5162TIP3    H115450   4.698   5.985   4.129 -0.8016 -1.0942  1.0690
 5162TIP3    H215451   4.781   5.862   4.161  0.5298 -0.1608  1.3310
 5163TIP3   OH215452   1.770   0.339   1.660  0.2251  0.3627 -0.4722
 5163TIP3    H115453   1.791   0.294   1.579 -0.1544 -1.5752  0.4444
 5163TIP3    H215454   1.823   0.295   1.727  0.0673  1.4960  0.4273
 5164TIP3   OH215455   2.260   3.583   2.814  0.0944  0.2134  0.6865
 5164TIP3    H115456   2.203   3.658   2.799  1.3914  1.0175 -0.4164
 5164TIP3    H215457   2.277   3.548   2.726  0.2845 -0.7795  1.1041
 5165TIP3   OH215458   2.764   3.380   0.299  0.4840 -0.0898  0.0013
 5165TIP3    H115459   2.805   3.355   0.382 -0.3563 -2.2222 -0.1440
 5165TIP3    H215460   2.837   3.396   0.239  1.1812 -2.4555  0.1092
 5166TIP3   OH215461   4.929   2.093   5.191  0.5206 -1.0170  0.5035
 5166TIP3    H115462   5.004   2.051   5.233  0.0220 -0.8873  1.5542
 5166TIP3    H215463   4.889   2.146   5.260 -1.9100 -2.8925  0.6487
 5167TIP3   OH215464   2.878   5.985   1.826  0.2283  0.5197  0.3852
 5167TIP3    H115465   2.883   6.001   1.732 -3.8601  0.6859 -0.0104
 5167TIP3    H215466   2.882   5.889   1.834 -1.1859  0.3814 -0.2272
 5168TIP3   OH215467   6.515   2.649   2.717 -0.5206  1.0549  0.0845
 5168TIP3    H115468   6.609   2.667   2.720 -0.3875  0.4952 -0.5443
 5168TIP3    H215469   6.492   2.631   2.808  0.3090 -0.4085  0.0318
 5169TIP3   OH215470   2.941   3.689   4.430  0.1608  0.7341 -0.3951
 5169TIP3    H115471   2.896   3.728   4.505  1.6909  0.3223  0.8014
 5169TIP3    H215472   2.981   3.763   4.385  0.1645  0.8817 -0.1512
 5170TIP3   OH215473   0.854   6.384   3.984  0.3569  0.2204  0.0655
 5170TIP3    H115474   0.915   6.453   4.010  2.3043 -1.7277  1.1046
 5170TIP3    H215475   0.771   6.428   3.969  1.8460  2.9539 -0.7973
 5171TIP3   OH215476   6.993   4.904   2.731  0.0276 -0.5703  0.6183
 5171TIP3    H115477   6.944   4.846   2.672 -0.2163  0.5473 -0.3023
 5171TIP3    H215478   6.927   4.942   2.788 -0.1473  0.6395 -0.3684
 5172TIP3   OH215479   6.137   2.856   3.235  0.1883  0.3571 -0.2246
 5172TIP3    H115480   6.178   2.839   3.320  1.6613  0.2268 -0.9259
 5172TIP3    H215481   6.125   2.951   3.233 -1.6058  0.2023  0.8628
 5173TIP3   OH215482   3.181   1.933   1.367  0.6536 -0.2595 -0.7780
 5173TIP3    H115483   3.236   1.865   1.408  0.6881 -0.4225 -1.0922
 5173TIP3    H215484   3.162   1.994   1.438 -0.6147 -1.3715 -0.1321
 5174TIP3   OH215485   1.827   5.764   2.197  0.3241  0.1219  0.3340
 5174TIP3    H115486   1.770   5.737   2.125 -0.6762 -1.5126  1.6756
 5174TIP3    H215487   1.793   5.850   2.223 -2.3934 -1.2854  1.8472
 5175TIP3   OH215488   1.750   2.185   0.667  0.2143 -0.0724 -0.2050
 5175TIP3    H115489   1.789   2.174   0.580 -0.6829 -0.8991 -0.5263
 5175TIP3    H215490   1.805   2.132   0.724 -0.1417 -0.8527 -0.5700
 5176TIP3   OH215491   3.600   2.639   0.343 -0.0249  0.6048  0.4402
 5176TIP3    H115492   3.633   2.571   0.403 -1.6450 -1.2324 -0.6211
 5176TIP3    H215493   3.509   2.652   0.368  0.1296  2.0980  0.3152
 5177TIP3   OH215494   4.303   6.057   0.425  0.6109  0.1984  0.3691
 5177TIP3    H115495   4.275   5.970   0.396  0.6247 -0.4212  2.0763
 5177TIP3    H215496   4.377   6.040   0.483 -0.7039  1.1349  2.4310
 5178TIP3   OH215497   1.517   2.370   0.933 -0.1374  0.0167  0.0370
 5178TIP3    H115498   1.550   2.383   0.843 -0.5221 -1.0282 -0.2723
 5178TIP3    H215499   1.441   2.312   0.922 -0.8914  0.8136  0.9354
 5179TIP3   OH215500   6.009   0.525   0.297 -0.6739  0.2607  0.1690
 5179TIP3    H115501   6.073   0.457   0.320 -1.3743  0.3875  2.8234
 5179TIP3    H215502   5.925   0.489   0.325 -1.0825  2.1127  1.5447
 5180TIP3   OH215503   6.015   0.267   0.618  0.0219 -0.1118 -0.0308
 5180TIP3    H115504   6.071   0.300   0.688 -0.0921  0.1591 -0.0659
 5180TIP3    H215505   5.964   0.343   0.591 -0.9595 -0.5351  0.5753
 5181TIP3   OH215506   1.732   2.384   3.274 -0.0556 -0.1754 -0.1397
 5181TIP3    H115507   1.712   2.471   3.240  0.0714 -0.1610 -0.1781
 5181TIP3    H215508   1.706   2.324   3.204  0.7875 -0.1124 -0.5233
 5182TIP3   OH215509   2.109   6.788   3.043 -0.5406 -0.1385 -0.1301
 5182TIP3    H115510   2.083   6.856   3.105  1.5961  1.3471 -0.7323
 5182TIP3    H215511   2.144   6.717   3.098 -0.1489  0.4806  0.4321
 5183TIP3   OH215512   0.945   6.002   5.137  0.1557 -0.6286 -0.1531
 5183TIP3    H115513   0.967   5.910   5.127 -0.2527 -0.9452  1.5404
 5183TIP3    H215514   0.849   6.004   5.132 -0.0795 -0.7734  2.6495
 5184TIP3   OH215515   2.157   3.461   1.737  0.1470 -0.0682 -0.1956
 5184TIP3    H115516   2.087   3.413   1.693 -0.3682  1.3743 -1.0124
 5184TIP3    H215517   2.234   3.449   1.681 -0.1452  0.5797 -0.7454
 5185TIP3   OH215518   5.684   1.387   3.232  0.3545  0.4616  0.4397
 5185TIP3    H115519   5.634   1.372   3.153  0.2858 -0.5564  0.6584
 5185TIP3    H215520   5.775   1.372   3.206  0.6681  2.8278 -0.0885
 5186TIP3   OH215521   0.231   0.400   2.917  0.4288  0.5445 -0.1970
 5186TIP3    H115522   0.268   0.320   2.881  0.8288  0.2762  0.8126
 5186TIP3    H215523   0.151   0.372   2.961  1.3867  0.4324  1.5427
 5187TIP3   OH215524   5.872   2.343   3.592 -0.2113 -0.2815  0.1518
 5187TIP3    H115525   5.780   2.356   3.612 -0.4961 -2.1366  0.2045
 5187TIP3    H215526   5.883   2.380   3.505 -1.1910 -0.6907 -0.1630
 5188TIP3   OH215527   1.426   3.304   0.921 -0.5224 -0.7648  0.3189
 5188TIP3    H115528   1.338   3.283   0.891 -0.2469  0.5712 -1.5866
 5188TIP3    H215529   1.420   3.302   1.017 -2.7050 -0.3904  0.2298
 5189TIP3   OH215530   2.746   6.277   5.796 -0.3183  0.0008 -0.0134
 5189TIP3    H115531   2.730   6.183   5.781  0.7368 -0.2125  0.1348
 5189TIP3    H215532   2.832   6.280   5.837 -0.4721  1.0270  0.2422
 5190TIP3   OH215533   5.947   2.111   5.217 -0.2106  0.1869 -0.4074
 5190TIP3    H115534   5.887   2.180   5.188 -1.0865 -0.4166 -0.0752
 5190TIP3    H215535   5.984   2.144   5.299 -1.4945 -0.1911  0.3595
 5191TIP3   OH215536   3.207   0.424   3.678  0.4833 -0.4426  0.3755
 5191TIP3    H115537   3.156   0.503   3.659  1.4793 -0.2749 -1.8976
 5191TIP3    H215538   3.159   0.354   3.634  1.9193 -0.3338 -1.4957
 5192TIP3   OH215539   0.284   5.689   3.229 -0.1051  0.2083  0.5226
 5192TIP3    H115540   0.321   5.674   3.316  1.7721 -0.2827 -0.2911
 5192TIP3    H215541   0.296   5.782   3.213 -0.5341  0.3156  0.8172
 5193TIP3   OH215542   0.282   1.271   3.990 -0.4172  0.0179 -0.5631
 5193TIP3    H115543   0.299   1.342   3.928  0.0730 -2.1452 -3.0912
 5193TIP3    H215544   0.351   1.281   4.057  0.4755  1.1088 -1.5918
 5194TIP3   OH215545   2.987   0.398   1.882 -0.7000 -0.0053  0.3841
 5194TIP3    H115546   3.060   0.338   1.871 -0.5457  0.0142  1.2307
 5194TIP3    H215547   2.999   0.436   1.969 -0.8705  1.1469 -0.0669
 5195TIP3   OH215548   4.660   3.996   1.719  0.2946 -0.6090  0.2802
 5195TIP3    H115549   4.630   3.955   1.800 -0.6930  3.6192  2.3109
 5195TIP3    H215550   4.588   3.985   1.658 -0.0105 -1.6049  0.7894
 5196TIP3   OH215551   2.818   2.839   4.649  0.2224 -0.0195 -0.7217
 5196TIP3    H115552   2.755   2.871   4.715  0.1996  0.1893 -0.8442
 5196TIP3    H215553   2.773   2.767   4.606  0.3512 -0.3494 -0.3043
 5197TIP3   OH215554   1.835   3.862   0.278  0.3009  0.0408 -0.2794
 5197TIP3    H115555   1.786   3.886   0.199  0.3432  0.8980 -0.0550
 5197TIP3    H215556   1.915   3.913   0.273  0.1799  0.3156  0.4534
 5198TIP3   OH215557   3.589   0.124   4.031  0.0181  0.3098  0.0270
 5198TIP3    H115558   3.678   0.092   4.013 -0.5303 -1.5897  0.5096
 5198TIP3    H215559   3.603   0.213   4.064  1.7930 -0.1601  0.6784
 5199TIP3   OH215560   3.384   3.744   1.592 -0.2223 -0.5684 -0.0919
 5199TIP3    H115561   3.337   3.698   1.522 -1.6028 -0.3137  0.6326
 5199TIP3    H215562   3.316   3.766   1.656  0.6909  0.9199  0.4143
 5200TIP3   OH215563   6.135   1.747   0.903 -0.5936 -0.2289  0.5754
 5200TIP3    H115564   6.205   1.786   0.956  0.2915 -0.3946 -0.4261
 5200TIP3    H215565   6.076   1.707   0.967 -0.8520  1.6222  1.5588
 5201TIP3   OH215566   6.910   2.992   1.270 -0.4604 -0.5101 -0.3922
 5201TIP3    H115567   6.928   3.076   1.312 -1.8569 -0.0770 -0.5922
 5201TIP3    H215568   6.915   3.011   1.176 -0.1121 -0.8139 -0.4373
 5202TIP3   OH215569   3.927   5.943   5.661  0.3400 -0.7128 -0.4585
 5202TIP3    H115570   3.944   5.859   5.618  0.7612 -1.0595  0.3531
 5202TIP3    H215571   3.947   5.927   5.754 -2.2442 -0.5071  0.2110
 5203TIP3   OH215572   0.582   2.363   0.236 -0.0679  0.4009  0.1869
 5203TIP3    H115573   0.652   2.353   0.172 -0.5070  0.3089 -0.2816
 5203TIP3    H215574   0.562   2.457   0.235 -1.4128  0.1366 -1.2596
 5204TIP3   OH215575   3.393   0.576   4.183 -0.4577 -0.3391 -0.5618
 5204TIP3    H115576   3.403   0.626   4.102  0.6542  0.6453  0.1479
 5204TIP3    H215577   3.348   0.636   4.243 -1.5253 -1.1569 -0.5124
 5205TIP3   OH215578   3.988   6.633   2.162 -0.2820  0.8306 -0.2719
 5205TIP3    H115579   4.054   6.610   2.228 -1.0247 -0.3036  0.1191
 5205TIP3    H215580   4.015   6.583   2.085 -0.7972  0.1612 -0.0331
 5206TIP3   OH215581   4.738   4.839   4.425 -0.3703 -0.4919  0.1663
 5206TIP3    H115582   4.788   4.887   4.491  1.7110 -2.0799 -0.1364
 5206TIP3    H215583   4.804   4.798   4.370 -2.0246 -2.2933 -0.6010
 5207TIP3   OH215584   4.832   0.993   2.092  0.1065  0.5390  0.3935
 5207TIP3    H115585   4.840   0.904   2.127  1.6681 -0.1187 -1.4496
 5207TIP3    H215586   4.899   0.998   2.023  0.9002  3.5694  1.2495
 5208TIP3   OH215587   4.777   2.794   0.494 -0.2079 -0.0401 -0.1348
 5208TIP3    H115588   4.743   2.864   0.550 -0.8808 -0.1966 -0.3374
 5208TIP3    H215589   4.740   2.812   0.408  0.6944  0.1061 -0.5029
 5209TIP3   OH215590   1.323   1.396   1.569 -0.8600  0.0559 -0.1379
 5209TIP3    H115591   1.247   1.356   1.526  0.6466 -0.1241 -2.9121
 5209TIP3    H215592   1.318   1.488   1.545 -0.7076  0.2335  0.4953
 5210TIP3   OH215593   6.902   6.554   4.132 -0.1293  0.0508 -0.0483
 5210TIP3    H115594   6.950   6.501   4.068  2.9887  0.5084  1.7385
 5210TIP3    H215595   6.876   6.492   4.200  0.1725  0.2085  0.2116
 5211TIP3   OH215596   2.743   4.253   4.937  0.3466 -0.2229  0.0500
 5211TIP3    H115597   2.682   4.215   5.001  0.8051 -0.5073  0.3203
 5211TIP3    H215598   2.717   4.215   4.854  1.9400 -2.6158  0.5505
 5212TIP3   OH215599   3.418   1.141   0.670  0.1778  0.6678  0.1992
 5212TIP3    H115600   3.334   1.177   0.699 -1.3552 -2.4002 -0.0182
 5212TIP3    H215601   3.415   1.147   0.575 -0.3078 -0.3525  0.1326
 5213TIP3   OH215602   4.658   5.614   4.974 -0.5556  0.1127  0.0031
 5213TIP3    H115603   4.609   5.560   4.912  0.0311  1.1708 -1.4317
 5213TIP3    H215604   4.624   5.703   4.960  0.6646  0.6055  0.0898
 5214TIP3   OH215605   2.947   5.728   5.216 -0.5123  0.5337  0.1457
 5214TIP3    H115606   3.027   5.749   5.168 -1.4426  0.9343 -1.3160
 5214TIP3    H215607   2.977   5.682   5.295  1.1009 -0.1434 -0.8099
 5215TIP3   OH215608   1.227   0.648   0.571 -0.0837 -0.4843 -0.4602
 5215TIP3    H115609   1.208   0.739   0.547 -1.0580 -0.5660 -0.0477
 5215TIP3    H215610   1.318   0.635   0.544  0.6667  1.1665  1.0399
 5216TIP3   OH215611   5.674   2.041   2.061  0.0248 -0.4761  0.1287
 5216TIP3    H115612   5.676   2.134   2.038 -1.9079 -1.0026 -2.7724
 5216TIP3    H215613   5.594   2.030   2.112  0.7194 -0.4321  1.2475
 5217TIP3   OH215614   6.314   6.445   4.219  0.1446  0.3177  0.7137
 5217TIP3    H115615   6.314   6.423   4.126  1.5378 -2.3657  1.2406
 5217TIP3    H215616   6.227   6.417   4.250  0.0886  0.1635  0.4140
 5218TIP3   OH215617   6.715   2.637   4.944 -0.1710 -0.2294 -0.0022
 5218TIP3    H115618   6.729   2.547   4.973 -0.9451 -0.2399  0.3602
 5218TIP3    H215619   6.760   2.643   4.860 -0.4126 -1.0611 -0.1964
 5219TIP3   OH215620   2.965   2.458   2.646 -0.2316 -1.0667  0.9701
 5219TIP3    H115621   3.044   2.423   2.689 -0.1999  0.0127  1.8352
 5219TIP3    H215622   2.990   2.465   2.554  1.2469  0.6634  1.4415
 5220TIP3   OH215623   4.728   3.062   3.583 -0.1041 -0.5495  0.1973
 5220TIP3    H115624   4.798   3.127   3.575 -0.1545 -0.5417 -0.2002
 5220TIP3    H215625   4.662   3.090   3.520 -0.9161  0.0019  1.2780
 5221TIP3   OH215626   1.950   2.086   3.618  0.0557 -0.2300 -0.0253
 5221TIP3    H115627   1.884   2.037   3.567 -0.5323 -0.5176  0.9828
 5221TIP3    H215628   2.033   2.063   3.576 -0.5545  1.2948 -2.2666
 5222TIP3   OH215629   6.666   6.414   5.115 -0.5849  0.0613  0.5750
 5222TIP3    H115630   6.649   6.508   5.103 -0.1114  0.2583  1.3833
 5222TIP3    H215631   6.610   6.389   5.188  0.3589  0.0451  1.3042
 5223TIP3   OH215632   4.655   0.501   4.242 -0.1019 -0.0256  0.3925
 5223TIP3    H115633   4.605   0.425   4.271 -0.0822 -0.0867  0.2678
 5223TIP3    H215634   4.660   0.557   4.319 -0.3621 -0.0185  0.4073
 5224TIP3   OH215635   6.312   4.290   1.797 -0.2474 -0.3199  0.5679
 5224TIP3    H115636   6.315   4.343   1.877 -3.4604  1.7433 -0.5028
 5224TIP3    H215637   6.326   4.353   1.726 -1.7920 -1.2968 -0.6597
 5225TIP3   OH215638   5.384   3.958   5.231  0.8913 -0.2634  0.7262
 5225TIP3    H115639   5.437   3.912   5.297  0.3448 -0.9836  0.6752
 5225TIP3    H215640   5.325   3.891   5.196  0.2413  0.4219  0.4706
 5226TIP3   OH215641   1.304   4.866   4.770  0.2672 -0.4128 -0.2930
 5226TIP3    H115642   1.359   4.912   4.834  1.3392 -0.6100 -1.0457
 5226TIP3    H215643   1.290   4.930   4.700  0.6966 -0.8068 -0.7460
 5227TIP3   OH215644   5.044   0.950   3.927 -0.0387  0.1100  0.2983
 5227TIP3    H115645   5.049   0.884   3.997  0.2561 -0.1486  0.0373
 5227TIP3    H215646   4.952   0.949   3.901  0.1931 -1.1454 -0.5902
 5228TIP3   OH215647   1.483   2.810   5.200 -0.9610 -0.4789 -0.3067
 5228TIP3    H115648   1.490   2.842   5.110 -3.5569 -0.4683 -0.5779
 5228TIP3    H215649   1.427   2.873   5.244  0.3404 -0.4419  1.3882
 5229TIP3   OH215650   6.837   2.494   1.092 -0.0806 -0.5555 -0.0329
 5229TIP3    H115651   6.842   2.517   1.000  0.5347  1.5288  0.4635
 5229TIP3    H215652   6.834   2.579   1.138 -0.0885 -1.5248  1.8706
 5230TIP3   OH215653   6.958   6.164   0.842  0.3473 -0.2008  0.2862
 5230TIP3    H115654   6.907   6.118   0.909 -1.7790  0.5505 -0.7002
 5230TIP3    H215655   7.044   6.122   0.844  0.1489 -0.6729  2.9618
 5231TIP3   OH215656   6.116   6.098   5.206 -0.3551  0.0471  0.1914
 5231TIP3    H115657   6.205   6.062   5.207 -0.2922  0.1202 -1.0226
 5231TIP3    H215658   6.101   6.128   5.295  0.2126 -1.4865  0.8318
 5232TIP3   OH215659   5.377   0.866   5.625  0.2272  0.3330 -0.4033
 5232TIP3    H115660   5.368   0.774   5.650  1.2275 -0.2772 -2.1033
 5232TIP3    H215661   5.414   0.909   5.702  0.2623 -0.7921  0.2266
 5233TIP3   OH215662   2.373   0.962   2.302 -0.4508 -0.1319 -0.2011
 5233TIP3    H115663   2.281   0.940   2.293 -0.2604 -1.0378 -0.0667
 5233TIP3    H215664   2.375   1.058   2.310 -1.5277 -0.2047  1.4614
 5234TIP3   OH215665   1.815   5.235   5.411 -0.6577  0.1997  0.5451
 5234TIP3    H115666   1.853   5.203   5.493 -0.5836 -0.0960  0.3960
 5234TIP3    H215667   1.873   5.202   5.343 -0.9013  0.1662  0.3507
 5235TIP3   OH215668   1.579   1.702   2.223 -0.3594  0.3528  0.5400
 5235TIP3    H115669   1.600   1.610   2.206  1.9380  0.7793  0.6791
 5235TIP3    H215670   1.658   1.749   2.196 -0.8854  2.1179  1.9139
 5236TIP3   OH215671   6.975   6.636   0.703 -0.5897 -0.2743 -0.6022
 5236TIP3    H115672   6.926   6.555   0.688  1.2516 -1.0771 -2.9472
 5236TIP3    H215673   7.045   6.610   0.762 -1.9802  0.5259  1.5230
 5237TIP3   OH215674   4.986   6.440   0.399  0.0696 -0.1345  0.1913
 5237TIP3    H115675   4.992   6.528   0.361  0.4730  0.1067  0.7956
 5237TIP3    H215676   5.056   6.438   0.465  0.0759 -0.9164  0.1681
 5238TIP3   OH215677   1.211   0.450   4.259 -0.0177 -0.0210 -0.6927
 5238TIP3    H115678   1.212   0.412   4.347  0.4018 -1.0680 -1.1286
 5238TIP3    H215679   1.119   0.461   4.238 -0.1549 -0.8378 -0.5549
 5239TIP3   OH215680   2.850   2.672   1.943  0.4442 -0.4008 -0.4132
 5239TIP3    H115681   2.897   2.603   1.897 -0.8893 -0.8391 -1.1950
 5239TIP3    H215682   2.878   2.753   1.901  1.2377 -0.5516 -0.1897
 5240TIP3   OH215683   6.864   1.874   3.756  0.6161  0.0053  0.0378
 5240TIP3    H115684   6.777   1.905   3.781  1.1159  2.6864 -1.2528
 5240TIP3    H215685   6.849   1.823   3.676  0.0550 -1.1675  0.8661
 5241TIP3   OH215686   6.180   6.004   4.933  0.0124  0.3446  0.4480
 5241TIP3    H115687   6.154   5.937   4.997 -0.5407  0.5332  0.4289
 5241TIP3    H215688   6.159   6.087   4.977  0.0196  0.4853  0.1840
 5242TIP3   OH215689   0.782   0.960   5.189  0.2568 -0.3293 -0.3292
 5242TIP3    H115690   0.831   0.934   5.110  0.2091 -1.4538 -0.0029
 5242TIP3    H215691   0.785   0.883   5.245  0.6593  0.6049  0.9660
 5243TIP3   OH215692   0.565   3.667  -0.023  0.2511  0.5951 -0.1398
 5243TIP3    H115693   0.654   3.692   0.000 -0.1014  1.6033  0.1774
 5243TIP3    H215694   0.509   3.722   0.033 -0.5757 -2.0290  1.7791
 5244TIP3   OH215695   2.551   6.726   0.094  0.0314 -0.9823 -0.3824
 5244TIP3    H115696   2.463   6.711   0.061 -0.5756  0.8824  0.2703
 5244TIP3    H215697   2.584   6.801   0.045  0.4758 -0.4189  0.7264
 5245TIP3   OH215698   0.882   5.749   0.886 -0.3715  0.0164 -0.6452
 5245TIP3    H115699   0.965   5.721   0.925  0.1951  2.0601 -0.2287
 5245TIP3    H215700   0.817   5.691   0.925  0.5470  0.1025  1.1707
 5246TIP3   OH215701   1.945   6.773   3.921  0.0752 -0.4981  0.4700
 5246TIP3    H115702   1.875   6.718   3.957  0.8171 -0.2532  2.4025
 5246TIP3    H215703   1.984   6.719   3.853 -1.9491 -0.6409 -0.6717
 5247TIP3   OH215704   5.445   0.613   2.159  0.1118  0.1110 -0.3581
 5247TIP3    H115705   5.535   0.580   2.156 -0.1635 -0.5901 -2.0885
 5247TIP3    H215706   5.448   0.695   2.111 -0.1999 -0.0045 -0.5800
 5248TIP3   OH215707   4.983   1.618   3.423 -0.1875  0.6783 -0.2381
 5248TIP3    H115708   5.015   1.628   3.333 -0.5388  0.7670 -0.3577
 5248TIP3    H215709   5.054   1.575   3.470 -1.1402 -2.3345 -1.3028
 5249TIP3   OH215710   6.010   6.410   5.563 -0.0936  0.4790  0.2812
 5249TIP3    H115711   6.048   6.330   5.600  0.3065 -0.1098 -1.2957
 5249TIP3    H215712   5.973   6.381   5.479 -0.1938  1.8957 -0.1813
 5250TIP3   OH215713   0.514   3.950   0.070  0.3991 -0.5604  0.4561
 5250TIP3    H115714   0.582   3.949   0.002 -0.1711 -2.0864 -0.1504
 5250TIP3    H215715   0.446   4.007   0.034 -0.3442 -2.1292 -0.7874
 5251TIP3   OH215716   0.399   6.763   1.872  0.4327 -0.1530  0.3074
 5251TIP3    H115717   0.362   6.706   1.805  0.6241 -1.1658  1.0327
 5251TIP3    H215718   0.488   6.781   1.842 -0.3763  1.7955 -1.1394
 5252TIP3   OH215719   4.753   4.279   5.238 -0.3099 -0.5572  0.1561
 5252TIP3    H115720   4.846   4.304   5.237 -0.3591 -0.2495  1.4926
 5252TIP3    H215721   4.751   4.193   5.196  0.5564 -0.5001 -0.0231
 5253TIP3   OH215722   5.579   3.346   2.826 -0.4744  0.0660  0.7049
 5253TIP3    H115723   5.536   3.335   2.911  0.4723 -0.0218  1.1911
 5253TIP3    H215724   5.512   3.326   2.762 -1.3895  0.7489  1.4218
 5254TIP3   OH215725   4.150   1.153   2.507 -0.4291  0.6511 -0.0721
 5254TIP3    H115726   4.056   1.134   2.506 -0.4468  0.7461 -0.6358
 5254TIP3    H215727   4.169   1.183   2.418  0.1740  0.4526 -0.0123
 5255TIP3   OH215728   3.221   4.338   4.968 -0.5269 -0.2376  0.2761
 5255TIP3    H115729   3.228   4.353   5.062  0.3293  0.1251  0.1612
 5255TIP3    H215730   3.149   4.275   4.959 -1.8599  1.1161  1.0172
 5256TIP3   OH215731   4.351   1.867   5.199 -0.2320  0.0370 -0.4056
 5256TIP3    H115732   4.274   1.823   5.234  1.5126 -0.7609  2.9532
 5256TIP3    H215733   4.380   1.812   5.127 -0.1349 -2.5190  1.4387
 5257TIP3   OH215734   4.245   5.655   1.717  0.3603  0.1363 -0.5814
 5257TIP3    H115735   4.331   5.689   1.694 -1.1244  2.1749 -3.9884
 5257TIP3    H215736   4.195   5.732   1.744 -0.9242 -0.6619 -0.5837
 5258TIP3   OH215737   5.306   4.343   0.329 -0.2081  0.1545  0.0762
 5258TIP3    H115738   5.303   4.303   0.417  0.5330  0.1098  0.0830
 5258TIP3    H215739   5.214   4.356   0.307 -0.4007  0.4839  1.0068
 5259TIP3   OH215740   0.319   4.358   0.029 -0.0428 -0.6925  0.1607
 5259TIP3    H115741   0.375   4.352   0.106 -2.4067  0.2646  2.0765
 5259TIP3    H215742   0.301   4.451   0.020 -0.3969 -0.8697 -1.1160
 5260TIP3   OH215743   7.119   4.344   1.964 -0.5698  0.0284  0.3658
 5260TIP3    H115744   7.211   4.353   1.940 -0.6378 -0.3377 -0.0413
 5260TIP3    H215745   7.071   4.373   1.886 -0.7936 -0.5502  0.2849
 5261TIP3   OH215746   5.721   3.933   3.711 -0.0460  0.5923 -0.0357
 5261TIP3    H115747   5.696   4.005   3.769  1.7712  0.5920  0.8230
 5261TIP3    H215748   5.805   3.903   3.746 -0.3704 -1.4173 -0.8672
 5262TIP3   OH215749   2.829   6.297   0.180 -0.1809  0.3012 -0.2021
 5262TIP3    H115750   2.741   6.324   0.156 -0.6472 -0.9360  0.0339
 5262TIP3    H215751   2.877   6.294   0.097 -0.6869 -0.1613 -0.4812
 5263TIP3   OH215752   4.338   2.863   4.525 -0.5149 -0.1842 -0.2583
 5263TIP3    H115753   4.335   2.777   4.483  0.3818  0.0010 -0.7289
 5263TIP3    H215754   4.270   2.860   4.592 -0.7038 -1.1481 -0.4846
 5264TIP3   OH215755   2.057   5.626   1.539 -0.0044  0.2798  0.0747
 5264TIP3    H115756   2.094   5.635   1.627  0.8805  0.2156 -0.2844
 5264TIP3    H215757   2.065   5.713   1.501 -0.0376  0.2146 -0.0814
 5265TIP3   OH215758   6.483   4.094   4.327 -0.5964 -0.7075 -0.9418
 5265TIP3    H115759   6.403   4.134   4.360 -0.1868 -1.2443  0.8264
 5265TIP3    H215760   6.540   4.088   4.404  0.9172 -0.8686 -2.0327
 5266TIP3   OH215761   4.040   2.126   3.718  0.0343 -0.4842 -0.3329
 5266TIP3    H115762   4.034   2.102   3.625 -0.6553 -0.8825 -0.1947
 5266TIP3    H215763   4.100   2.200   3.720  0.4319 -0.7765 -1.0457
 5267TIP3   OH215764   4.953   3.218   0.933  0.3881 -0.2531 -0.2682
 5267TIP3    H115765   4.912   3.166   1.002 -1.3419  2.7202  1.1185
 5267TIP3    H215766   5.009   3.156   0.886 -1.1056 -3.1759  1.5599
 5268TIP3   OH215767   4.792   5.582   3.334 -0.0521  0.0823  0.5525
 5268TIP3    H115768   4.715   5.529   3.318  1.3552 -1.8221 -0.2201
 5268TIP3    H215769   4.864   5.520   3.340  1.4631  1.7916  1.1638
 5269TIP3   OH215770   5.518   4.583   4.190 -0.6790 -0.7260 -0.2030
 5269TIP3    H115771   5.572   4.553   4.264 -0.2607  0.3568 -0.0418
 5269TIP3    H215772   5.551   4.533   4.115 -0.2585 -0.9449  0.1178
 5270TIP3   OH215773   5.555   1.456   1.579  0.2534  0.2826  0.4802
 5270TIP3    H115774   5.639   1.485   1.545 -0.9454  0.8641 -2.2482
 5270TIP3    H215775   5.523   1.393   1.514 -2.1983  1.4405  0.4490
 5271TIP3   OH215776   6.420   0.418   5.574  0.8213 -0.1877 -0.0836
 5271TIP3    H115777   6.514   0.427   5.588  0.9275  1.7264 -1.5621
 5271TIP3    H215778   6.387   0.508   5.572 -0.9306 -0.7848 -0.3718
 5272TIP3   OH215779   5.199   6.585   1.510  0.3291 -0.7619  0.6653
 5272TIP3    H115780   5.286   6.598   1.548 -0.5818  0.6117  2.4686
 5272TIP3    H215781   5.146   6.552   1.583 -0.9072 -0.4921 -0.0860
 5273TIP3   OH215782   4.449   0.769   0.701 -0.1350  0.3561 -0.0909
 5273TIP3    H115783   4.522   0.777   0.761  0.0593 -2.4083  0.2009
 5273TIP3    H215784   4.489   0.759   0.614 -0.1875 -0.2611 -0.0488
 5274TIP3   OH215785   6.815   6.564   3.043  0.8374  0.0576 -0.1905
 5274TIP3    H115786   6.751   6.634   3.058  1.2842  0.6791 -1.0820
 5274TIP3    H215787   6.891   6.609   3.005  0.7503 -1.0492 -1.7429
 5275TIP3   OH215788   4.073   0.297   3.039  0.1525 -0.1375 -0.5861
 5275TIP3    H115789   4.071   0.300   2.943 -1.3733  0.1464 -0.5632
 5275TIP3    H215790   4.119   0.378   3.064  0.4009 -0.1234 -1.0598
 5276TIP3   OH215791   1.945   0.088   0.334  0.0674 -0.0601 -0.3780
 5276TIP3    H115792   1.982   0.008   0.370 -2.7450 -1.0907  0.4619
 5276TIP3    H215793   1.985   0.158   0.386  0.8802 -1.0584  0.3958
 5277TIP3   OH215794   4.580   1.268   3.877 -0.0601 -0.3715  0.8191
 5277TIP3    H115795   4.660   1.313   3.849 -0.8011  1.5189  1.5015
 5277TIP3    H215796   4.597   1.245   3.968 -0.0991 -0.4357  0.8098
 5278TIP3   OH215797   1.129   2.687   5.178  0.1561 -0.0491  0.1418
 5278TIP3    H115798   1.092   2.605   5.146  1.0989 -0.8320  0.9935
 5278TIP3    H215799   1.140   2.674   5.272 -0.0329  1.1976  0.3598
 5279TIP3   OH215800   0.842   6.121   1.175 -0.2858  0.0188 -0.0887
 5279TIP3    H115801   0.898   6.152   1.104 -0.5619 -1.3941 -0.9749
 5279TIP3    H215802   0.788   6.053   1.135 -1.1783 -0.0929  1.2399
 5280TIP3   OH215803   0.512   3.417   4.728  0.2308  0.1760  0.0077
 5280TIP3    H115804   0.463   3.498   4.738 -0.4265 -0.1312 -0.6013
 5280TIP3    H215805   0.446   3.348   4.736  0.2110 -0.1978 -2.4232
 5281TIP3   OH215806   5.014   2.661   4.467 -0.3935 -0.3500  0.7191
 5281TIP3    H115807   5.050   2.591   4.413 -1.5159 -1.9687  1.9839
 5281TIP3    H215808   5.012   2.737   4.408  2.6621 -0.7921 -0.1192
 5282TIP3   OH215809   0.177   5.553   4.914 -0.1696  0.3505  0.3073
 5282TIP3    H115810   0.117   5.496   4.866  0.0820 -0.5994  1.0871
 5282TIP3    H215811   0.132   5.637   4.919 -0.3786  0.3524 -1.2091
 5283TIP3   OH215812   5.072   3.717   3.590 -0.0884 -0.3642  0.3911
 5283TIP3    H115813   5.088   3.714   3.496 -1.0600  0.3783  0.1840
 5283TIP3    H215814   5.158   3.733   3.628  0.3143 -0.6572 -0.3653
 5284TIP3   OH215815   4.891   5.319   5.441 -0.1085  0.5344 -0.1351
 5284TIP3    H115816   4.845   5.365   5.371  1.8437  2.8098 -0.0844
 5284TIP3    H215817   4.936   5.389   5.489  2.3768 -1.3926  0.5258
 5285TIP3   OH215818   6.802   2.986   2.313  0.2778  0.7008 -0.0610
 5285TIP3    H115819   6.777   2.910   2.365 -0.4513  1.3820  0.5907
 5285TIP3    H215820   6.736   3.052   2.332  0.3677  1.1917 -1.3450
 5286TIP3   OH215821   1.121   0.089   0.556  0.8800  0.0910 -0.1531
 5286TIP3    H115822   1.182   0.160   0.573  2.2001 -0.6159 -1.6160
 5286TIP3    H215823   1.109   0.090   0.461  0.6363 -1.3986 -0.1607
 5287TIP3   OH215824   6.455   0.766   3.397  0.0752 -0.6067 -0.3216
 5287TIP3    H115825   6.538   0.784   3.442 -1.1899  0.8540  1.6061
 5287TIP3    H215826   6.416   0.693   3.446 -0.4404 -0.2934 -0.2548
 5288TIP3   OH215827   3.107   3.578   4.101  0.5053 -0.2137 -0.6338
 5288TIP3    H115828   3.173   3.635   4.140  0.8024 -0.7499 -0.3401
 5288TIP3    H215829   3.154   3.531   4.032  0.8218 -1.6521  0.5096
 5289TIP3   OH215830   1.572   0.955   1.878  0.2805  0.2128  0.0718
 5289TIP3    H115831   1.646   0.899   1.899  0.7494  0.7691 -0.0666
 5289TIP3    H215832   1.541   0.924   1.793  0.0648 -0.3113  0.3366
 5290TIP3   OH215833   1.264   3.690   0.855  0.5773 -0.4410 -0.2852
 5290TIP3    H115834   1.312   3.658   0.931 -0.0422  1.4070  0.9461
 5290TIP3    H215835   1.331   3.727   0.798  0.9938 -1.4101 -0.4487
 5291TIP3   OH215836   3.487   4.051   3.537  1.0192 -0.0719 -0.0218
 5291TIP3    H115837   3.418   4.029   3.474  0.3643  0.8521  0.3381
 5291TIP3    H215838   3.450   4.124   3.587  2.3849  0.6224 -0.0043
 5292TIP3   OH215839   2.249   2.523   2.484  0.0988  0.5033 -0.5333
 5292TIP3    H115840   2.338   2.498   2.458 -0.5549 -0.7865 -1.6439
 5292TIP3    H215841   2.192   2.476   2.423 -1.3137  3.3419 -1.5466
 5293TIP3   OH215842   6.950   4.279   4.790 -0.1497  0.4061 -0.5296
 5293TIP3    H115843   6.933   4.370   4.811 -1.4271 -0.4086  2.5676
 5293TIP3    H215844   7.038   4.262   4.825 -0.8445 -0.0593  1.0919
 5294TIP3   OH215845   4.352   4.138   1.319  0.1110  0.0613 -0.2477
 5294TIP3    H115846   4.364   4.123   1.226 -0.2294 -1.4670 -0.0864
 5294TIP3    H215847   4.263   4.106   1.337 -0.8029  2.6314  0.1891
 5295TIP3   OH215848   0.057   0.711   2.662  0.5628 -0.0004 -0.0378
 5295TIP3    H115849   0.043   0.616   2.664 -0.2616  0.1114 -0.0113
 5295TIP3    H215850   0.152   0.721   2.653  0.6599 -0.8253 -0.0480
 5296TIP3   OH215851   3.572   5.968   3.395  0.0408  0.0687 -0.2044
 5296TIP3    H115852   3.617   6.040   3.441 -0.8253 -0.4079  1.4717
 5296TIP3    H215853   3.494   6.009   3.358 -0.0274  0.1678  0.0434
 5297TIP3   OH215854   5.031   5.708   0.665  0.4573  0.4890 -0.7003
 5297TIP3    H115855   4.953   5.657   0.643  1.5602 -1.2463 -0.7529
 5297TIP3    H215856   4.997   5.783   0.714 -1.3326  0.4038 -1.7295
 5298TIP3   OH215857   0.609   1.592   0.968 -0.0674 -0.2225 -0.0528
 5298TIP3    H115858   0.682   1.634   1.014 -1.1951  0.8771  0.7851
 5298TIP3    H215859   0.641   1.503   0.950  1.5297  0.2797  0.1380
 5299TIP3   OH215860   2.384   5.142   1.134  0.7396  0.3191 -0.5279
 5299TIP3    H115861   2.406   5.177   1.220 -0.0072 -0.6929  0.0895
 5299TIP3    H215862   2.297   5.178   1.115  1.1052  0.9306 -1.0856
 5300TIP3   OH215863   4.846   2.222   2.451  0.2419  0.4352 -0.2106
 5300TIP3    H115864   4.925   2.187   2.410  0.0988  0.4736 -0.5182
 5300TIP3    H215865   4.856   2.317   2.446 -0.3207  0.4458 -1.2134
 5301TIP3   OH215866   5.864   1.433   3.945  0.1346  0.2879 -0.4924
 5301TIP3    H115867   5.939   1.456   3.890  0.1083 -0.9522 -1.0956
 5301TIP3    H215868   5.789   1.472   3.900  0.0176 -1.3214 -1.8148
 5302TIP3   OH215869   5.438   2.640   3.891  0.1230  0.3535  0.4755
 5302TIP3    H115870   5.397   2.561   3.857 -2.2277  0.8036  2.0039
 5302TIP3    H215871   5.365   2.701   3.904  1.4580  1.7002  2.1079
 5303TIP3   OH215872   7.044   5.288   1.772  0.2759  0.3160  0.1134
 5303TIP3    H115873   7.012   5.377   1.789  1.1970  0.6734  0.0152
 5303TIP3    H215874   6.981   5.231   1.817 -0.5800  0.9936 -0.2083
 5304TIP3   OH215875   0.919   1.995   0.615 -0.1967 -0.4888 -0.0080
 5304TIP3    H115876   0.912   2.057   0.688  0.1241  0.3153 -0.6532
 5304TIP3    H215877   0.881   1.914   0.650 -0.8335  0.1223  0.7796
 5305TIP3   OH215878   6.923   4.368   3.567  0.2341  0.0884  0.7996
 5305TIP3    H115879   6.920   4.445   3.511 -1.5156  0.8314  1.8321
 5305TIP3    H215880   6.831   4.342   3.578  0.6939 -1.4240  1.4546
 5306TIP3   OH215881   6.668   3.676   2.135  0.0609 -0.1279 -0.1054
 5306TIP3    H115882   6.702   3.750   2.083 -0.9093 -0.5520 -1.4117
 5306TIP3    H215883   6.575   3.672   2.111 -0.2564 -0.7813  1.1814
 5307TIP3   OH215884   1.565   5.556   4.633  0.0538  0.0669 -0.5727
 5307TIP3    H115885   1.643   5.610   4.623 -0.1525  1.0162  2.0469
 5307TIP3    H215886   1.598   5.472   4.667  0.0566 -0.1769 -1.1605
 5308TIP3   OH215887   6.426   6.074   1.347  0.0299 -0.0710  0.5140
 5308TIP3    H115888   6.421   5.990   1.394 -1.4726 -0.2179  0.1330
 5308TIP3    H215889   6.476   6.131   1.405 -1.4822 -0.3562  2.1777
 5309TIP3   OH215890   0.405   0.491   2.287  0.4303 -0.1926 -0.2588
 5309TIP3    H115891   0.401   0.511   2.194 -0.5103  2.3589  0.2370
 5309TIP3    H215892   0.448   0.406   2.292 -0.5102 -0.9257 -3.0559
 5310TIP3   OH215893   2.526   5.122   0.166  0.2125 -0.2327 -0.1817
 5310TIP3    H115894   2.533   5.027   0.167  0.1506 -0.2474 -0.6032
 5310TIP3    H215895   2.585   5.152   0.235  0.9680 -0.5360 -0.6820
 5311TIP3   OH215896   0.409   3.406   3.909 -0.6310  0.1353  0.3021
 5311TIP3    H115897   0.433   3.481   3.963 -0.4598 -0.7424  1.4760
 5311TIP3    H215898   0.369   3.344   3.969  0.5541 -1.3264 -0.3436
 5312TIP3   OH215899   1.350   4.445   4.611 -0.6555  0.3237 -0.4365
 5312TIP3    H115900   1.406   4.390   4.665  0.5510  1.3717 -0.5854
 5312TIP3    H215901   1.409   4.486   4.548 -1.8698  0.0097 -1.8496
 5313TIP3   OH215902   1.772   3.140   1.062 -0.4470  0.3387 -0.2714
 5313TIP3    H115903   1.714   3.083   1.012 -1.4979  1.1581 -0.0325
 5313TIP3    H215904   1.726   3.156   1.145 -0.2207  1.5476 -0.3486
 5314TIP3   OH215905   6.001   2.273   0.651  0.0558  0.0969  0.4726
 5314TIP3    H115906   5.915   2.305   0.625 -0.2208 -1.1518 -0.2561
 5314TIP3    H215907   6.062   2.343   0.627 -0.7180  0.8349  0.6548
 5315TIP3   OH215908   5.758   0.217   5.541  0.0326 -0.2488  0.7656
 5315TIP3    H115909   5.763   0.235   5.447 -0.2794  0.5846  0.9029
 5315TIP3    H215910   5.692   0.148   5.547 -0.0233 -0.2341  0.3806
 5316TIP3   OH215911   1.571   3.759   5.639  0.6581  0.3303  0.1418
 5316TIP3    H115912   1.545   3.845   5.673 -1.3514  0.4266 -1.5203
 5316TIP3    H215913   1.493   3.705   5.647  0.9400 -0.4202 -1.7762
 5317TIP3   OH215914   6.738   3.479   3.057 -0.2641 -0.7276  0.1624
 5317TIP3    H115915   6.789   3.403   3.029 -0.6255 -0.7474 -0.4598
 5317TIP3    H215916   6.791   3.520   3.125  1.1867 -0.0306 -1.3422
 5318TIP3   OH215917   1.670   3.916   4.322  0.1237 -0.4018 -0.1888
 5318TIP3    H115918   1.734   3.893   4.390  0.6052 -1.0869 -0.8635
 5318TIP3    H215919   1.633   3.832   4.295  1.7693 -0.4537 -2.5560
 5319TIP3   OH215920   0.584   4.541   2.568  0.0980  0.6466 -0.2215
 5319TIP3    H115921   0.671   4.575   2.589 -0.3040  1.1557  0.6347
 5319TIP3    H215922   0.597   4.446   2.562  0.9501  0.8150 -1.3105
 5320TIP3   OH215923   3.596   3.529   0.084 -0.0659 -0.0337 -0.2472
 5320TIP3    H115924   3.604   3.434   0.096 -0.3443 -0.0521 -0.2121
 5320TIP3    H215925   3.672   3.565   0.130  0.9658 -0.3363 -1.6635
 5321TIP3   OH215926   4.337   6.100   2.233  0.1130  0.3318  0.4249
 5321TIP3    H115927   4.360   6.013   2.202  1.5449  0.8289 -0.0161
 5321TIP3    H215928   4.409   6.124   2.292  0.6294  1.8306 -0.7248
 5322TIP3   OH215929   4.170   3.457   0.792  0.6400  0.4176 -0.1574
 5322TIP3    H115930   4.134   3.545   0.783  0.1510  0.1868 -0.5337
 5322TIP3    H215931   4.144   3.412   0.712 -0.9118 -0.6873  0.8871
 5323TIP3   OH215932   0.176   1.318   2.438 -0.2231  0.2445  0.6699
 5323TIP3    H115933   0.234   1.251   2.475 -1.6629 -1.3015  0.2312
 5323TIP3    H215934   0.163   1.380   2.510 -1.6488 -1.8330  2.3381
 5324TIP3   OH215935   0.277   1.037   5.681  0.1872 -0.0240  0.0933
 5324TIP3    H115936   0.218   1.048   5.607 -0.3129  0.9959  0.6284
 5324TIP3    H215937   0.270   0.944   5.703 -0.4776 -0.1108 -0.4567
 5325TIP3   OH215938   3.357   3.437   2.482  0.3291 -0.7078  0.1242
 5325TIP3    H115939   3.361   3.344   2.507  2.1928 -0.1767  2.1671
 5325TIP3    H215940   3.448   3.460   2.465 -0.0255  0.8908  0.2804
 5326TIP3   OH215941   5.279   4.242   2.954  0.1262 -0.2735 -0.6774
 5326TIP3    H115942   5.316   4.199   3.031  0.2243 -0.0719 -0.6107
 5326TIP3    H215943   5.261   4.171   2.893 -2.0719 -0.7344  0.3743
 5327TIP3   OH215944   5.330   6.353   5.396 -0.2100  0.1665  0.2462
 5327TIP3    H115945   5.270   6.281   5.411 -0.7765  0.8295  1.2968
 5327TIP3    H215946   5.398   6.343   5.463  0.1154  0.1944 -0.0738
 5328TIP3   OH215947   0.476   6.324   2.207  0.0527 -0.3349 -0.4033
 5328TIP3    H115948   0.543   6.310   2.274  0.9165  0.0637 -1.1585
 5328TIP3    H215949   0.464   6.419   2.205  1.1557 -0.1838 -1.8363
 5329TIP3   OH215950   1.615   1.276   1.355 -0.1925 -0.7465  0.0738
 5329TIP3    H115951   1.647   1.277   1.265 -1.8982 -0.3984 -0.5829
 5329TIP3    H215952   1.550   1.205   1.356  0.6964 -1.5755  1.3904
 5330TIP3   OH215953   4.325   6.540   1.052 -0.0247 -0.5256 -0.4269
 5330TIP3    H115954   4.300   6.629   1.030  2.1675  0.5461  1.0449
 5330TIP3    H215955   4.242   6.494   1.064 -1.4998  2.5269  3.3075
 5331TIP3   OH215956   5.594   3.605   3.627 -0.0942  0.1282  0.1708
 5331TIP3    H115957   5.535   3.600   3.702 -1.5952  1.2827 -0.8628
 5331TIP3    H215958   5.573   3.690   3.587  2.0971  0.4531 -0.4032
 5332TIP3   OH215959   6.974   6.025   5.877  0.0460 -0.6122 -0.2741
 5332TIP3    H115960   6.930   5.947   5.912 -0.3409  0.4498  1.7681
 5332TIP3    H215961   6.906   6.071   5.828  0.4229 -1.7940 -1.9873
 5333TIP3   OH215962   0.955   2.583   1.480 -0.0303  0.0270  0.0427
 5333TIP3    H115963   1.004   2.567   1.561  0.5108  0.3934 -0.2058
 5333TIP3    H215964   1.013   2.638   1.427 -1.1148  1.3352  0.1492
 5334TIP3   OH215965   0.565   4.132   2.766  0.3926 -0.1726  0.1122
 5334TIP3    H115966   0.644   4.112   2.816  0.0335 -1.2573  0.2785
 5334TIP3    H215967   0.497   4.141   2.833  0.4199  1.0268 -0.0117
 5335TIP3   OH215968   2.103   4.086   1.958 -0.2743 -0.3488 -0.0825
 5335TIP3    H115969   2.103   4.174   1.995  2.2154  0.6301 -2.1307
 5335TIP3    H215970   2.031   4.087   1.894  2.1502  1.7602 -3.0864
 5336TIP3   OH215971   1.278   1.845   0.180  0.1513  0.2775  0.1625
 5336TIP3    H115972   1.355   1.886   0.219 -1.0917  3.6926 -0.6945
 5336TIP3    H215973   1.288   1.861   0.086 -0.9720 -0.4344 -0.0966
 5337TIP3   OH215974   6.184   0.520   1.765  0.3749 -0.4462  0.3781
 5337TIP3    H115975   6.150   0.570   1.839  0.3626 -0.2343  0.2305
 5337TIP3    H215976   6.159   0.430   1.783 -0.3560 -0.2766  0.2135
 5338TIP3   OH215977   5.102   5.164   3.977 -0.5751  0.0075  0.1944
 5338TIP3    H115978   5.060   5.078   3.987 -0.0603 -0.1200  1.5607
 5338TIP3    H215979   5.194   5.148   3.996  0.1149  0.3481 -2.4612
 5339TIP3   OH215980   0.396   1.600   4.694  0.0926 -0.1370  0.4154
 5339TIP3    H115981   0.423   1.533   4.631 -2.0884  0.2844 -1.0599
 5339TIP3    H215982   0.364   1.551   4.769 -1.6977 -0.8289 -0.7362
 5340TIP3   OH215983   0.085   5.139   0.807  0.0347 -0.3075  0.5648
 5340TIP3    H115984   0.060   5.222   0.765 -0.2444 -1.0715 -0.8508
 5340TIP3    H215985   0.006   5.112   0.855  0.1927  0.3306  1.1977
 5341TIP3   OH215986   2.099   3.994   1.035  0.5616 -0.2907  0.2509
 5341TIP3    H115987   2.097   4.031   1.123 -1.1182  0.0598  0.0885
 5341TIP3    H215988   2.187   4.014   1.003  0.1165  2.6215  0.5973
 5342TIP3   OH215989   2.059   2.954   3.666 -0.3224 -0.2748  0.2166
 5342TIP3    H115990   2.029   2.936   3.577  1.0301  0.8867 -0.5037
 5342TIP3    H215991   1.978   2.959   3.717 -1.2034  0.2035 -1.1569
 5343TIP3   OH215992   4.530   1.949   0.728 -0.0090 -0.2951  0.3666
 5343TIP3    H115993   4.529   1.996   0.645  0.5586  0.3297  0.7011
 5343TIP3    H215994   4.588   1.874   0.712  0.7370  0.2612  0.4221
 5344TIP3   OH215995   4.599   6.572   5.218 -0.1134 -0.5201 -0.4593
 5344TIP3    H115996   4.633   6.516   5.288 -0.4133 -2.8384 -2.0482
 5344TIP3    H215997   4.670   6.633   5.199  0.3769 -0.5732  1.0912
 5345TIP3   OH215998   4.563   1.670   1.000  0.5197 -0.7249  0.2756
 5345TIP3    H115999   4.505   1.711   1.064 -0.4720  0.3066 -1.1908
 5345TIP3    H216000   4.642   1.725   1.000 -0.0243  0.0821 -0.3116
 5346TIP3   OH216001   3.045   6.369   4.608  0.8212 -0.3984 -0.0888
 5346TIP3    H116002   3.071   6.323   4.529  0.1648  0.0483 -0.5783
 5346TIP3    H216003   3.126   6.382   4.657  1.0197 -2.0406  0.0580
 5347TIP3   OH216004   5.039   6.130   1.563  0.0979  1.0442 -0.5222
 5347TIP3    H116005   5.016   6.040   1.541  1.9868  0.2954  0.3097
 5347TIP3    H216006   4.980   6.153   1.635  0.4199  0.0129  0.0919
 5348TIP3   OH216007   3.273   1.725   5.512 -0.2875  0.2376 -0.1180
 5348TIP3    H116008   3.355   1.773   5.524  0.1079 -0.4950  0.2110
 5348TIP3    H216009   3.225   1.739   5.593  1.0273 -2.1348  1.1989
 5349TIP3   OH216010   5.110   1.601   2.151 -0.4906 -0.1346 -0.2830
 5349TIP3    H116011   5.161   1.590   2.071  0.3422  0.1338  0.2017
 5349TIP3    H216012   5.032   1.650   2.123 -1.5889 -2.3942 -1.4314
 5350TIP3   OH216013   0.260   3.052   3.956  0.1831 -0.4745  0.4881
 5350TIP3    H116014   0.240   3.085   3.868  2.6609 -0.0719  0.0261
 5350TIP3    H216015   0.230   3.122   4.014  1.4732  0.7391 -0.2483
 5351TIP3   OH216016   1.915   1.072   5.284  0.2163 -0.0104  0.1088
 5351TIP3    H116017   1.857   1.018   5.231  0.3322  0.4563 -0.4987
 5351TIP3    H216018   1.862   1.149   5.306  0.0323 -0.3715  1.0189
 5352TIP3   OH216019   6.662   6.276   4.883 -0.3612  0.1847  0.5144
 5352TIP3    H116020   6.666   6.307   4.973  0.3123 -0.9253  0.8937
 5352TIP3    H216021   6.573   6.245   4.872 -0.4257  0.2553  0.8279
 5353TIP3   OH216022   1.854   0.395   5.330 -0.2040 -0.2294 -0.3066
 5353TIP3    H116023   1.820   0.322   5.380 -0.0508  1.5005  2.5196
 5353TIP3    H216024   1.941   0.411   5.365 -0.2515  1.3416 -0.8033
 5354TIP3   OH216025   6.783   1.996   2.323  0.0652 -0.0692  0.4358
 5354TIP3    H116026   6.758   1.931   2.257  0.0436  0.2264  0.1506
 5354TIP3    H216027   6.787   1.946   2.405 -1.1596 -0.1874  0.4390
 5355TIP3   OH216028   4.675   2.171   2.233 -0.2854 -0.5147 -0.0491
 5355TIP3    H116029   4.701   2.177   2.325 -4.1026 -0.3436  1.1818
 5355TIP3    H216030   4.747   2.212   2.186  3.7572 -4.0074  2.3086
 5356TIP3   OH216031   6.030   1.025   4.562 -0.8768  0.7246 -0.1245
 5356TIP3    H116032   5.988   1.061   4.484 -0.7827  1.5973  0.2107
 5356TIP3    H216033   6.095   1.091   4.586  0.8028 -0.6481 -0.7076
 5357TIP3   OH216034   2.394   6.332   5.825  0.0938  0.6178  0.3196
 5357TIP3    H116035   2.416   6.263   5.762 -0.0763  1.0310 -0.1926
 5357TIP3    H216036   2.479   6.363   5.857  0.1652 -0.7149  1.5441
 5358TIP3   OH216037   5.239   2.116   1.594  0.6431 -0.5476 -0.1089
 5358TIP3    H116038   5.227   2.154   1.682 -2.3035 -1.2012 -0.1354
 5358TIP3    H216039   5.282   2.032   1.610  0.8402 -0.3193  0.6235
 5359TIP3   OH216040   4.504   1.829   2.187 -0.1314 -0.1760  0.4257
 5359TIP3    H116041   4.595   1.814   2.213 -0.1024 -2.7583 -0.8450
 5359TIP3    H216042   4.510   1.867   2.100 -0.2377 -1.2137 -0.0476
 5360TIP3   OH216043   3.089   4.736   2.859  0.5340 -0.1314 -0.4534
 5360TIP3    H116044   3.140   4.722   2.939 -0.0958  1.9504  0.3797
 5360TIP3    H216045   3.155   4.743   2.790  1.2559  0.5013  0.2797
 5361TIP3   OH216046   4.512   0.083   4.669 -0.7541 -0.0290  0.4942
 5361TIP3    H116047   4.434   0.060   4.617 -0.5360 -1.1160  0.6236
 5361TIP3    H216048   4.489   0.059   4.759 -0.2562 -0.4099  0.5231
 5362TIP3   OH216049   5.653   6.278   0.577  0.2064  0.2590  0.1980
 5362TIP3    H116050   5.660   6.313   0.488 -0.1632  1.0676  0.4802
 5362TIP3    H216051   5.668   6.184   0.566 -2.2811 -0.0974 -1.0940
 5363TIP3   OH216052   5.099   5.548   0.856 -0.8653  0.3299  0.3836
 5363TIP3    H116053   5.012   5.524   0.888 -0.6562 -0.0913  0.6437
 5363TIP3    H216054   5.082   5.611   0.786 -1.5324 -1.8651 -1.5767
 5364TIP3   OH216055   1.248   0.196   1.343  0.4043 -0.0364 -0.2607
 5364TIP3    H116056   1.278   0.129   1.405  0.5109 -0.7299 -1.0514
 5364TIP3    H216057   1.307   0.271   1.359  1.2052 -0.6372 -0.3588
 5365TIP3   OH216058   2.610   6.760   5.231 -0.2298 -0.3285 -0.2250
 5365TIP3    H116059   2.691   6.714   5.255  0.1945  0.2189 -0.5701
 5365TIP3    H216060   2.595   6.820   5.304  0.5606  0.6901 -0.8631
 5366TIP3   OH216061   0.451   5.870   0.187 -0.5508 -0.4911 -0.1241
 5366TIP3    H116062   0.469   5.780   0.161 -0.0237 -0.8679  1.4437
 5366TIP3    H216063   0.536   5.905   0.215 -0.5563  0.8318 -1.6203
 5367TIP3   OH216064   0.467   1.406   4.531 -0.4169 -1.0274  0.2128
 5367TIP3    H116065   0.396   1.352   4.496  0.3202 -1.3346 -0.8400
 5367TIP3    H216066   0.498   1.456   4.456  0.8364 -1.2888  0.5405
 5368TIP3   OH216067   6.144   5.900   1.500 -0.0316 -0.2637  0.2219
 5368TIP3    H116068   6.182   5.859   1.423  1.2056  1.0658  0.0999
 5368TIP3    H216069   6.101   5.828   1.546 -0.9491 -1.0616 -1.7660
 5369TIP3   OH216070   3.416   2.525   0.781  0.2905 -0.0328 -0.3705
 5369TIP3    H116071   3.480   2.492   0.843 -0.3279  0.1325  0.3784
 5369TIP3    H216072   3.331   2.507   0.823 -0.0968  1.2849 -0.5481
 5370TIP3   OH216073   4.931   1.138   0.302  0.0588 -0.0747  0.4382
 5370TIP3    H116074   4.864   1.157   0.237 -0.6476 -1.1515  0.8407
 5370TIP3    H216075   4.974   1.059   0.270  2.1730  1.3656 -0.5934
 5371TIP3   OH216076   5.946   1.735   3.346 -0.3591 -0.3545  0.3283
 5371TIP3    H116077   5.897   1.724   3.265 -1.1475  0.7462  0.6197
 5371TIP3    H216078   5.900   1.681   3.410 -0.5262 -0.1963  0.3423
 5372TIP3   OH216079   5.460   4.344   2.462  0.2335 -0.4528 -0.0047
 5372TIP3    H116080   5.459   4.354   2.367 -2.1822  0.3891  0.0304
 5372TIP3    H216081   5.391   4.280   2.480  1.0989 -1.1067  1.1634
 5373TIP3   OH216082   5.034   5.085   2.631  0.4399 -0.3148 -0.3974
 5373TIP3    H116083   4.954   5.034   2.631  0.3731 -0.2103 -0.4230
 5373TIP3    H216084   5.104   5.020   2.617  0.7908 -1.0213  3.5976
 5374TIP3   OH216085   5.885   1.039   0.575  0.0776 -0.7406 -0.3671
 5374TIP3    H116086   5.942   1.077   0.642  1.2190 -1.9268 -0.6220
 5374TIP3    H216087   5.863   0.952   0.609 -0.4979 -0.8045 -0.8872
 5375TIP3   OH216088   1.475   4.693   3.843  0.3437 -0.9027  0.2861
 5375TIP3    H116089   1.418   4.677   3.768 -0.0463  1.7503 -0.0654
 5375TIP3    H216090   1.423   4.746   3.903  1.3017 -1.3447  1.5767
 5376TIP3   OH216091   0.788   1.117   4.337 -0.1937  0.2180  0.5167
 5376TIP3    H116092   0.768   1.149   4.425  0.4788 -0.7662  1.0375
 5376TIP3    H216093   0.852   1.180   4.302 -1.4017  1.3306  0.2190
 5377TIP3   OH216094   0.893   4.609   0.999 -0.8611  0.2691  0.6106
 5377TIP3    H116095   0.905   4.698   1.034  0.5450  0.9790 -1.4844
 5377TIP3    H216096   0.823   4.618   0.935 -1.8108 -0.5187  1.5030
 5378TIP3   OH216097   1.195   3.019   3.345 -0.0056  0.1424 -0.6686
 5378TIP3    H116098   1.184   2.939   3.295  1.8207 -0.9806  0.6121
 5378TIP3    H216099   1.280   3.054   3.316  0.4768  0.1523  0.6814
 5379TIP3   OH216100   3.327   5.081   1.672  0.1632 -0.0986  0.6939
 5379TIP3    H116101   3.414   5.063   1.637  1.1715  0.9148  2.5167
 5379TIP3    H216102   3.276   5.003   1.653  1.9302 -1.3716  0.9732
 5380TIP3   OH216103   4.692   6.209   4.809 -0.2411 -0.3623 -0.3399
 5380TIP3    H116104   4.654   6.266   4.876 -0.0514 -0.0349 -0.5058
 5380TIP3    H216105   4.775   6.251   4.787 -1.2042  0.6868 -2.2545
 5381TIP3   OH216106   2.908   2.806   3.265  0.2144 -0.3735  0.3259
 5381TIP3    H116107   2.891   2.896   3.296 -1.6522 -0.5913  0.0284
 5381TIP3    H216108   2.845   2.752   3.314  1.7777 -1.6448  1.0123
 5382TIP3   OH216109   2.473   6.142   1.149  0.1235 -0.3133  0.3092
 5382TIP3    H116110   2.447   6.232   1.129  2.8347  0.5472  0.2102
 5382TIP3    H216111   2.453   6.132   1.242 -0.0455  0.4639  0.3695
 5383TIP3   OH216112   2.462   1.875   4.980 -0.1760  0.4545 -0.4225
 5383TIP3    H116113   2.515   1.916   5.048 -2.4774  0.1877  1.6451
 5383TIP3    H216114   2.427   1.796   5.020 -0.9903 -0.1459 -2.1912
 5384TIP3   OH216115   5.545   3.986   1.933 -0.1378  0.3694  0.6579
 5384TIP3    H116116   5.524   4.055   1.870 -1.3134  0.3513  1.0174
 5384TIP3    H216117   5.564   3.910   1.879  1.3186  0.9918  0.2514
 5385TIP3   OH216118   1.473   0.857   3.972 -0.1901 -0.2455 -0.3702
 5385TIP3    H116119   1.548   0.885   3.920 -0.6238 -0.1597 -0.9497
 5385TIP3    H216120   1.513   0.820   4.052  0.4274  0.7012 -0.2226
 5386TIP3   OH216121   3.197   2.521   5.542 -0.2299 -0.2211 -0.2354
 5386TIP3    H116122   3.218   2.430   5.562 -2.4477 -0.9091 -0.8443
 5386TIP3    H216123   3.160   2.520   5.454 -1.6124  1.0295  0.2769
 5387TIP3   OH216124   6.563   0.804   4.591  0.0667 -0.1464 -0.2208
 5387TIP3    H116125   6.614   0.765   4.521  1.6860  1.1657  0.1681
 5387TIP3    H216126   6.506   0.733   4.622 -0.4507 -0.8352 -2.5911
 5388TIP3   OH216127   2.771   6.748   0.327 -0.0384 -0.1599  0.0856
 5388TIP3    H116128   2.848   6.757   0.271  0.1082 -2.3872 -0.1742
 5388TIP3    H216129   2.701   6.792   0.279  0.8390  1.0332 -0.1398
 5389TIP3   OH216130   3.323   1.812   0.834  0.5651  0.6094  0.3445
 5389TIP3    H116131   3.285   1.848   0.754 -0.8493  0.2498  0.8298
 5389TIP3    H216132   3.363   1.729   0.807  0.4535  0.6865 -0.0617
 5390TIP3   OH216133   2.920   3.665   5.558 -0.1933 -0.4353  0.0670
 5390TIP3    H116134   2.929   3.747   5.510 -0.0352 -0.1205  0.6224
 5390TIP3    H216135   2.952   3.685   5.646 -0.0387 -1.1267  0.1748
 5391TIP3   OH216136   4.533   3.098   3.395 -0.0183 -0.3956 -0.1620
 5391TIP3    H116137   4.508   3.091   3.303  1.2910 -0.8578 -0.5001
 5391TIP3    H216138   4.474   3.165   3.430 -0.5907 -0.2665 -1.3081
 5392TIP3   OH216139   7.065   6.351   4.502 -0.1766  0.0259 -0.6292
 5392TIP3    H116140   7.074   6.431   4.552  1.3589  1.0127 -2.3796
 5392TIP3    H216141   7.141   6.298   4.527  0.9793  0.8074 -2.2952
 5393TIP3   OH216142   5.259   1.563   1.933 -0.4872 -0.4730  0.3459
 5393TIP3    H116143   5.317   1.487   1.926  0.3651  0.2840 -2.3337
 5393TIP3    H216144   5.299   1.628   1.875 -1.9724  1.4944  1.4301
 5394TIP3   OH216145   6.514   1.486   2.161 -0.6861  0.3312  0.2632
 5394TIP3    H116146   6.456   1.550   2.202  1.3960  1.2953  1.8836
 5394TIP3    H216147   6.528   1.420   2.230 -0.0402 -0.0105 -0.1913
 5395TIP3   OH216148   1.092   1.790   1.749 -0.5569 -0.6960  0.3662
 5395TIP3    H116149   1.037   1.848   1.802  1.2906 -0.1404  1.7581
 5395TIP3    H216150   1.167   1.844   1.724 -0.1228 -1.7239 -0.6366
 5396TIP3   OH216151   2.759   3.815   3.150  0.8007 -0.2438  0.2484
 5396TIP3    H116152   2.754   3.827   3.055 -0.7828 -1.5715  0.1162
 5396TIP3    H216153   2.794   3.726   3.161 -0.7529 -0.8214  0.8294
 5397TIP3   OH216154   7.233   6.674   5.417 -0.5056 -0.0479  0.3899
 5397TIP3    H116155   7.156   6.617   5.414 -0.7599  0.3408 -0.5388
 5397TIP3    H216156   7.197   6.762   5.421 -0.1011  0.1162  0.4206
 5398TIP3   OH216157   1.239   1.651   0.559 -0.1617  0.0718  0.2337
 5398TIP3    H116158   1.315   1.624   0.508 -0.6045 -0.0894 -0.3395
 5398TIP3    H216159   1.273   1.717   0.619  0.5235 -0.3273  0.2945
 5399TIP3   OH216160   5.933   2.296   0.975 -0.2204 -0.3748 -0.1478
 5399TIP3    H116161   6.007   2.241   0.950  1.4289  2.1636 -1.1599
 5399TIP3    H216162   5.904   2.337   0.893 -0.4600  1.3392  0.7403
 5400TIP3   OH216163   2.411   4.174   0.574 -0.1531 -0.3769 -0.7340
 5400TIP3    H116164   2.485   4.147   0.628 -1.3900  0.4420  1.5123
 5400TIP3    H216165   2.375   4.093   0.541 -1.3783 -1.3537  2.5609
 5401TIP3   OH216166   1.322   5.129   0.159 -0.2596  0.3160  0.1005
 5401TIP3    H116167   1.330   5.197   0.092 -0.9717  1.1897  0.8759
 5401TIP3    H216168   1.235   5.143   0.197 -0.6545 -1.4007 -0.1099
 5402TIP3   OH216169   0.697   5.034   3.652  0.1119 -0.1185 -0.4236
 5402TIP3    H116170   0.701   5.087   3.573  0.1539  1.0842  0.3521
 5402TIP3    H216171   0.756   5.078   3.713 -2.6961  1.2160  1.5404
 5403TIP3   OH216172   2.637   4.722   5.827 -0.0756  0.1492 -0.2651
 5403TIP3    H116173   2.690   4.668   5.769 -0.8901  0.1231 -1.0051
 5403TIP3    H216174   2.575   4.660   5.867  0.0873  0.2673  0.1777
 5404TIP3   OH216175   2.889   5.789   5.687  0.1124 -0.2300 -0.3686
 5404TIP3    H116176   2.834   5.729   5.638 -1.2089  0.3011  0.3906
 5404TIP3    H216177   2.937   5.733   5.749 -2.2696 -0.4378  1.4161
 5405TIP3   OH216178   1.639   4.854   2.713 -0.1243  0.2384  0.0065
 5405TIP3    H116179   1.629   4.932   2.659 -0.7806  0.2858  0.1885
 5405TIP3    H216180   1.664   4.785   2.651 -1.9871  0.0174 -0.5753
 5406TIP3   OH216181   7.116   1.865   2.061  0.5109  0.2188 -0.1720
 5406TIP3    H116182   7.113   1.777   2.024  2.0868  0.3877 -0.7732
 5406TIP3    H216183   7.038   1.908   2.026  1.7045  0.2477 -3.0947
 5407TIP3   OH216184   2.720   3.326   1.764  0.0706  0.3294  0.0325
 5407TIP3    H116185   2.626   3.324   1.782  0.0414 -1.2036 -0.1124
 5407TIP3    H216186   2.755   3.254   1.817  1.0723  0.4979 -0.3900
 5408TIP3   OH216187   5.477   6.494   2.537 -0.6041 -0.6605  0.0559
 5408TIP3    H116188   5.522   6.438   2.601 -0.9397  0.4540  1.3250
 5408TIP3    H216189   5.387   6.462   2.537 -0.7204 -0.3494  0.5366
 5409TIP3   OH216190   5.996   6.223   0.822 -0.1205  0.3880  0.4642
 5409TIP3    H116191   6.042   6.257   0.899 -0.1754  0.3593  0.5099
 5409TIP3    H216192   5.923   6.283   0.808 -0.8377 -0.2975  1.1796
 5410TIP3   OH216193   2.618   0.590   0.899 -0.3206 -0.0350  0.1555
 5410TIP3    H116194   2.680   0.550   0.839 -1.4689  0.5160 -1.4488
 5410TIP3    H216195   2.533   0.554   0.875 -1.2262  2.3690 -0.5832
 5411TIP3   OH216196   5.130   3.852   1.994  0.0591  0.8347  0.1596
 5411TIP3    H116197   5.169   3.915   1.934 -0.9384  0.7533 -0.6247
 5411TIP3    H216198   5.048   3.892   2.022 -1.0992 -0.4582 -1.1462
 5412TIP3   OH216199   2.259   3.413   4.642 -0.0057 -0.0247  0.2088
 5412TIP3    H116200   2.329   3.350   4.626 -0.4068 -0.8663  1.6190
 5412TIP3    H216201   2.204   3.407   4.564  0.3945 -0.8578 -0.0250
 5413TIP3   OH216202   3.101   0.366   4.131 -0.1533  0.1812 -0.1890
 5413TIP3    H116203   3.155   0.389   4.056 -0.3205 -0.3059 -0.4637
 5413TIP3    H216204   3.014   0.401   4.110 -0.7274 -1.7377 -1.1793
 5414TIP3   OH216205   3.601   5.458   4.211  0.0569 -0.1444 -0.4201
 5414TIP3    H116206   3.619   5.407   4.131  1.5582 -0.1072 -0.1270
 5414TIP3    H216207   3.600   5.392   4.281  1.0758  0.0906 -0.1680
 5415TIP3   OH216208   4.138   3.411   4.016 -0.8891  0.1478  0.2820
 5415TIP3    H116209   4.180   3.479   4.069  0.7314  0.8399 -1.7308
 5415TIP3    H216210   4.183   3.330   4.041  0.5217  0.6147 -0.5969
 5416TIP3   OH216211   3.245   4.134   1.132 -0.0718 -0.3710  0.1790
 5416TIP3    H116212   3.159   4.093   1.127 -0.3350  0.2102 -0.1432
 5416TIP3    H216213   3.235   4.217   1.085  1.0896 -1.0240 -1.3048
 5417TIP3   OH216214   0.520   6.450   3.316 -0.3648 -0.6973  0.4819
 5417TIP3    H116215   0.475   6.478   3.396 -0.8183  0.1371 -0.0569
 5417TIP3    H216216   0.613   6.469   3.333 -0.5046 -0.1647  0.6665
 5418TIP3   OH216217   6.383   4.179   0.248 -0.2782  0.0573  0.5549
 5418TIP3    H116218   6.455   4.213   0.194  0.0202  0.1264  0.9854
 5418TIP3    H216219   6.379   4.086   0.228  0.7657 -0.2014  1.4443
 5419TIP3   OH216220   1.393   4.862   2.910 -0.1850 -0.1413 -0.0281
 5419TIP3    H116221   1.379   4.950   2.878  1.6567  0.8657  1.6966
 5419TIP3    H216222   1.476   4.834   2.871  0.1390 -0.3906  0.8037
 5420TIP3   OH216223   2.210   2.376   4.256 -0.6031  0.1913 -0.2488
 5420TIP3    H116224   2.225   2.292   4.214  1.6636 -0.0429  0.8820
 5420TIP3    H216225   2.269   2.437   4.211 -1.4626  0.9582 -0.3772
 5421TIP3   OH216226   6.622   0.308   4.627 -0.2540  0.0716  0.2651
 5421TIP3    H116227   6.697   0.328   4.572 -1.1481  2.2328 -0.2626
 5421TIP3    H216228   6.554   0.279   4.567  0.2061 -2.3125  0.7812
 5422TIP3   OH216229   3.488   6.644   1.385  0.2224  0.2724  0.1845
 5422TIP3    H116230   3.536   6.721   1.353 -0.1416 -0.1454 -1.4813
 5422TIP3    H216231   3.525   6.626   1.471 -0.4699  2.9883  1.1479
 5423TIP3   OH216232   5.777   3.279   3.805 -0.1836 -0.0048 -0.6586
 5423TIP3    H116233   5.762   3.201   3.859 -0.3780 -0.3181 -1.1608
 5423TIP3    H216234   5.783   3.351   3.869 -0.2276 -0.3943 -0.2065
 5424TIP3   OH216235   2.003   3.400   2.340  0.0081 -0.2847  0.5977
 5424TIP3    H116236   2.070   3.339   2.309 -1.8809 -1.7919 -0.7962
 5424TIP3    H216237   2.024   3.482   2.296  1.4575 -0.4529  0.9272
 5425TIP3   OH216238   3.134   0.718   5.309  0.1104 -0.2352  0.6279
 5425TIP3    H116239   3.112   0.810   5.326  1.7885  0.7267 -1.6982
 5425TIP3    H216240   3.160   0.717   5.217  0.4315 -3.0218  0.6650
 5426TIP3   OH216241   0.727   4.117   1.661 -0.2036  0.1711  0.5326
 5426TIP3    H116242   0.706   4.151   1.574  0.6390 -0.0008  0.2469
 5426TIP3    H216243   0.646   4.125   1.711 -0.5370  0.8112 -0.0979
 5427TIP3   OH216244   4.993   2.088   3.908 -0.4087 -0.6412 -0.6129
 5427TIP3    H116245   5.044   2.145   3.965  0.1160 -1.9269  0.2544
 5427TIP3    H216246   4.931   2.146   3.864  0.2299  0.6012  0.0932
 5428TIP3   OH216247   0.450   2.887   2.823  0.2347 -0.1512  0.1919
 5428TIP3    H116248   0.491   2.972   2.812 -1.3019  0.3999 -1.9788
 5428TIP3    H216249   0.395   2.896   2.900 -1.4292  1.5391 -1.1049
 5429TIP3   OH216250   2.891   0.457   3.405  0.2981  0.0494 -0.1824
 5429TIP3    H116251   2.872   0.516   3.332  0.6163  1.0066  0.4870
 5429TIP3    H216252   2.814   0.400   3.411  0.5459 -0.4928 -1.6687
 5430TIP3   OH216253   3.938   2.336   2.576  0.1470 -0.1348  0.3785
 5430TIP3    H116254   3.957   2.426   2.548  0.7705 -0.2528  0.3983
 5430TIP3    H216255   4.019   2.288   2.556 -1.2750 -1.4588 -2.8369
 5431TIP3   OH216256   3.672   5.790   5.709 -0.0891 -0.4861  0.2659
 5431TIP3    H116257   3.674   5.786   5.614 -0.1575  0.0540  0.2410
 5431TIP3    H216258   3.711   5.875   5.731 -0.0571 -0.6131  0.7173
 5432TIP3   OH216259   2.162   4.630   4.692 -0.4058 -0.0343  0.3856
 5432TIP3    H116260   2.089   4.612   4.632  0.0522 -0.6059 -0.0030
 5432TIP3    H216261   2.217   4.552   4.688 -0.6581 -0.3354  2.0063
 5433TIP3   OH216262   1.466   5.657   3.481 -0.7213  0.1983  0.4506
 5433TIP3    H116263   1.479   5.600   3.557  1.2304  0.5447  0.4358
 5433TIP3    H216264   1.458   5.596   3.407 -1.4165 -0.1084  0.7719
 5434TIP3   OH216265   7.111   2.744   2.278  0.3919  0.4025 -0.1994
 5434TIP3    H116266   7.177   2.800   2.321  0.4388 -0.6041  1.0985
 5434TIP3    H216267   7.079   2.797   2.205  1.2742  1.6620  0.2888
 5435TIP3   OH216268   4.099   1.696   3.974  0.7064  0.2969 -0.2683
 5435TIP3    H116269   4.059   1.782   3.962 -1.1079 -0.4141  0.3041
 5435TIP3    H216270   4.179   1.699   3.921  0.2617  2.0406 -0.9096
 5436TIP3   OH216271   2.620   1.890   3.324 -0.3280  0.5594  0.1402
 5436TIP3    H116272   2.715   1.900   3.329 -0.0954 -1.0447 -0.2689
 5436TIP3    H216273   2.591   1.884   3.415  0.1334 -0.0988  0.2563
 5437TIP3   OH216274   4.768   2.595   5.277  0.6869  0.5569  0.0555
 5437TIP3    H116275   4.673   2.590   5.268  0.5947  2.0063 -0.0832
 5437TIP3    H216276   4.782   2.650   5.354  1.4211 -0.2947  0.5469
 5438TIP3   OH216277   1.343   1.424   0.154  0.2134 -0.4404  0.4014
 5438TIP3    H116278   1.312   1.371   0.081 -0.4916  0.1548  0.2549
 5438TIP3    H216279   1.391   1.363   0.210  2.3157 -0.5569 -1.4301
 5439TIP3   OH216280   2.557   3.351   2.820  0.3697  0.0101 -0.0651
 5439TIP3    H116281   2.462   3.341   2.834  0.9040 -1.7009  3.7270
 5439TIP3    H216282   2.583   3.418   2.883  1.7603  0.0575 -0.6692
 5440TIP3   OH216283   6.866   0.425   4.483 -0.2833 -0.0938 -0.3379
 5440TIP3    H116284   6.936   0.380   4.531 -0.2391 -0.6697 -0.9299
 5440TIP3    H216285   6.912   0.479   4.419 -0.3713 -0.5129 -0.7632
 5441TIP3   OH216286   4.022   0.658   2.940 -0.3181 -0.3094 -0.3498
 5441TIP3    H116287   4.012   0.726   3.007 -2.5154  0.1793 -1.1117
 5441TIP3    H216288   4.108   0.676   2.901  0.0936  0.6636  0.9182
 5442TIP3   OH216289   0.283   3.868   4.268  0.4526 -0.2703  0.7685
 5442TIP3    H116290   0.204   3.908   4.232  1.0249  0.8033  0.6408
 5442TIP3    H216291   0.262   3.852   4.360 -0.3808 -1.3067  0.4174
 5443TIP3   OH216292   4.894   2.219   4.545 -0.1490  0.2874  0.0020
 5443TIP3    H116293   4.878   2.299   4.595 -0.1506  0.8203 -0.8359
 5443TIP3    H216294   4.952   2.167   4.600 -0.0620  0.9120  0.5065
 5444TIP3   OH216295   1.969   1.366   3.422  0.5866 -0.1919  0.3935
 5444TIP3    H116296   2.058   1.382   3.391  0.4842 -0.4805 -0.0605
 5444TIP3    H216297   1.948   1.278   3.389  0.2661 -0.2704  0.8040
 5445TIP3   OH216298   2.465   0.656   5.478  0.6413 -0.1989 -0.3451
 5445TIP3    H116299   2.487   0.597   5.549  0.3447  1.3689  1.1310
 5445TIP3    H216300   2.515   0.736   5.496  1.7240 -0.2315 -2.7495
 5446TIP3   OH216301   5.242   2.537   2.135  0.1392  0.1092 -0.0676
 5446TIP3    H116302   5.164   2.591   2.141  0.1233 -0.0680  1.7498
 5446TIP3    H216303   5.263   2.514   2.225  2.1230 -0.0958 -0.5376
 5447TIP3   OH216304   0.101   4.916   0.135 -0.6466  0.1113  0.0942
 5447TIP3    H116305   0.047   4.993   0.120 -0.6336  0.1229  0.1053
 5447TIP3    H216306   0.049   4.842   0.105  0.8737  0.4211 -3.8652
 5448TIP3   OH216307   4.850   2.516   1.891 -0.1901  0.2169 -0.1456
 5448TIP3    H116308   4.919   2.515   1.826 -1.6232 -0.7925 -1.7397
 5448TIP3    H216309   4.823   2.608   1.896  0.8945  0.5361  0.1417
 5449TIP3   OH216310   1.931   5.554   3.788  0.2413  0.4966  0.1614
 5449TIP3    H116311   1.888   5.538   3.872 -1.9033  0.2416 -0.9208
 5449TIP3    H216312   1.982   5.474   3.771 -1.0625 -0.3841  0.2389
 5450TIP3   OH216313   3.643   4.498   4.188 -0.0095 -0.2767  0.5293
 5450TIP3    H116314   3.720   4.547   4.160 -0.3299  1.0769  1.8843
 5450TIP3    H216315   3.651   4.492   4.283 -1.6999  0.1849  0.7537
 5451TIP3   OH216316   1.965   4.503   0.049  0.2659  0.0975 -0.2272
 5451TIP3    H116317   1.960   4.471  -0.041 -1.3946 -0.8501  0.1676
 5451TIP3    H216318   2.011   4.434   0.096 -1.8031 -1.0043  0.2789
 5452TIP3   OH216319   5.543   1.362   4.653 -0.5041  0.2780 -0.5638
 5452TIP3    H116320   5.527   1.310   4.731 -0.3089 -0.6056 -1.1039
 5452TIP3    H216321   5.533   1.453   4.682  2.0033  0.1053  1.0622
 5453TIP3   OH216322   2.895   0.575   4.081 -0.0089 -0.0615 -0.4174
 5453TIP3    H116323   2.890   0.574   4.176 -0.6070 -1.6194 -0.4359
 5453TIP3    H216324   2.858   0.659   4.056 -1.4454 -0.3425  0.6687
 5454TIP3   OH216325   1.278   5.130   0.883 -0.4472  0.2584 -0.1527
 5454TIP3    H116326   1.293   5.057   0.943  1.0630  0.0639 -0.7261
 5454TIP3    H216327   1.296   5.208   0.934  2.3078  0.0527 -0.6732
 5455TIP3   OH216328   4.333   4.433   1.397 -0.1109 -0.0187  0.1109
 5455TIP3    H116329   4.307   4.372   1.466  0.3516  1.1295  1.3473
 5455TIP3    H216330   4.376   4.505   1.444  0.6773  0.5547 -1.4277
 5456TIP3   OH216331   5.991   6.330   1.542  0.6120 -0.4256  0.5008
 5456TIP3    H116332   6.008   6.424   1.534 -0.4772 -0.3406 -1.6406
 5456TIP3    H216333   6.066   6.288   1.499  0.7262 -0.5067  0.7772
 5457TIP3   OH216334   4.250   1.690   2.187  0.0350  0.0997  0.6654
 5457TIP3    H116335   4.337   1.729   2.176  0.4992 -0.9639  0.4509
 5457TIP3    H216336   4.265   1.614   2.243 -0.6642 -0.4257  0.1561
 5458TIP3   OH216337   5.515   3.112   5.391  0.2602  0.0103  0.2117
 5458TIP3    H116338   5.488   3.085   5.303  2.1898 -3.5526  0.5620
 5458TIP3    H216339   5.450   3.072   5.449  1.1068 -0.9021  0.5559
 5459TIP3   OH216340   0.454   4.339   5.199 -0.1727  0.1602  0.3474
 5459TIP3    H116341   0.507   4.267   5.165 -1.1962 -1.3882  1.8058
 5459TIP3    H216342   0.364   4.316   5.173 -0.3777  1.6593 -0.3411
 5460TIP3   OH216343   6.200   1.268   4.910 -0.1485  0.3158 -0.3278
 5460TIP3    H116344   6.182   1.314   4.992 -0.4782 -0.9577  0.3389
 5460TIP3    H216345   6.282   1.305   4.879  0.4117  0.2461  1.0145
 5461TIP3   OH216346   1.749   3.381   2.458  0.6522 -0.1754  0.3778
 5461TIP3    H116347   1.725   3.313   2.521  0.7076  0.7941  1.4805
 5461TIP3    H216348   1.845   3.374   2.451  0.8480  0.7962  1.7225
 5462TIP3   OH216349   4.738   1.643   2.416  0.1686  0.0287 -0.1212
 5462TIP3    H116350   4.710   1.591   2.341 -0.8804 -0.9620  0.9226
 5462TIP3    H216351   4.671   1.628   2.482  1.1458  0.7650  1.0745
 5463TIP3   OH216352   3.975   4.449   0.290 -0.0540  0.1064 -0.4083
 5463TIP3    H116353   3.907   4.486   0.234 -0.0707 -1.5043 -1.5133
 5463TIP3    H216354   3.932   4.434   0.374 -0.7404  0.1605 -0.7436
 5464TIP3   OH216355   0.331   0.141   0.754  0.0748  0.4501 -0.4265
 5464TIP3    H116356   0.276   0.102   0.822 -1.0724  0.4662 -1.3095
 5464TIP3    H216357   0.277   0.138   0.675  1.2491  0.7366 -1.2705
 5465TIP3   OH216358   2.574   3.798   0.888 -0.6200 -0.6219  0.1071
 5465TIP3    H116359   2.654   3.846   0.869 -1.0735  0.0284 -0.1887
 5465TIP3    H216360   2.587   3.764   0.977 -0.8721  1.2970  0.9349
 5466TIP3   OH216361   4.766   1.579   2.858  0.5963  0.4573  0.1463
 5466TIP3    H116362   4.705   1.533   2.800  2.2300  0.5341 -1.7497
 5466TIP3    H216363   4.782   1.663   2.815  1.0516  0.9719  1.2724
 5467TIP3   OH216364   1.112   1.562   2.795 -0.3436 -0.1076  0.0121
 5467TIP3    H116365   1.152   1.491   2.845  0.4612 -0.2219 -0.7609
 5467TIP3    H216366   1.103   1.634   2.858  3.1831  0.7209 -0.2111
 5468TIP3   OH216367   2.528   2.374   5.782  0.4998  0.0034 -0.7244
 5468TIP3    H116368   2.616   2.376   5.744 -0.2285 -0.3480 -2.5251
 5468TIP3    H216369   2.514   2.281   5.803  1.1103  0.2679  1.0233
 5469TIP3   OH216370   6.480   3.754   0.084  0.0444 -0.4535 -0.4445
 5469TIP3    H116371   6.523   3.704   0.015  1.5034  1.4421 -1.0042
 5469TIP3    H216372   6.538   3.747   0.159  0.7065  0.9639 -0.7757
 5470TIP3   OH216373   6.412   0.912   5.063  0.3567 -0.1468  0.1882
 5470TIP3    H116374   6.340   0.976   5.062 -0.1646 -0.6527  1.7471
 5470TIP3    H216375   6.369   0.829   5.042  0.4722 -0.4570  1.1669
 5471TIP3   OH216376   1.447   1.717   3.758 -0.7137 -0.2077  0.3596
 5471TIP3    H116377   1.423   1.645   3.699 -4.2620 -1.2901  2.7715
 5471TIP3    H216378   1.418   1.687   3.845  1.7984  2.3720  2.2574
 5472TIP3   OH216379   0.696   1.940   4.621  0.3687 -0.2935  0.3142
 5472TIP3    H116380   0.654   2.001   4.561 -1.4900 -2.7210 -1.0379
 5472TIP3    H216381   0.665   1.967   4.708  0.1532  1.0593 -0.1635
 5473TIP3   OH216382   2.538   3.346   2.222 -0.1433 -0.6646  0.6127
 5473TIP3    H116383   2.468   3.400   2.186  0.8595 -0.5542 -1.2816
 5473TIP3    H216384   2.613   3.405   2.229  0.1997 -1.1553  1.1768
 5474TIP3   OH216385   3.797   2.891   3.163  0.2485  0.0364  0.4672
 5474TIP3    H116386   3.782   2.917   3.254  0.1234 -2.4246  1.2364
 5474TIP3    H216387   3.710   2.866   3.131  0.3469  0.5610 -0.2308
 5475TIP3   OH216388   2.873   2.566   0.134 -0.1935 -0.2523  0.2304
 5475TIP3    H116389   2.939   2.635   0.140  0.1134 -0.5565  0.3945
 5475TIP3    H216390   2.799   2.599   0.184 -0.0026 -0.0884  0.4063
 5476TIP3   OH216391   2.602   5.154   3.402 -0.1245 -0.2464 -0.6539
 5476TIP3    H116392   2.567   5.164   3.491  0.4763  0.0862 -0.4528
 5476TIP3    H216393   2.602   5.242   3.366  1.3035 -0.1026 -0.3458
 5477TIP3   OH216394   3.283   0.119   4.692  0.9610 -0.0757 -0.2826
 5477TIP3    H116395   3.294   0.076   4.777 -1.9952  0.3901  0.4731
 5477TIP3    H216396   3.271   0.048   4.630 -1.9824 -0.5330  0.6436
 5478TIP3   OH216397   4.444   3.715   5.280  0.2763 -0.2210 -0.1043
 5478TIP3    H116398   4.353   3.730   5.255  0.7256  1.4888 -0.8578
 5478TIP3    H216399   4.445   3.722   5.375 -0.1243  1.5531 -0.1988
 5479TIP3   OH216400   5.888   4.330   4.173  0.4984 -0.0446 -0.0529
 5479TIP3    H116401   5.934   4.260   4.128  0.7448 -0.6750  1.1438
 5479TIP3    H216402   5.957   4.388   4.205  0.4823 -0.7871  1.4099
 5480TIP3   OH216403   4.559   2.595   1.172 -0.1505 -0.4230 -0.2648
 5480TIP3    H116404   4.578   2.687   1.150 -0.6357  0.0105  1.0188
 5480TIP3    H216405   4.644   2.553   1.175  0.3480  0.5830  1.5553
 5481TIP3   OH216406   6.285   6.364   3.163  0.3159  0.2764 -0.2675
 5481TIP3    H116407   6.341   6.417   3.220  2.8352 -1.3577 -1.0578
 5481TIP3    H216408   6.336   6.284   3.147 -1.9979 -1.0296 -1.6226
 5482TIP3   OH216409   1.750   0.991   0.302  0.2328 -0.6841 -0.5206
 5482TIP3    H116410   1.764   0.907   0.346  0.0415 -0.3514  0.1842
 5482TIP3    H216411   1.826   1.043   0.325  0.3530 -0.6586 -0.9620
 5483TIP3   OH216412   1.476   5.408   5.631 -0.0566 -0.3590 -0.2285
 5483TIP3    H116413   1.426   5.489   5.637 -0.4226 -0.6531  1.1400
 5483TIP3    H216414   1.411   5.340   5.612  0.0861 -0.4774 -0.2993
 5484TIP3   OH216415   5.033   6.753   2.935 -0.1018 -0.2696 -0.3012
 5484TIP3    H116416   5.076   6.820   2.987 -0.7424  0.3337 -0.5378
 5484TIP3    H216417   5.090   6.741   2.859  1.6802 -2.2733  1.2124
 5485TIP3   OH216418   2.893   1.453   3.582  0.5429 -0.1913  0.0731
 5485TIP3    H116419   2.815   1.472   3.633  0.4306 -0.2122 -0.0902
 5485TIP3    H216420   2.960   1.510   3.618  0.3872  0.0110  0.0443
 5486TIP3   OH216421   1.952   5.759   3.362 -0.1301  0.2608  0.0060
 5486TIP3    H116422   1.894   5.807   3.303 -0.4056  0.8415  0.7447
 5486TIP3    H216423   1.899   5.740   3.439 -0.0271 -1.2378 -0.2528
 5487TIP3   OH216424   1.287   2.791   2.294 -0.3845  0.5529 -0.5596
 5487TIP3    H116425   1.336   2.732   2.352 -0.6254  1.3865  0.5143
 5487TIP3    H216426   1.225   2.733   2.249  0.1792 -0.1970 -0.3941
 5488TIP3   OH216427   1.800   6.700   5.163  0.0363 -0.0664 -0.0531
 5488TIP3    H116428   1.884   6.656   5.171 -0.9112 -2.3338 -1.5586
 5488TIP3    H216429   1.736   6.634   5.189 -1.4422  0.4335 -2.1682
 5489TIP3   OH216430   0.981   4.945   4.833  0.6316 -0.5481  0.4762
 5489TIP3    H116431   0.997   4.877   4.899  1.4512  0.7841  1.7014
 5489TIP3    H216432   1.055   4.937   4.772  0.3103 -1.2520  0.1743
 5490TIP3   OH216433   1.793   6.369   5.623 -0.1943  0.2778  0.4083
 5490TIP3    H116434   1.759   6.345   5.537  0.1038  1.3859 -0.0396
 5490TIP3    H216435   1.719   6.357   5.682 -0.7726  0.6692 -0.2113
 5491TIP3   OH216436   2.852   0.822   3.987 -0.1215 -0.1810  0.5268
 5491TIP3    H116437   2.934   0.842   3.941  0.7585 -0.2281  2.0086
 5491TIP3    H216438   2.788   0.807   3.917  1.1637 -0.2727 -0.6701
 5492TIP3   OH216439   6.191   1.256   1.923 -0.2523  0.4461  0.0643
 5492TIP3    H116440   6.124   1.310   1.881  0.4716 -0.3586 -2.2463
 5492TIP3    H216441   6.229   1.314   1.990 -2.0564  1.4782  0.2730
 5493TIP3   OH216442   2.578   2.943   5.132 -0.2218  0.0132  0.6171
 5493TIP3    H116443   2.617   3.030   5.143 -1.1575  0.1752  3.8625
 5493TIP3    H216444   2.544   2.942   5.043  0.7508  2.5638  0.1455
 5494TIP3   OH216445   5.389   2.702   1.293 -0.0777  0.2428 -0.1940
 5494TIP3    H116446   5.323   2.736   1.352 -1.2102 -0.0007 -1.2884
 5494TIP3    H216447   5.389   2.762   1.219 -0.1582 -0.6080 -0.8968
 5495TIP3   OH216448   1.717   3.882   3.891 -0.0572  0.4536  0.1405
 5495TIP3    H116449   1.745   3.846   3.807  1.7876  0.7312  0.5825
 5495TIP3    H216450   1.780   3.951   3.910 -0.9169  0.9396  1.3833
 5496TIP3   OH216451   3.962   6.407   3.322  0.1093 -0.7462  0.0639
 5496TIP3    H116452   3.904   6.381   3.251 -2.5082 -0.2690  1.9088
 5496TIP3    H216453   3.914   6.475   3.369  1.3353 -1.6323  2.8105
 5497TIP3   OH216454   7.103   3.995   1.815 -0.1961  0.0133  0.0615
 5497TIP3    H116455   7.062   4.071   1.775  0.2156  0.8831  1.2413
 5497TIP3    H216456   7.160   3.960   1.746 -1.7863 -0.3886 -1.1203
 5498TIP3   OH216457   4.731   5.224   3.975 -0.1557  0.2609 -0.2028
 5498TIP3    H116458   4.787   5.163   4.024  1.1724  1.7523  0.2112
 5498TIP3    H216459   4.681   5.167   3.915  0.9727 -1.2350  0.2085
 5499TIP3   OH216460   3.869   3.779   4.146 -0.3139 -0.0694  0.1127
 5499TIP3    H116461   3.896   3.833   4.220 -1.6038  0.0644  0.5104
 5499TIP3    H216462   3.864   3.690   4.181  1.1105 -0.3625 -0.3617
 5500TIP3   OH216463   1.519   5.799   3.829 -0.0744  0.4050  0.1255
 5500TIP3    H116464   1.545   5.708   3.844 -0.9806  0.2069  0.6028
 5500TIP3    H216465   1.424   5.798   3.837 -0.2094  1.1790 -1.1189
 5501TIP3   OH216466   5.718   5.567   4.360 -0.1027  0.8059  0.4795
 5501TIP3    H116467   5.625   5.582   4.344  0.0218  1.0285 -0.0325
 5501TIP3    H216468   5.721   5.528   4.448 -0.8509 -1.2049 -0.3272
 5502TIP3   OH216469   1.633   3.191   3.791  0.8653  0.3062 -0.2758
 5502TIP3    H116470   1.584   3.247   3.851 -0.9754 -1.1607 -0.3059
 5502TIP3    H216471   1.637   3.241   3.709 -1.1402  0.2710 -0.4434
 5503TIP3   OH216472   6.993   5.032   5.866  0.3126  0.1443  0.4070
 5503TIP3    H116473   7.044   5.080   5.800  0.2462  0.6581  0.7232
 5503TIP3    H216474   6.930   4.981   5.816  0.5887  0.1519  0.0491
 5504TIP3   OH216475   4.817   2.119   0.483  0.0405 -1.0726  0.4193
 5504TIP3    H116476   4.731   2.099   0.520 -0.0627 -0.3850  0.5464
 5504TIP3    H216477   4.802   2.194   0.426  0.6152 -0.7352  0.7015
 5505TIP3   OH216478   1.801   5.115   3.959 -0.3483 -0.1992  0.1672
 5505TIP3    H116479   1.825   5.087   4.048  1.7036 -1.1945 -0.6297
 5505TIP3    H216480   1.798   5.033   3.909 -1.7918  0.3200 -0.6445
 5506TIP3   OH216481   3.316   2.899   2.840 -0.5870 -0.0559 -0.2079
 5506TIP3    H116482   3.248   2.958   2.874 -1.2969 -0.3103 -1.1571
 5506TIP3    H216483   3.270   2.817   2.822  0.5149 -1.1849  1.7332
 5507TIP3   OH216484   4.561   3.225   5.130 -0.7186  0.2379  0.4248
 5507TIP3    H116485   4.537   3.204   5.039 -1.9630  1.2481  0.4870
 5507TIP3    H216486   4.628   3.161   5.153  0.2744  0.5047 -1.5047
 5508TIP3   OH216487   3.055   6.145   1.619 -0.1910 -0.4404  0.4142
 5508TIP3    H116488   3.078   6.212   1.554 -0.8559  2.4438  2.9388
 5508TIP3    H216489   3.023   6.071   1.567  2.6244  0.2382 -2.6502
 5509TIP3   OH216490   5.061   4.313   1.864 -0.4343 -0.7471  0.1108
 5509TIP3    H116491   5.040   4.387   1.920  1.7127  0.0271 -0.0330
 5509TIP3    H216492   4.982   4.298   1.813 -1.3550  0.5613  1.1022
 5510TIP3   OH216493   0.587   5.833   2.554  0.0640  0.1193  0.2396
 5510TIP3    H116494   0.639   5.903   2.515 -0.4615 -1.0575 -2.8513
 5510TIP3    H216495   0.644   5.756   2.549 -0.6764 -0.4302  0.1124
 5511TIP3   OH216496   4.768   3.713   1.982  0.5038  0.4624 -0.7129
 5511TIP3    H116497   4.782   3.784   2.044  1.2847  1.5445 -2.0820
 5511TIP3    H216498   4.678   3.725   1.952  0.0087 -0.2660  0.4184
 5512TIP3   OH216499   1.082   2.743   2.967 -0.5749  0.3632  0.0369
 5512TIP3    H116500   1.127   2.805   3.025  0.9771  0.7615 -1.4961
 5512TIP3    H216501   1.048   2.798   2.897 -0.3567 -0.3554 -0.6418
 5513TIP3   OH216502   3.077   1.531   5.428 -0.2161 -0.3341 -0.2566
 5513TIP3    H116503   3.143   1.598   5.448  1.0472 -1.7495  0.4845
 5513TIP3    H216504   3.127   1.450   5.417 -1.7947 -1.3919  0.0117
 5514TIP3   OH216505   0.558   6.634   3.695  0.3537  0.3477  0.0364
 5514TIP3    H116506   0.623   6.573   3.730  0.5763  0.1973 -0.6333
 5514TIP3    H216507   0.598   6.720   3.707  0.5589  0.2752 -0.1370
 5515TIP3   OH216508   5.927   6.681   0.784 -0.2257 -0.4136  0.0417
 5515TIP3    H116509   5.883   6.599   0.765 -0.8041 -0.0298 -0.3111
 5515TIP3    H216510   5.911   6.736   0.707  4.3964 -1.6421 -2.1543
 5516TIP3   OH216511   7.203   0.561   1.613  0.2675  0.3189  0.3893
 5516TIP3    H116512   7.111   0.535   1.613 -0.1551  1.3854  3.3119
 5516TIP3    H216513   7.246   0.496   1.558 -2.3259  0.4511 -2.0210
 5517TIP3   OH216514   1.622   2.747   0.112  0.9841  0.9296  0.4229
 5517TIP3    H116515   1.569   2.669   0.094  1.8609  0.2287  0.7910
 5517TIP3    H216516   1.678   2.757   0.034  1.3672  0.7732  0.6769
 5518TIP3   OH216517   3.801   5.432   3.650  0.4372 -0.2942  0.5449
 5518TIP3    H116518   3.708   5.434   3.627  0.3548  1.1075  0.9509
 5518TIP3    H216519   3.829   5.344   3.625 -0.8502 -0.5373 -0.1469
 5519TIP3   OH216520   6.826   3.674   1.569 -0.0417  0.1946 -0.0085
 5519TIP3    H116521   6.889   3.742   1.547  0.1568  0.5220  1.4570
 5519TIP3    H216522   6.858   3.596   1.522 -0.8844  1.2975 -2.5769
 5520TIP3   OH216523   6.421   6.189   1.842 -0.0628  0.3339  0.6329
 5520TIP3    H116524   6.360   6.167   1.913 -0.4808  2.8647  1.1615
 5520TIP3    H216525   6.403   6.124   1.774 -0.8280 -1.1473  2.1759
 5521TIP3   OH216526   2.107   3.448   3.179 -0.0695 -0.6583  0.3887
 5521TIP3    H116527   2.177   3.504   3.211 -0.7388 -0.3232  1.3107
 5521TIP3    H216528   2.077   3.490   3.098  0.5365 -0.6101  0.1840
 5522TIP3   OH216529   6.483   0.872   0.240  0.1202 -0.4715  0.0222
 5522TIP3    H116530   6.403   0.839   0.281 -0.1300 -0.4349 -0.4252
 5522TIP3    H216531   6.514   0.800   0.185 -0.0652 -0.1950 -0.4488
 5523TIP3   OH216532   3.441   1.890   3.436 -0.1062 -0.8804  0.6190
 5523TIP3    H116533   3.521   1.903   3.385  0.6150 -0.7371  1.7434
 5523TIP3    H216534   3.445   1.799   3.465 -0.1052 -0.7449  1.0634
 5524TIP3   OH216535   2.581   3.758   2.025  0.3871  0.1687  0.1715
 5524TIP3    H116536   2.592   3.853   2.023 -1.4277  0.4070 -0.6616
 5524TIP3    H216537   2.586   3.736   2.118 -1.5805  1.4625  0.6591
 5525TIP3   OH216538   5.729   3.539   0.627 -0.3764 -0.5443  0.1532
 5525TIP3    H116539   5.776   3.604   0.575  0.6500 -0.9167  0.5774
 5525TIP3    H216540   5.637   3.557   0.611 -0.1738  1.7163  1.0853
 5526TIP3   OH216541   3.201   5.898   3.041  0.0137 -0.0737  0.0511
 5526TIP3    H116542   3.176   5.920   2.952  2.1187  0.7142 -0.3910
 5526TIP3    H216543   3.166   5.810   3.055 -0.0513 -0.3415 -1.6641
 5527TIP3   OH216544   0.827   6.698   3.117  0.5799  0.8585 -0.1835
 5527TIP3    H116545   0.792   6.663   3.035 -0.6316 -0.3330  0.7836
 5527TIP3    H216546   0.901   6.641   3.138 -0.6479 -0.4631  0.7732
 5528TIP3   OH216547   4.121   0.513   2.017 -0.4952  0.5791  0.3334
 5528TIP3    H116548   4.029   0.497   1.995  0.0597 -0.7949 -1.2965
 5528TIP3    H216549   4.120   0.542   2.108 -2.4132 -1.0354  0.8987
 5529TIP3   OH216550   1.179   1.637   1.137  0.5148 -0.0547 -0.8199
 5529TIP3    H116551   1.257   1.613   1.187 -0.8142 -1.6142  0.6133
 5529TIP3    H216552   1.144   1.713   1.183  0.0602 -0.6407 -0.1740
 5530TIP3   OH216553   3.233   5.025   1.233 -0.4817 -0.1157  0.2704
 5530TIP3    H116554   3.257   4.957   1.170  1.6056  0.1527  0.6824
 5530TIP3    H216555   3.314   5.076   1.244 -1.6948  1.7904  0.7528
 5531TIP3   OH216556   1.244   4.198   0.184  0.3711  0.2769  0.6198
 5531TIP3    H116557   1.162   4.152   0.201  1.1053 -0.6565  1.8001
 5531TIP3    H216558   1.254   4.258   0.259  1.9883 -1.4666  1.8998
 5532TIP3   OH216559   4.791   3.053   2.645  0.3706  1.0172  0.2632
 5532TIP3    H116560   4.739   3.069   2.566  0.7509 -0.4438 -0.3008
 5532TIP3    H216561   4.876   3.092   2.626  1.1117 -1.0131 -0.8859
 5533TIP3   OH216562   7.020   6.764   1.231 -0.1952 -0.0983 -0.0059
 5533TIP3    H116563   7.027   6.681   1.184  1.6119  0.1967 -0.3041
 5533TIP3    H216564   6.928   6.768   1.257 -0.6912 -1.4291 -1.3808
 5534TIP3   OH216565   2.513   4.842   0.122  0.0641  0.1633 -0.7157
 5534TIP3    H116566   2.565   4.804   0.052 -0.6027 -1.0010 -0.6112
 5534TIP3    H216567   2.434   4.874   0.079  0.2897  0.7529 -0.6948
 5535TIP3   OH216568   3.005   2.424   3.330 -0.2896 -0.1251  0.2101
 5535TIP3    H116569   3.029   2.333   3.308 -1.0686 -0.3573  0.2898
 5535TIP3    H216570   2.946   2.416   3.405  0.4849  0.5254  0.9078
 5536TIP3   OH216571   0.332   4.915   1.945 -0.0554  0.0702  0.1877
 5536TIP3    H116572   0.360   5.005   1.926 -0.3617 -0.2173 -1.8665
 5536TIP3    H216573   0.238   4.915   1.925 -0.1142 -0.6403  0.4478
 5537TIP3   OH216574   4.774   1.730   0.184  0.4817 -0.0208 -0.5030
 5537TIP3    H116575   4.725   1.680   0.118  1.1221  0.5886 -1.4693
 5537TIP3    H216576   4.710   1.792   0.220 -0.7394 -2.3880  1.7613
 5538TIP3   OH216577   4.424   6.815   3.623 -0.2112 -0.2933 -0.2392
 5538TIP3    H116578   4.497   6.794   3.564  0.3083  1.7887 -0.4118
 5538TIP3    H216579   4.430   6.748   3.691  0.6153 -1.3602 -1.2941
 5539TIP3   OH216580   1.922   2.793   0.410 -0.1747 -0.2457  0.5780
 5539TIP3    H116581   1.906   2.722   0.348 -0.3738 -0.7159  1.1613
 5539TIP3    H216582   1.982   2.756   0.475  0.3869  0.3787  0.4310
 5540TIP3   OH216583   0.143   5.743   5.857 -0.0874 -0.0091  0.3326
 5540TIP3    H116584   0.107   5.828   5.836  2.4596  1.3139  0.9053
 5540TIP3    H216585   0.143   5.695   5.774 -1.1996  0.6613 -0.0660
 5541TIP3   OH216586   5.397   6.672   1.698  0.2625 -0.1735  0.7286
 5541TIP3    H116587   5.454   6.741   1.663  0.5793 -0.7214  0.1572
 5541TIP3    H216588   5.451   6.628   1.764 -0.1287  0.4664  1.5000
 5542TIP3   OH216589   1.952   0.356   5.070 -0.6896  0.2407 -0.5373
 5542TIP3    H116590   1.901   0.376   5.148 -2.7637  0.5059 -1.8765
 5542TIP3    H216591   1.989   0.440   5.043 -1.1248  0.4113 -0.6079
 5543TIP3   OH216592   0.558   6.230   0.380  0.0597  0.2854  0.2418
 5543TIP3    H116593   0.635   6.200   0.332  0.3077  2.0620 -0.5859
 5543TIP3    H216594   0.584   6.229   0.472  0.1849 -1.5080  0.2054
 5544TIP3   OH216595   5.270   4.739   3.388  0.2598  0.1058 -0.6042
 5544TIP3    H116596   5.210   4.803   3.348 -0.0407 -0.5705 -1.2776
 5544TIP3    H216597   5.341   4.730   3.324  0.8312  0.5315 -0.0350
 5545TIP3   OH216598   0.538   0.925   5.478 -0.4831 -0.1247  0.0364
 5545TIP3    H116599   0.466   0.874   5.516  1.3712 -1.0908  2.5277
 5545TIP3    H216600   0.495   1.003   5.442 -2.8192 -0.8299  1.0413
 5546TIP3   OH216601   1.612   0.704   4.131 -0.6682 -0.1146  0.0920
 5546TIP3    H116602   1.583   0.652   4.206 -0.8900  2.2757  1.7842
 5546TIP3    H216603   1.692   0.661   4.102 -0.2138 -0.7630  2.1263
 5547TIP3   OH216604   1.280   5.439   0.715 -0.1829  0.2806 -0.2253
 5547TIP3    H116605   1.344   5.454   0.785 -0.0124 -0.5358 -0.2042
 5547TIP3    H216606   1.331   5.402   0.643 -0.8445 -1.7929  0.3118
 5548TIP3   OH216607   1.104   6.092   1.539  0.4356  0.1023 -0.4470
 5548TIP3    H116608   1.109   6.027   1.469  2.3709 -0.6851  0.3152
 5548TIP3    H216609   1.084   6.040   1.617  2.8622  0.1934  0.3282
 5549TIP3   OH216610   4.146   3.951   4.589 -0.5985 -0.1580 -0.0463
 5549TIP3    H116611   4.228   3.904   4.599  0.9144  2.2810 -0.2748
 5549TIP3    H216612   4.091   3.919   4.661  1.3837 -0.2133  1.5263
 5550TIP3   OH216613   1.248   2.993   2.477  0.5405 -0.3013 -0.7342
 5550TIP3    H116614   1.237   2.916   2.421  1.4513  1.4534 -3.5641
 5550TIP3    H216615   1.341   3.016   2.468  0.0563  1.7546 -0.9070
 5551TIP3   OH216616   0.722   5.958   1.011 -0.3888  0.5066 -0.1575
 5551TIP3    H116617   0.784   5.909   0.956 -0.5848  0.1843 -0.0945
 5551TIP3    H216618   0.643   5.904   1.011  0.4374 -0.8665  2.6142
 5552TIP3   OH216619   3.462   1.745   4.712 -0.1887 -0.5806  0.0929
 5552TIP3    H116620   3.399   1.711   4.648  0.9466  2.2652 -2.7500
 5552TIP3    H216621   3.408   1.768   4.788 -2.1754 -0.6790 -1.2156
 5553TIP3   OH216622   3.452   5.682   4.301  0.0557  0.0847  0.0567
 5553TIP3    H116623   3.501   5.601   4.285 -3.3145 -1.8097 -1.9443
 5553TIP3    H216624   3.382   5.656   4.360  0.0727  2.0958  1.0116
 5554TIP3   OH216625   2.470   5.850   3.066  0.1172  0.5195 -0.1248
 5554TIP3    H116626   2.556   5.848   3.025  0.7575 -1.3112  1.1232
 5554TIP3    H216627   2.488   5.843   3.160 -1.3789  0.0058  0.1637
 5555TIP3   OH216628   2.172   1.306   0.619 -0.2369 -0.5544 -0.0593
 5555TIP3    H116629   2.193   1.307   0.713 -1.3571 -0.4062  0.2061
 5555TIP3    H216630   2.255   1.288   0.576  0.7205  1.3884  0.8525
 5556TIP3   OH216631   7.017   4.614   0.380  0.3776  0.2665 -0.2677
 5556TIP3    H116632   7.059   4.528   0.390 -2.0667 -0.9507  0.2083
 5556TIP3    H216633   7.050   4.666   0.453  2.2187 -0.0859 -0.7969
 5557TIP3   OH216634   4.374   0.553   1.813  0.3160 -0.4111 -0.4186
 5557TIP3    H116635   4.371   0.462   1.840  0.9873  0.0227  1.2970
 5557TIP3    H216636   4.356   0.602   1.894 -2.5471  0.9727 -1.7450
 5558TIP3   OH216637   5.065   3.691   5.341  0.0735  0.1350  0.0598
 5558TIP3    H116638   5.108   3.611   5.371 -0.7142 -0.3088  0.0389
 5558TIP3    H216639   4.981   3.661   5.306  0.7752  0.6626 -2.2679
 5559TIP3   OH216640   2.399   3.526   0.498  0.7290 -0.2237 -0.3709
 5559TIP3    H116641   2.484   3.562   0.523  0.7257  1.4324 -2.4098
 5559TIP3    H216642   2.340   3.602   0.500 -0.1904 -0.8891 -1.0709
 5560TIP3   OH216643   2.328   3.889   3.083  0.2896 -1.1001  0.3673
 5560TIP3    H116644   2.295   3.908   2.995 -1.6054 -1.3860  0.9680
 5560TIP3    H216645   2.374   3.968   3.109 -1.0882 -0.1312 -0.0308
 5561TIP3   OH216646   2.721   2.738   5.255 -0.3697 -0.5647 -0.8674
 5561TIP3    H116647   2.776   2.711   5.182 -0.1223  0.5877 -1.1183
 5561TIP3    H216648   2.658   2.799   5.216 -1.3272 -1.2404 -0.4332
 5562TIP3   OH216649   3.532   4.527   0.481 -0.4722 -0.6709  0.0011
 5562TIP3    H116650   3.590   4.597   0.511  0.2081 -1.5359  0.7737
 5562TIP3    H216651   3.538   4.530   0.386 -0.3384  0.2258  0.0289
 5563TIP3   OH216652   0.056   4.283   0.125 -0.2375  0.4376  0.2373
 5563TIP3    H116653   0.148   4.300   0.104 -0.3092  1.1506  0.4865
 5563TIP3    H216654   0.009   4.304   0.044 -0.0357 -1.6154 -0.4874
 5564TIP3   OH216655   3.510   3.695   3.441  0.1952  0.0091 -0.6333
 5564TIP3    H116656   3.596   3.723   3.410 -0.3353  0.4724 -1.7327
 5564TIP3    H216657   3.452   3.767   3.418 -0.6358 -0.6585 -0.6718
 5565TIP3   OH216658   6.021   5.851   2.392  0.0729 -0.0984  0.0016
 5565TIP3    H116659   5.938   5.889   2.364 -1.5282 -1.1781  2.9067
 5565TIP3    H216660   6.030   5.876   2.484  3.7701  1.2208 -0.5320
 5566TIP3   OH216661   6.553   3.734   5.888 -0.5623 -0.4537 -0.0426
 5566TIP3    H116662   6.587   3.801   5.828 -0.6338  1.1723  1.6414
 5566TIP3    H216663   6.478   3.697   5.841 -2.0316  2.3529 -0.1430
 5567TIP3   OH216664   2.445   5.730   2.066 -0.0051 -0.2984 -0.4997
 5567TIP3    H116665   2.387   5.734   1.990  0.1656  0.3649 -0.6015
 5567TIP3    H216666   2.392   5.688   2.134 -0.8195  0.8138 -0.4177
 5568TIP3   OH216667   0.988   1.076   2.765  0.1399 -0.6156  0.5325
 5568TIP3    H116668   0.992   0.994   2.716 -1.5035 -0.0603 -0.6529
 5568TIP3    H216669   0.978   1.050   2.856 -2.1761 -1.8169  0.0115
 5569TIP3   OH216670   3.787   6.553   3.807  0.0030 -0.2296  0.0659
 5569TIP3    H116671   3.735   6.534   3.729 -1.7547  1.5956  0.6981
 5569TIP3    H216672   3.824   6.640   3.790  2.1532 -1.0772  0.0497
 5570TIP3   OH216673   3.726   0.181   2.402  0.2646 -0.0336 -0.0483
 5570TIP3    H116674   3.671   0.259   2.395 -0.5500 -0.6791 -1.2052
 5570TIP3    H216675   3.767   0.189   2.488 -1.3145  0.6839  0.6925
 5571TIP3   OH216676   4.433   0.857   3.601  0.4880  0.1450 -0.4209
 5571TIP3    H116677   4.468   0.870   3.513  1.7371  1.0517  0.1836
 5571TIP3    H216678   4.474   0.925   3.653 -0.2930 -0.3380  0.8571
 5572TIP3   OH216679   0.307   5.970   3.510 -0.1044  0.4623  0.0201
 5572TIP3    H116680   0.346   6.034   3.451 -0.1814 -0.1911 -0.7619
 5572TIP3    H216681   0.304   6.013   3.595 -0.9523  1.8057 -0.6663
 5573TIP3   OH216682   6.726   1.021   1.942 -0.0878 -0.2742 -0.2743
 5573TIP3    H116683   6.786   1.092   1.965 -0.1305 -0.1490 -0.5471
 5573TIP3    H216684   6.755   0.993   1.854 -1.1417  0.5502 -0.9072
 5574TIP3   OH216685   4.549   0.155   0.392  0.2304  0.7372 -0.1020
 5574TIP3    H116686   4.537   0.205   0.311  1.8696 -2.1678 -2.3210
 5574TIP3    H216687   4.478   0.091   0.392 -0.7526  1.7231  1.7483
 5575TIP3   OH216688   5.355   2.039   3.986 -0.2296  0.2744 -0.1228
 5575TIP3    H116689   5.270   2.044   4.030 -0.3684 -0.5289 -0.2906
 5575TIP3    H216690   5.419   2.040   4.057 -0.4289 -0.3514  0.0712
 5576TIP3   OH216691   7.048   4.620   2.388 -0.3048 -0.0258  0.1057
 5576TIP3    H116692   7.093   4.700   2.417  0.0052 -0.5868  1.2492
 5576TIP3    H216693   7.111   4.576   2.331 -0.5617  0.6493 -0.7058
 5577TIP3   OH216694   3.244   4.630   3.393 -0.1058 -0.0213  0.3084
 5577TIP3    H116695   3.291   4.553   3.362  0.3161  0.3918 -0.1007
 5577TIP3    H216696   3.153   4.601   3.403 -0.2515 -0.2127 -1.2543
 5578TIP3   OH216697   6.831   5.080   3.525  0.2809  0.3990  0.2595
 5578TIP3    H116698   6.809   5.080   3.432 -0.6791 -1.6365  0.4222
 5578TIP3    H216699   6.750   5.053   3.569  1.4873 -1.6701  1.3882
 5579TIP3   OH216700   1.331   0.781   4.827 -0.5512 -0.2479  0.0670
 5579TIP3    H116701   1.351   0.753   4.738  1.9106  0.4859  0.3095
 5579TIP3    H216702   1.343   0.876   4.826  1.9877 -0.4446  1.6381
 5580TIP3   OH216703   4.534   5.653   5.809 -0.2241 -0.0413  0.1415
 5580TIP3    H116704   4.550   5.735   5.762 -1.5189  0.9711  1.3945
 5580TIP3    H216705   4.544   5.676   5.901 -2.3601 -0.8307  0.6265
 5581TIP3   OH216706   5.980   2.363   1.534 -0.4976  0.5409 -0.1501
 5581TIP3    H116707   6.069   2.328   1.533 -0.2331  1.1977 -0.6837
 5581TIP3    H216708   5.954   2.362   1.626  1.0122  2.6838  0.3704
 5582TIP3   OH216709   0.239   4.084   1.163 -0.1696 -0.3263  0.2070
 5582TIP3    H116710   0.173   4.017   1.183  0.2929 -0.7503  0.3431
 5582TIP3    H216711   0.286   4.050   1.088  0.9542 -0.8169  1.0976
 5583TIP3   OH216712   0.109   0.190   1.933  0.2222  0.2872  0.0137
 5583TIP3    H116713   0.055   0.131   1.882 -1.5146  1.5307  0.3250
 5583TIP3    H216714   0.148   0.249   1.869  1.9106 -1.0787 -0.2907
 5584TIP3   OH216715   3.636   4.481   3.902  0.2928  0.2802 -0.3415
 5584TIP3    H116716   3.546   4.452   3.885  1.2829 -2.6220 -1.2269
 5584TIP3    H216717   3.650   4.462   3.994 -0.0407  0.9723 -0.1376
 5585TIP3   OH216718   6.584   3.024   4.992  0.0907  0.1007 -0.0664
 5585TIP3    H116719   6.553   2.999   5.079 -1.1744  1.9380  0.0663
 5585TIP3    H216720   6.595   3.119   4.996 -0.1293  0.2546 -1.9537
 5586TIP3   OH216721   2.641   3.794   3.405  0.8583 -0.2761  0.3810
 5586TIP3    H116722   2.680   3.811   3.319 -0.7811 -2.3596 -0.8749
 5586TIP3    H216723   2.593   3.712   3.393 -0.2228 -0.1089  3.0466
 5587TIP3   OH216724   2.146   2.995   0.092 -0.3845 -0.1123 -0.4609
 5587TIP3    H116725   2.131   3.045   0.011 -0.3086  0.6664 -0.0080
 5587TIP3    H216726   2.059   2.987   0.132 -0.2804  0.3675 -0.1324
 5588TIP3   OH216727   1.445   6.132   0.879  0.3382 -0.7554  0.6406
 5588TIP3    H116728   1.527   6.162   0.918 -0.0075  0.5973  0.3780
 5588TIP3    H216729   1.446   6.166   0.790 -0.5124 -0.7086  0.6393
 5589TIP3   OH216730   3.097   5.659   4.197  0.2464  0.4114 -0.1730
 5589TIP3    H116731   3.065   5.576   4.234  1.7495  0.0023  0.2893
 5589TIP3    H216732   3.176   5.679   4.248  0.6041  1.4878 -1.1036
 5590TIP3   OH216733   6.381   5.411   3.792 -0.4074  0.2957 -0.2354
 5590TIP3    H116734   6.313   5.374   3.735  1.0889 -0.2929 -1.7364
 5590TIP3    H216735   6.463   5.375   3.758  0.7048  1.1877  1.3435
 5591TIP3   OH216736   0.820   2.149   0.827 -0.5839 -0.4723  0.2089
 5591TIP3    H116737   0.737   2.102   0.833 -1.0828  0.3499 -0.0317
 5591TIP3    H216738   0.826   2.198   0.909 -0.4851 -0.3095  0.1052
 5592TIP3   OH216739   6.094   1.054   5.579  0.1907  0.0033 -0.3368
 5592TIP3    H116740   6.164   1.117   5.599  1.4087 -1.4568  0.2325
 5592TIP3    H216741   6.048   1.042   5.662  2.2893 -2.5229  0.6165
 5593TIP3   OH216742   3.626   6.532   2.598  0.3947  0.1615 -0.1927
 5593TIP3    H116743   3.568   6.568   2.665  1.8384  2.7379 -0.1805
 5593TIP3    H216744   3.572   6.467   2.552 -0.8497 -1.2782  2.9613
 5594TIP3   OH216745   1.199   2.710   3.508 -0.0245  0.0243  0.5446
 5594TIP3    H116746   1.241   2.671   3.431 -1.8564  0.7244 -0.8911
 5594TIP3    H216747   1.260   2.779   3.536  0.2186  0.4311 -0.9080
 5595TIP3   OH216748   5.154   1.977   2.191  0.5833  0.5409  0.2281
 5595TIP3    H116749   5.121   2.034   2.261 -2.9773 -1.6838  0.6625
 5595TIP3    H216750   5.120   2.016   2.111  0.0758  0.2860  0.3113
 5596TIP3   OH216751   0.147   6.678   1.711  0.5033 -0.2676 -0.2581
 5596TIP3    H116752   0.118   6.592   1.740 -1.0159  0.3274  0.1283
 5596TIP3    H216753   0.100   6.693   1.629 -0.8282  0.9691  0.6728
 5597TIP3   OH216754   0.532   6.188   1.442  0.6878 -0.4926  0.5087
 5597TIP3    H116755   0.514   6.170   1.350  0.7939 -0.2476  0.4399
 5597TIP3    H216756   0.522   6.103   1.485 -1.5288 -0.2292  0.6421
 5598TIP3   OH216757   1.615   5.389   2.076  0.4459  0.2338  0.0921
 5598TIP3    H116758   1.536   5.339   2.058  0.9881 -1.2567  1.5455
 5598TIP3    H216759   1.650   5.410   1.990 -0.1460 -1.4054 -0.5939
 5599TIP3   OH216760   4.284   3.001   4.966 -0.2647  0.0849  0.5524
 5599TIP3    H116761   4.337   2.957   4.900 -2.8799 -0.4255 -1.3682
 5599TIP3    H216762   4.264   3.087   4.928  2.1307  1.8331  2.8763
 5600TIP3   OH216763   5.358   6.672   3.466 -0.0025  0.4611  0.2603
 5600TIP3    H116764   5.288   6.711   3.414  0.2845  1.8154  0.8361
 5600TIP3    H216765   5.353   6.717   3.551  0.3293 -0.8136  0.9857
 5601TIP3   OH216766   0.666   2.681   5.618 -0.7376 -0.0641  0.4607
 5601TIP3    H116767   0.752   2.649   5.591 -0.8477 -0.1726  0.2322
 5601TIP3    H216768   0.617   2.603   5.642 -0.6588  0.0292  0.9215
 5602TIP3   OH216769   1.804   1.609   1.096 -0.3289 -0.3914 -0.2106
 5602TIP3    H116770   1.801   1.658   1.178  0.0851 -0.8409  0.0750
 5602TIP3    H216771   1.713   1.606   1.066 -0.2206  1.6138 -0.8637
 5603TIP3   OH216772   0.667   4.796   4.979  0.4315 -0.5469  0.2447
 5603TIP3    H116773   0.716   4.748   4.911  1.7352  0.8855  0.1234
 5603TIP3    H216774   0.712   4.774   5.061  0.6717 -0.0222  0.2605
 5604TIP3   OH216775   2.381   5.830   1.031 -0.3574 -0.2807  0.1351
 5604TIP3    H116776   2.303   5.797   0.986 -0.5805 -0.5163  0.6856
 5604TIP3    H216777   2.387   5.921   1.003 -0.2909 -0.5097 -0.6421
 5605TIP3   OH216778   4.460   5.383   4.053 -0.4383  0.1249 -0.1397
 5605TIP3    H116779   4.532   5.395   3.991 -0.1904 -0.2792  0.0685
 5605TIP3    H216780   4.419   5.301   4.026  0.6145 -0.8749  1.1561
 5606TIP3   OH216781   2.728   6.195   0.617  0.4768  0.0148 -0.1839
 5606TIP3    H116782   2.805   6.206   0.561  0.3569  1.5956 -0.0733
 5606TIP3    H216783   2.752   6.238   0.699  0.1033 -1.0200  0.4975
 5607TIP3   OH216784   4.967   0.136   3.006 -0.3030  0.0703  0.2879
 5607TIP3    H116785   4.925   0.099   3.083 -2.6651  0.0456 -0.8954
 5607TIP3    H216786   4.934   0.226   3.002  0.6102  0.3992 -0.1357
 5608TIP3   OH216787   1.849   0.690   4.807 -0.1369  0.1443 -0.0472
 5608TIP3    H116788   1.929   0.650   4.842  0.2842 -0.2764 -1.4248
 5608TIP3    H216789   1.802   0.720   4.885  0.5053 -1.1992  0.9086
 5609TIP3   OH216790   2.476   6.374   1.946  0.2295  0.0639  0.2704
 5609TIP3    H116791   2.423   6.394   2.023  1.0263  0.5066  0.7099
 5609TIP3    H216792   2.465   6.449   1.888 -0.2826 -0.2205 -0.0096
 5610TIP3   OH216793   3.442   6.594   1.705  0.8931  0.1032 -0.0671
 5610TIP3    H116794   3.434   6.630   1.793  2.2158  1.1286 -0.3292
 5610TIP3    H216795   3.485   6.509   1.717 -1.6685 -1.1989  0.4991
 5611TIP3   OH216796   3.450   1.885   5.841  0.5995  0.0131 -0.4909
 5611TIP3    H116797   3.491   1.828   5.906 -0.3488  2.1023  2.1289
 5611TIP3    H216798   3.463   1.974   5.876 -0.6958  1.1973 -2.7792
 5612TIP3   OH216799   0.952   5.578   2.005 -0.1925 -0.0148  0.4357
 5612TIP3    H116800   0.896   5.652   2.028 -0.5011 -0.1476  0.1162
 5612TIP3    H216801   0.891   5.503   2.001 -0.2505  0.0906 -1.3636
 5613TIP3   OH216802   6.359   6.478   5.482  0.8895  0.4143 -0.1459
 5613TIP3    H116803   6.368   6.500   5.574  1.5589  0.3500 -0.1872
 5613TIP3    H216804   6.350   6.562   5.437 -0.2584  0.4154  0.0433
 5614TIP3   OH216805   5.387   2.206   1.108 -0.3804 -0.5325  0.5280
 5614TIP3    H116806   5.423   2.289   1.138  2.5591 -1.5523  0.1231
 5614TIP3    H216807   5.372   2.156   1.189 -0.8226 -0.1519  0.6902
 5615TIP3   OH216808   3.216   1.562   3.454  0.0943  0.0555  0.0751
 5615TIP3    H116809   3.180   1.621   3.387 -0.8599 -0.0143  0.5060
 5615TIP3    H216810   3.264   1.496   3.404 -0.7722 -0.1131 -0.5741
 5616TIP3   OH216811   0.422   3.034   3.314  0.6396  0.2852  0.6710
 5616TIP3    H116812   0.507   3.017   3.274  0.7478 -0.0697  1.0395
 5616TIP3    H216813   0.442   3.085   3.392  0.3652  1.6552 -0.1149
 5617TIP3   OH216814   6.817   1.527   2.397 -0.4745  0.2748  0.1402
 5617TIP3    H116815   6.742   1.482   2.436 -0.6888 -0.5152 -1.1542
 5617TIP3    H216816   6.870   1.553   2.472 -1.3356 -0.3911  1.0084
 5618TIP3   OH216817   4.037   0.236   1.802  0.0773 -0.3107 -0.3248
 5618TIP3    H116818   4.061   0.230   1.709 -0.1328  1.3136 -0.5160
 5618TIP3    H216819   4.090   0.307   1.836  0.3763 -1.0886  0.9026
 5619TIP3   OH216820   2.427   0.056   1.062  0.1582  0.0250 -0.0500
 5619TIP3    H116821   2.368   0.034   1.134  0.5802 -1.0384 -0.0013
 5619TIP3    H216822   2.504   0.002   1.077  1.1335  1.3425 -0.1554
 5620TIP3   OH216823   3.867   5.019   5.355  1.0154  0.0807  0.2286
 5620TIP3    H116824   3.880   4.938   5.305 -0.4679  0.0627 -0.2007
 5620TIP3    H216825   3.867   4.991   5.446  2.4938 -0.0813  0.1966
 5621TIP3   OH216826   2.067   3.735   3.401 -0.1013 -0.1574  0.3910
 5621TIP3    H116827   1.985   3.687   3.405 -0.3752  0.0725 -1.6800
 5621TIP3    H216828   2.110   3.715   3.484 -1.8217 -1.0142  1.1292
 5622TIP3   OH216829   6.772   5.885   1.391 -0.3630 -0.2168  0.3718
 5622TIP3    H116830   6.691   5.904   1.344  0.3206  0.2113 -0.6554
 5622TIP3    H216831   6.753   5.909   1.482 -1.1872  0.4523  0.0339
 5623TIP3   OH216832   4.966   1.679   0.010 -0.8180 -0.1391  0.3642
 5623TIP3    H116833   4.932   1.726  -0.066 -0.1027 -0.6383 -0.2806
 5623TIP3    H216834   4.908   1.705   0.082 -1.1948  0.7371 -0.2356
 5624TIP3   OH216835   1.387   5.114   2.729  0.3142  0.7432 -0.1378
 5624TIP3    H116836   1.298   5.124   2.761  0.8352 -0.0827  1.7340
 5624TIP3    H216837   1.433   5.192   2.759  0.0653  1.6039 -1.8666
 5625TIP3   OH216838   4.225   1.002   3.392  0.1910 -0.0432 -0.1583
 5625TIP3    H116839   4.304   0.968   3.434 -0.2687  0.1886  0.9409
 5625TIP3    H216840   4.193   0.930   3.338  1.2981 -0.0448 -0.8453
 5626TIP3   OH216841   2.192   1.890   1.085  0.4214 -0.1909  0.0925
 5626TIP3    H116842   2.107   1.909   1.046 -0.1932  0.7434  1.7986
 5626TIP3    H216843   2.189   1.797   1.105  0.6354 -0.6238 -1.7397
 5627TIP3   OH216844   2.767   1.794   1.243  0.2013  0.4602 -0.5442
 5627TIP3    H116845   2.771   1.698   1.239 -1.0412  0.3512  0.1310
 5627TIP3    H216846   2.675   1.815   1.224 -0.0094  1.3637  1.1989
 5628TIP3   OH216847   5.084   1.757   4.275 -0.1911 -1.0884  0.7437
 5628TIP3    H116848   5.042   1.674   4.253 -0.7511 -0.6159 -0.0154
 5628TIP3    H216849   5.064   1.770   4.368 -1.7446 -0.8849  0.4066
 5629TIP3   OH216850   5.788   1.187   2.675 -0.0899 -0.0209 -0.0785
 5629TIP3    H116851   5.708   1.239   2.664 -1.0669 -1.4601  0.0020
 5629TIP3    H216852   5.840   1.207   2.597 -1.1589 -0.1385 -0.8550
 5630TIP3   OH216853   2.894   5.767   3.525  0.0935  0.2073  0.1780
 5630TIP3    H116854   2.823   5.707   3.500  1.5567 -1.9674  0.9294
 5630TIP3    H216855   2.856   5.820   3.596 -1.2795  0.2592 -0.5636
 5631TIP3   OH216856   6.311   1.931   0.731  0.4703  0.1957  0.1017
 5631TIP3    H116857   6.396   1.924   0.688  1.5983 -1.3039  2.3449
 5631TIP3    H216858   6.285   1.841   0.749 -0.9575  0.6737  0.6251
 5632TIP3   OH216859   0.579   4.888   0.773  0.0873 -0.2128  0.3623
 5632TIP3    H116860   0.619   4.964   0.731  0.6204 -0.4346  0.4687
 5632TIP3    H216861   0.558   4.917   0.862 -3.1669  1.0214 -0.6449
 5633TIP3   OH216862   6.546   4.581   2.576 -0.2995  0.0452 -0.3045
 5633TIP3    H116863   6.580   4.636   2.647  0.8740  0.3965 -1.1041
 5633TIP3    H216864   6.495   4.513   2.620 -1.0395  1.2638  0.7520
 5634TIP3   OH216865   3.622   0.049   2.164 -0.5021 -0.0120 -0.2259
 5634TIP3    H116866   3.548  -0.011   2.170 -1.6472  1.4621  1.0259
 5634TIP3    H216867   3.627   0.090   2.251  2.0328 -0.3295 -0.1391
 5635TIP3   OH216868   1.728   0.165   5.042  0.0247  0.0257  0.0288
 5635TIP3    H116869   1.704   0.228   4.974 -0.5228 -0.3896 -0.1656
 5635TIP3    H216870   1.675   0.190   5.117 -1.4076 -1.1849 -0.5486
 5636TIP3   OH216871   2.987   2.720   0.947  0.7088 -0.0432  0.3422
 5636TIP3    H116872   2.903   2.727   0.991  1.0097 -0.7406  1.0581
 5636TIP3    H216873   3.015   2.810   0.932 -0.7084  0.2084 -1.0094
 5637TIP3   OH216874   1.133   1.552   5.367 -0.4471 -0.2761  0.1873
 5637TIP3    H116875   1.071   1.598   5.424  0.8851  1.8460  0.0369
 5637TIP3    H216876   1.153   1.615   5.298 -1.4982 -2.5154 -2.3530
 5638TIP3   OH216877   0.960   0.619   5.529 -0.2975 -0.1418 -0.1412
 5638TIP3    H116878   0.876   0.651   5.495 -0.2710  0.5941  0.4435
 5638TIP3    H216879   0.949   0.619   5.624  0.6911  0.9714 -0.0001
 5639TIP3   OH216880   1.047   1.551   0.887 -0.1477 -0.3891 -0.1629
 5639TIP3    H116881   1.032   1.524   0.978 -2.0433  0.5579 -0.1474
 5639TIP3    H216882   0.964   1.590   0.860 -0.5231 -2.8674 -3.1140
 5640TIP3   OH216883   0.493   1.240   3.782 -0.5601 -0.0445 -0.0726
 5640TIP3    H116884   0.431   1.303   3.745 -1.5089 -1.1078 -0.3695
 5640TIP3    H216885   0.579   1.276   3.760 -1.0453 -0.3818 -3.0809
 5641TIP3   OH216886   3.753   6.114   0.317  0.5709 -0.1220 -0.3255
 5641TIP3    H116887   3.824   6.109   0.254 -0.2217 -1.6833 -1.1523
 5641TIP3    H216888   3.691   6.047   0.289 -0.0047 -0.5987  1.8654
 5642TIP3   OH216889   6.317   4.253   2.452 -0.2378 -0.3663  0.2282
 5642TIP3    H116890   6.386   4.215   2.398 -1.2243  0.3885 -1.6664
 5642TIP3    H216891   6.242   4.195   2.438 -0.9047  0.6151 -0.3850
 5643TIP3   OH216892   0.139   4.196   4.192  0.2983  0.2286 -0.5621
 5643TIP3    H116893   0.210   4.257   4.172 -0.8284  1.7251 -0.2124
 5643TIP3    H216894   0.149   4.126   4.127  2.3708  0.1180 -0.2019
 5644TIP3   OH216895   6.370   4.074   3.376 -0.1445  0.2143  0.0764
 5644TIP3    H116896   6.458   4.054   3.407  1.2456  3.9349 -0.9353
 5644TIP3    H216897   6.346   3.999   3.322  2.1345 -1.1696  0.8503
 5645TIP3   OH216898   4.367   5.363   1.610 -0.1481  0.1831 -0.1758
 5645TIP3    H116899   4.462   5.375   1.612 -0.0431 -0.6062  1.4265
 5645TIP3    H216900   4.352   5.302   1.538  0.5325  0.4492 -0.5537
 5646TIP3   OH216901   2.295   0.523   4.815  0.4143 -0.2390 -0.1646
 5646TIP3    H116902   2.319   0.574   4.737  0.0869 -0.3512 -0.3389
 5646TIP3    H216903   2.368   0.536   4.875  1.5156 -1.5244 -1.1453
 5647TIP3   OH216904   5.770   3.189   2.122 -0.2939  0.5512 -0.4663
 5647TIP3    H116905   5.699   3.183   2.058 -0.6188 -2.2523  0.0456
 5647TIP3    H216906   5.824   3.112   2.105 -0.0011  0.1089  2.1482
 5648TIP3   OH216907   4.624   3.096   0.992 -0.5135  0.0144  0.4232
 5648TIP3    H116908   4.640   3.189   1.006  1.7331 -0.0054 -1.2614
 5648TIP3    H216909   4.582   3.092   0.906 -1.5657 -0.4914  0.9489
 5649TIP3   OH216910   6.650   0.598   3.208  0.4547  0.4996 -0.1888
 5649TIP3    H116911   6.686   0.657   3.142  0.3915  2.9137  1.7648
 5649TIP3    H216912   6.555   0.609   3.200  0.4333  0.4793  0.0417
 5650TIP3   OH216913   1.334   2.571   5.613  0.5208  0.1367  0.4235
 5650TIP3    H116914   1.245   2.549   5.641  0.7370 -0.2674  0.8147
 5650TIP3    H216915   1.381   2.488   5.618  0.9346  0.3619  0.2815
 5651TIP3   OH216916   4.396   5.986   1.934  0.5768  0.0826  0.2622
 5651TIP3    H116917   4.490   5.974   1.945  0.7181  1.9134  1.4982
 5651TIP3    H216918   4.380   5.974   1.840  2.1960  0.6851 -0.1082
 5652TIP3   OH216919   1.051   5.653   0.649 -0.4706  0.6830 -0.2553
 5652TIP3    H116920   1.066   5.621   0.738 -0.9937 -0.8941 -0.6878
 5652TIP3    H216921   1.137   5.677   0.617 -0.2870  1.3232  0.6910
 5653TIP3   OH216922   0.051   0.954   2.125  0.0340 -0.4921  0.4916
 5653TIP3    H116923   0.055   0.951   2.029  1.0074 -0.3954  0.5207
 5653TIP3    H216924   0.026   0.865   2.151  0.9207 -0.8437  0.1864
 5654TIP3   OH216925   6.320   4.015   1.768 -0.8366  0.1051 -0.1152
 5654TIP3    H116926   6.404   3.974   1.747 -0.6310 -0.7430  2.0719
 5654TIP3    H216927   6.340   4.109   1.774  0.5010 -0.2638  2.4324
 5655TIP3   OH216928   4.972   1.412   2.843 -0.7427  0.5268  0.3458
 5655TIP3    H116929   4.893   1.460   2.866 -1.1227  1.1548 -2.0001
 5655TIP3    H216930   5.030   1.478   2.805 -0.4390 -0.4526 -0.9974
 5656TIP3   OH216931   5.693   3.554   2.143  0.0438  0.4727 -0.1682
 5656TIP3    H116932   5.685   3.466   2.106  0.9967  0.2975  0.0010
 5656TIP3    H216933   5.605   3.591   2.137 -0.4136 -0.5521 -0.0942
 5657TIP3   OH216934   0.137   5.284   3.878 -0.8646 -0.4349 -0.0646
 5657TIP3    H116935   0.147   5.254   3.969 -0.5604 -1.1553 -0.3274
 5657TIP3    H216936   0.046   5.266   3.856 -0.7332 -1.0061 -0.1577
 5658TIP3   OH216937   4.374   5.685   3.626 -0.2442  0.2603  0.0634
 5658TIP3    H116938   4.405   5.595   3.625 -0.9570 -0.0348 -2.2080
 5658TIP3    H216939   4.310   5.689   3.697 -0.2836 -1.0569  0.1100
 5659TIP3   OH216940   4.749   0.557   4.496 -0.2390 -0.1105 -0.9347
 5659TIP3    H116941   4.842   0.536   4.486 -0.1097 -1.0445  1.5942
 5659TIP3    H216942   4.747   0.652   4.509  0.5084 -0.2252  0.1569
 5660TIP3   OH216943   5.992   1.730   3.784 -0.1140  0.3174  0.0703
 5660TIP3    H116944   6.017   1.714   3.875 -0.9209  1.2943  0.4840
 5660TIP3    H216945   5.909   1.777   3.790 -0.1572  0.4361 -1.1774
 5661TIP3   OH216946   2.383   0.913   3.949  0.6422 -0.1946  0.5290
 5661TIP3    H116947   2.310   0.949   3.899  1.2466  0.4505  0.1048
 5661TIP3    H216948   2.355   0.824   3.971 -0.0392 -0.1410 -0.0924
 5662TIP3   OH216949   0.932   0.460   4.203  0.0559  0.0877 -0.1283
 5662TIP3    H116950   0.862   0.505   4.156  0.5552  3.0782  1.7271
 5662TIP3    H216951   0.888   0.415   4.275 -0.1227  0.7545  0.1868
 5663TIP3   OH216952   4.146   2.536   1.808  0.0518 -0.0168  0.0585
 5663TIP3    H116953   4.106   2.457   1.844 -0.4049 -0.0938 -0.5919
 5663TIP3    H216954   4.210   2.504   1.745 -0.0368  0.1308 -0.1075
 5664TIP3   OH216955   6.698   3.807   2.950  0.0585 -0.2140 -0.0778
 5664TIP3    H116956   6.721   3.880   3.007 -0.3894 -0.7990  0.8795
 5664TIP3    H216957   6.621   3.837   2.903  0.1240  0.0900  0.0093
 5665TIP3   OH216958   1.505   5.749   2.933 -0.0918  0.3124 -0.4963
 5665TIP3    H116959   1.552   5.670   2.958  0.7695  0.5866 -1.1894
 5665TIP3    H216960   1.477   5.733   2.843 -0.3730  0.5764 -0.4573
 5666TIP3   OH216961   3.245   2.063   4.674  0.4426 -0.4135  0.1695
 5666TIP3    H116962   3.300   2.039   4.600  1.7731 -1.6065  1.4848
 5666TIP3    H216963   3.194   1.984   4.692 -2.0354  0.7486 -1.2064
 5667TIP3   OH216964   5.963   2.640   4.952 -0.6944 -0.1121 -0.0980
 5667TIP3    H116965   5.942   2.610   5.040 -0.3283  0.3210  0.1460
 5667TIP3    H216966   6.059   2.637   4.947 -0.5769  1.6403  0.1987
 5668TIP3   OH216967   4.010   6.235   2.783  0.1408 -0.3601 -0.7191
 5668TIP3    H116968   3.923   6.254   2.747  0.9013 -0.0492 -2.5579
 5668TIP3    H216969   4.068   6.295   2.736  1.4286 -0.9781  0.0315
 5669TIP3   OH216970   5.343   1.055   4.874  0.2507 -0.4115 -0.2197
 5669TIP3    H116971   5.370   0.983   4.931 -2.1082 -1.2661 -0.0657
 5669TIP3    H216972   5.257   1.081   4.908  0.6633  1.9271 -0.8109
 5670TIP3   OH216973   1.685   1.271   5.243 -0.3649  0.0164  0.0568
 5670TIP3    H116974   1.644   1.292   5.159 -0.7052 -0.2998  0.1417
 5670TIP3    H216975   1.772   1.310   5.237 -1.4666  2.8338  0.8054
 5671TIP3   OH216976   6.475   3.444   4.618 -0.2871 -0.2616  0.0013
 5671TIP3    H116977   6.505   3.471   4.531  2.1927 -1.1603  0.4864
 5671TIP3    H216978   6.477   3.348   4.615  0.2308 -0.3016  1.1517
 5672TIP3   OH216979   1.506   5.906   1.203  0.6671  0.7634  0.2634
 5672TIP3    H116980   1.425   5.955   1.218  0.7589  1.1996 -0.6154
 5672TIP3    H216981   1.554   5.915   1.285 -0.0484  0.7340  0.6985
 5673TIP3   OH216982   0.936   5.207   0.962 -0.2265 -0.5647  0.2300
 5673TIP3    H116983   0.986   5.203   0.880 -0.5200  1.5768 -0.1102
 5673TIP3    H216984   0.846   5.190   0.936 -0.1911 -0.8071  0.2635
 5674TIP3   OH216985   5.522   0.377   2.356 -0.7445 -0.2802 -0.0664
 5674TIP3    H116986   5.477   0.293   2.368 -3.0987  0.7269 -1.1840
 5674TIP3    H216987   5.479   0.436   2.418  0.7480  0.2049  0.5688
 5675TIP3   OH216988   6.347   1.258   0.775 -1.2287 -0.4861  0.1579
 5675TIP3    H116989   6.436   1.223   0.773 -1.7262 -1.8261  0.6159
 5675TIP3    H216990   6.324   1.273   0.683 -0.9286 -1.1634 -0.0263
 5676TIP3   OH216991   5.504   5.259   3.052 -0.1386 -0.2677 -0.3126
 5676TIP3    H116992   5.415   5.260   3.089 -0.8024 -1.0405 -1.7905
 5676TIP3    H216993   5.555   5.314   3.112 -1.4575 -0.3154  0.9266
 5677TIP3   OH216994   1.558   4.031   5.741  0.1795 -0.5520  0.3782
 5677TIP3    H116995   1.572   3.988   5.826  0.6101 -0.4268  0.3765
 5677TIP3    H216996   1.469   4.066   5.746  0.0972 -0.7983  0.6662
 5678TIP3   OH216997   3.048   0.514   2.113 -0.2219 -0.0048  0.5719
 5678TIP3    H116998   2.994   0.572   2.166  1.2767 -0.4710  2.7122
 5678TIP3    H216999   3.115   0.571   2.076 -1.4072  0.3654 -1.1469
 5679TIP3   OH217000   1.198   3.355   5.597 -0.0548  0.4491 -0.2631
 5679TIP3    H117001   1.106   3.350   5.622  0.0256 -2.2408 -0.2110
 5679TIP3    H217002   1.232   3.268   5.614  2.9887  1.7957  1.3580
 5680TIP3   OH217003   6.188   5.362   4.013 -0.0986  0.0195  0.5203
 5680TIP3    H117004   6.220   5.420   3.944 -1.1733 -0.4108 -0.3779
 5680TIP3    H217005   6.117   5.313   3.971 -1.2872  0.2787  2.1561
 5681TIP3   OH217006   4.620   1.285   5.514 -0.5658  0.7473  0.0816
 5681TIP3    H117007   4.678   1.249   5.581 -0.5237  1.4010  0.4100
 5681TIP3    H217008   4.677   1.338   5.459 -0.2637 -1.1730 -1.5648
 5682TIP3   OH217009   1.926   1.865   4.432 -0.2748  0.3995 -0.0870
 5682TIP3    H117010   1.910   1.776   4.403  0.5962  0.8502 -2.0608
 5682TIP3    H217011   1.931   1.917   4.352  1.7412  1.7995  0.8646
 5683TIP3   OH217012   1.527   3.383   2.077  0.3383  0.6840  0.0193
 5683TIP3    H117013   1.517   3.458   2.019 -3.8236  2.1384  2.2294
 5683TIP3    H217014   1.454   3.325   2.054  1.6794 -1.2629  0.4011
 5684TIP3   OH217015   0.108   6.421   0.205 -0.1210 -0.0493  0.2582
 5684TIP3    H117016   0.198   6.452   0.221 -0.5797  1.4397  0.1338
 5684TIP3    H217017   0.099   6.424   0.110 -0.7984  1.3928  0.3393
 5685TIP3   OH217018   0.593   0.647   0.845  0.0385 -0.7878 -0.6432
 5685TIP3    H117019   0.672   0.609   0.807 -0.2379 -0.6543 -1.3820
 5685TIP3    H217020   0.618   0.736   0.870  0.5583 -1.2767  0.6547
 5686TIP3   OH217021   6.928   4.327   4.526 -0.7514  0.7302 -0.3666
 5686TIP3    H117022   6.985   4.403   4.532  0.7856 -0.2733 -1.5855
 5686TIP3    H217023   6.942   4.279   4.608 -1.0785  1.3078  0.0315
 5687TIP3   OH217024   1.118   1.137   5.251 -0.8038  0.2515  0.0757
 5687TIP3    H117025   1.085   1.072   5.314 -0.9510  0.5058  0.2643
 5687TIP3    H217026   1.111   1.221   5.298  1.3621  0.1754  0.6261
 5688TIP3   OH217027   2.992   6.109   2.080 -0.2786 -0.3336 -0.0178
 5688TIP3    H117028   2.982   6.114   1.985 -0.2801 -0.4433 -0.0225
 5688TIP3    H217029   2.983   6.200   2.109  0.4452 -0.2008 -0.1913
 5689TIP3   OH217030   2.912   4.726   4.275  0.0894 -0.1017 -0.3255
 5689TIP3    H117031   2.884   4.778   4.350  0.8216  0.2518 -0.2863
 5689TIP3    H217032   2.970   4.659   4.313  2.3967  1.4995 -0.7721
 5690TIP3   OH217033   0.526   5.252   0.297  0.5992  0.0973  0.2706
 5690TIP3    H117034   0.527   5.317   0.367 -0.8929  0.8599 -0.3745
 5690TIP3    H217035   0.441   5.263   0.255  1.1692 -0.8478 -1.2052
 5691TIP3   OH217036   6.784   1.416   4.005  0.3908  0.2863 -0.3673
 5691TIP3    H117037   6.851   1.427   3.937  1.6414 -1.7994  0.4290
 5691TIP3    H217038   6.796   1.326   4.036 -0.7286  0.8706  1.9897
 5692TIP3   OH217039   2.522   2.282   1.213  0.0378 -0.1821  0.1475
 5692TIP3    H117040   2.458   2.215   1.190 -0.5106  0.5994 -0.6870
 5692TIP3    H217041   2.480   2.334   1.281 -0.1869  0.2640 -0.3220
 5693TIP3   OH217042   1.078   6.100   5.348  0.1708  0.0176 -0.1116
 5693TIP3    H117043   1.005   6.105   5.287  0.4210 -0.0359 -0.4203
 5693TIP3    H217044   1.149   6.059   5.297  0.5767  0.5356  0.0285
 5694TIP3   OH217045   5.667   6.580   4.003  0.3596  0.3181  0.2945
 5694TIP3    H117046   5.733   6.623   4.057 -0.3998  0.3360  1.2382
 5694TIP3    H217047   5.633   6.650   3.947  1.8828  0.0804 -0.9926
 5695TIP3   OH217048   1.199   5.951   2.910  0.0046  0.1540 -0.5425
 5695TIP3    H117049   1.243   5.874   2.874  0.5658  0.7679 -1.1944
 5695TIP3    H217050   1.162   5.921   2.993  0.8148 -0.6358 -0.4503
 5696TIP3   OH217051   6.011   2.053   3.635 -0.2159 -0.1657  0.0443
 5696TIP3    H117052   5.960   2.134   3.633  0.1134  0.0430 -0.0064
 5696TIP3    H217053   5.947   1.985   3.654 -0.4749  0.1223  0.2110
 5697TIP3   OH217054   3.129   6.363   4.910 -0.2409 -0.4979  0.8256
 5697TIP3    H117055   3.043   6.401   4.926 -0.9337 -1.9555  0.7876
 5697TIP3    H217056   3.154   6.323   4.994  0.9374  0.8753  1.1664
 5698TIP3   OH217057   4.545   0.649   2.668 -0.4323  0.4646 -0.2333
 5698TIP3    H117058   4.632   0.685   2.683  0.3281 -0.1790 -2.6572
 5698TIP3    H217059   4.488   0.725   2.662  0.2998  1.0011 -0.5291
 5699TIP3   OH217060   4.363   6.285   1.235 -0.3672 -0.1746  0.0426
 5699TIP3    H117061   4.346   6.235   1.156 -0.2956 -0.1596  0.0172
 5699TIP3    H217062   4.440   6.339   1.213  1.9439 -2.7286  1.2411
 5700TIP3   OH217063   5.160   6.149   4.724  0.0726  0.3034  0.2777
 5700TIP3    H117064   5.160   6.054   4.713  0.2698  0.3982 -0.5742
 5700TIP3    H217065   5.205   6.163   4.808  1.3789 -0.2764 -0.3038
 5701TIP3   OH217066   2.105   5.021   1.503 -0.3906  0.3282  0.2163
 5701TIP3    H117067   2.103   5.021   1.598  1.4687  2.7203  0.3735
 5701TIP3    H217068   2.016   5.046   1.477 -0.9096 -0.3415  1.3034
 5702TIP3   OH217069   0.084   4.297   1.488 -0.2241  0.1776 -0.0691
 5702TIP3    H117070  -0.001   4.297   1.532 -0.1596  0.4244  0.0534
 5702TIP3    H217071   0.104   4.389   1.474  0.1874  0.1360  0.2185
 5703TIP3   OH217072   4.218   3.918   2.958  0.4569  0.2411  0.0386
 5703TIP3    H117073   4.232   4.012   2.959  0.9535  0.1784 -0.3947
 5703TIP3    H217074   4.163   3.903   2.881  2.1589 -0.0383 -1.1770
 5704TIP3   OH217075   5.978   2.585   4.198  0.3541 -0.2766 -0.3889
 5704TIP3    H117076   6.002   2.524   4.267  0.1752 -1.6086 -1.4561
 5704TIP3    H217077   6.056   2.639   4.186  1.1225 -1.3847 -0.5260
 5705TIP3   OH217078   2.755   2.331   4.221 -0.4468 -0.5739  0.4863
 5705TIP3    H117079   2.845   2.318   4.191  0.3175  1.6464  1.5241
 5705TIP3    H217080   2.716   2.244   4.221  1.2090 -1.3812 -1.4775
 5706TIP3   OH217081   5.429   2.283   3.883  0.2975  0.8583  0.0726
 5706TIP3    H117082   5.383   2.199   3.893 -0.4566  1.1977 -0.4778
 5706TIP3    H217083   5.400   2.316   3.798  0.7118  1.6032  0.2183
 5707TIP3   OH217084   1.868   5.612   4.866 -0.2740  0.0493  0.5750
 5707TIP3    H117085   1.873   5.585   4.774  0.3299  0.9947  0.3213
 5707TIP3    H217086   1.916   5.544   4.913 -0.8752 -0.6185  0.2437
 5708TIP3   OH217087   0.410   4.117   1.976  0.1149 -0.3520 -0.3219
 5708TIP3    H117088   0.463   4.054   2.025  0.3635  0.1698  0.1027
 5708TIP3    H217089   0.325   4.115   2.020  0.2700 -0.0454 -0.0037
 5709TIP3   OH217090   1.103   0.078   0.284 -0.2091 -0.4728  0.1298
 5709TIP3    H117091   1.116   0.008   0.220  0.5520 -0.6679  0.4800
 5709TIP3    H217092   1.009   0.090   0.289 -0.3341 -1.3723 -0.0434
 5710TIP3   OH217093   1.575   5.471   0.802 -0.4349 -0.3156 -0.3025
 5710TIP3    H117094   1.600   5.433   0.887 -1.3318 -0.8818 -0.2803
 5710TIP3    H217095   1.642   5.441   0.742  1.5007  1.9000  0.5854
 5711TIP3   OH217096   3.425   0.091   3.807 -0.1888  0.2216 -0.2445
 5711TIP3    H117097   3.467   0.067   3.890  0.4593  1.1357 -0.2909
 5711TIP3    H217098   3.498   0.102   3.746 -0.7370 -2.0290 -1.4011
 5712TIP3   OH217099   0.550   0.406   0.347 -0.5467  0.0209 -0.7250
 5712TIP3    H117100   0.589   0.413   0.260  1.1226 -0.3727 -0.0421
 5712TIP3    H217101   0.540   0.497   0.377 -0.3723  0.1330 -1.0081
 5713TIP3   OH217102   5.787   4.988   4.799  0.0044 -0.3719  0.0670
 5713TIP3    H117103   5.697   4.974   4.770  0.3363 -0.0302 -1.1600
 5713TIP3    H217104   5.810   4.908   4.845 -0.7689 -0.6429  0.0060
 5714TIP3   OH217105   4.996   4.538   3.293  0.2430 -0.4203 -0.1485
 5714TIP3    H117106   5.017   4.488   3.214 -1.4468 -1.4257 -0.0064
 5714TIP3    H217107   5.078   4.539   3.343  1.3098  0.1323 -1.8247
 5715TIP3   OH217108   1.908   0.325   4.245  0.2560 -0.2653  0.4274
 5715TIP3    H117109   1.919   0.252   4.305 -1.5208 -1.2203 -0.3381
 5715TIP3    H217110   1.814   0.332   4.231  0.5812 -0.3335 -2.5018
 5716TIP3   OH217111   6.668   4.568   4.465 -0.3165  0.3030  0.4138
 5716TIP3    H117112   6.751   4.522   4.457 -0.3037  0.1640  1.2535
 5716TIP3    H217113   6.667   4.629   4.391 -1.3553 -2.5592 -2.0994
 5717TIP3   OH217114   2.459   6.045   2.011  0.0091 -0.0202 -0.7030
 5717TIP3    H117115   2.515   5.973   2.039  0.0032 -0.2944 -1.3835
 5717TIP3    H217116   2.400   6.060   2.085  1.5672  0.8845  0.4199
 5718TIP3   OH217117   4.513   2.855   5.452  0.1192 -0.1890  0.1993
 5718TIP3    H117118   4.453   2.897   5.391  0.1556 -0.0297  0.2719
 5718TIP3    H217119   4.458   2.795   5.503 -0.0570  0.2660  0.5519
 5719TIP3   OH217120   0.613   6.581   4.659 -0.1404  0.4715 -0.0375
 5719TIP3    H117121   0.633   6.538   4.577  1.1168  2.3840 -0.8091
 5719TIP3    H217122   0.683   6.554   4.719  0.1447  0.7426 -0.2477
 5720TIP3   OH217123   1.526   2.628   1.702 -0.2030 -0.0299 -0.1696
 5720TIP3    H117124   1.500   2.555   1.647  1.1770 -1.7469  1.3409
 5720TIP3    H217125   1.489   2.608   1.788  1.5335  0.1579  0.6755
 5721TIP3   OH217126   1.921   2.027   2.330 -0.4991 -0.3761 -0.7664
 5721TIP3    H117127   1.959   2.089   2.393 -1.3475  1.1605 -1.6987
 5721TIP3    H217128   1.918   2.076   2.248 -1.1847 -1.6887 -1.5534
 5722TIP3   OH217129   6.038   5.018   4.037 -0.3464  0.2957 -0.4929
 5722TIP3    H117130   5.985   5.074   3.980 -0.6374  1.8034  1.1560
 5722TIP3    H217131   6.079   5.079   4.099 -0.5755 -1.2951  1.3224
 5723TIP3   OH217132   7.033   1.981   5.042  0.2730 -0.5965 -0.4540
 5723TIP3    H117133   6.956   1.998   4.989 -1.9119 -3.0309  1.6508
 5723TIP3    H217134   7.029   2.046   5.112  0.3875 -0.4161 -0.6168
 5724TIP3   OH217135   2.847   1.128   1.147  0.2770  0.7981  0.0601
 5724TIP3    H117136   2.876   1.133   1.238 -0.9124 -1.2534  0.6127
 5724TIP3    H217137   2.786   1.055   1.145 -0.2141  1.1895 -2.2799
 5725TIP3   OH217138   0.269   3.849   4.806 -0.1873  0.0836 -0.0344
 5725TIP3    H117139   0.187   3.897   4.815 -0.2017  0.1208 -0.3667
 5725TIP3    H217140   0.267   3.785   4.877 -0.8529 -0.4194 -0.4979
 5726TIP3   OH217141   4.175   5.857   4.915 -0.5384  0.6315 -0.4068
 5726TIP3    H117142   4.261   5.846   4.874  0.1178  1.5285  0.6533
 5726TIP3    H217143   4.129   5.917   4.856  0.3166  1.7466  0.0173
 5727TIP3   OH217144   5.650   2.168   3.116 -0.0801 -0.5820  0.2193
 5727TIP3    H117145   5.622   2.078   3.102 -0.8612 -0.2230 -0.5803
 5727TIP3    H217146   5.569   2.218   3.127  0.3412  0.0426  0.5896
 5728TIP3   OH217147   1.548   1.468   4.612 -0.4732 -0.2512 -0.1592
 5728TIP3    H117148   1.588   1.449   4.527 -1.8006  1.8705 -1.3436
 5728TIP3    H217149   1.614   1.519   4.659  1.4852 -3.8612  1.4408
 5729TIP3   OH217150   0.498   4.798   3.884 -0.2557  0.0764  0.3162
 5729TIP3    H117151   0.491   4.806   3.979 -0.1111 -2.7392  0.6628
 5729TIP3    H217152   0.408   4.806   3.852 -0.2335  1.6541  0.5860
 5730TIP3   OH217153   2.057   0.918   2.803  0.0617  0.1441  0.1583
 5730TIP3    H117154   2.060   0.996   2.859  0.4156  0.7494 -0.6832
 5730TIP3    H217155   2.039   0.952   2.715  2.1971 -0.4912 -0.6007
 5731TIP3   OH217156   3.875   6.201   3.790 -0.3655 -0.2457 -0.3265
 5731TIP3    H117157   3.922   6.118   3.782 -1.8286 -1.0357 -1.0558
 5731TIP3    H217158   3.856   6.208   3.884  0.3082 -0.4115 -0.1700
 5732TIP3   OH217159   3.669   0.772   2.131  0.0096 -0.1428  0.3701
 5732TIP3    H117160   3.674   0.733   2.044  1.9508 -0.7515  0.7008
 5732TIP3    H217161   3.717   0.854   2.124  0.1118 -0.1574  0.8464
 5733TIP3   OH217162   3.179   3.174   4.508  0.1934  0.1486 -0.4688
 5733TIP3    H117163   3.091   3.176   4.545  0.8105  0.6301  1.0452
 5733TIP3    H217164   3.195   3.081   4.490  0.4101 -0.3587  1.9616
 5734TIP3   OH217165   5.761   2.693   0.118  0.1822  0.9044  0.0286
 5734TIP3    H117166   5.779   2.682   0.024 -0.1899  1.2299 -0.0852
 5734TIP3    H217167   5.713   2.776   0.123 -0.9961  0.2236  0.3520
 5735TIP3   OH217168   3.685   6.498   0.288 -0.0755  0.0969 -0.2051
 5735TIP3    H117169   3.659   6.443   0.362 -0.8760  1.9525  0.9684
 5735TIP3    H217170   3.671   6.588   0.319 -0.2554  0.9440 -2.5515
 5736TIP3   OH217171   2.523   1.158   5.859 -0.4431 -0.2616 -0.8782
 5736TIP3    H117172   2.579   1.217   5.808 -2.5040  2.0181 -0.6544
 5736TIP3    H217173   2.529   1.190   5.949  0.1363 -1.8274 -0.3380
 5737TIP3   OH217174   7.104   3.018   5.778 -0.1696 -0.0686 -0.1721
 5737TIP3    H117175   7.074   2.938   5.821  0.3879 -0.3926 -0.3718
 5737TIP3    H217176   7.082   3.005   5.686 -2.5482  1.1785  0.1538
 5738TIP3   OH217177   0.385   6.557   5.081 -0.5536 -0.1489 -0.1995
 5738TIP3    H117178   0.439   6.550   5.160 -1.5643  2.0217  0.7473
 5738TIP3    H217179   0.443   6.597   5.016 -0.6273  1.0434  0.4463
 5739TIP3   OH217180   6.296   6.628   0.395  0.8590  0.2326 -0.2417
 5739TIP3    H117181   6.364   6.633   0.327 -0.7654 -1.4742 -2.1266
 5739TIP3    H217182   6.278   6.534   0.404 -2.0063  0.6476 -0.6929
 5740TIP3   OH217183   0.714   0.678   4.487  0.1860  0.1761  0.2682
 5740TIP3    H117184   0.802   0.653   4.515  0.3299 -0.1882 -0.4871
 5740TIP3    H217185   0.691   0.614   4.420 -0.6297  0.3124  0.4076
 5741TIP3   OH217186   2.772   2.962   3.075  0.0645  0.4148  0.3911
 5741TIP3    H117187   2.786   2.939   2.983  1.7538  1.4636  0.3614
 5741TIP3    H217188   2.808   2.888   3.124 -0.7668 -0.1098  0.2351
 5742TIP3   OH217189   1.380   3.059   4.686  0.0737 -0.0851 -0.2297
 5742TIP3    H117190   1.321   2.990   4.714 -1.4341  0.8219 -1.0475
 5742TIP3    H217191   1.371   3.127   4.753  1.1721 -0.4341  0.3036
 5743TIP3   OH217192   1.850   2.384   2.663 -0.3628  0.0710 -0.0655
 5743TIP3    H117193   1.767   2.346   2.635 -0.0425 -0.2838 -0.5530
 5743TIP3    H217194   1.871   2.339   2.745 -0.8426  0.4434  0.2635
 5744TIP3   OH217195   6.447   2.600   1.264  0.2353  0.0670  0.6374
 5744TIP3    H117196   6.429   2.590   1.170  0.5104  0.3425  0.5538
 5744TIP3    H217197   6.433   2.512   1.300  1.2609 -0.3158  0.1439
 5745TIP3   OH217198   2.583   0.815   3.584 -0.1440  0.3092  0.0152
 5745TIP3    H117199   2.533   0.736   3.604 -2.3950  1.7985  0.5463
 5745TIP3    H217200   2.582   0.821   3.489 -3.5047  1.7177  0.0002
 5746TIP3   OH217201   5.868   3.793   0.982 -0.2866  0.0276 -0.2347
 5746TIP3    H117202   5.800   3.760   0.923 -1.1828  0.6801  0.4072
 5746TIP3    H217203   5.912   3.861   0.931 -1.6731  1.2564  0.1149
 5747TIP3   OH217204   6.543   3.709   3.169 -0.0914  0.0350  0.0272
 5747TIP3    H117205   6.589   3.647   3.113  0.4587  2.0263 -1.8838
 5747TIP3    H217206   6.604   3.782   3.179 -0.0844 -0.2914  3.4863
 5748TIP3   OH217207   2.049   0.747   0.721 -0.1593  0.4047  0.5905
 5748TIP3    H117208   2.144   0.734   0.729 -0.1090  0.9503  0.8623
 5748TIP3    H217209   2.035   0.757   0.627 -0.0208 -0.2046  0.4955
 5749TIP3   OH217210   3.797   1.413   2.081  0.2192 -0.3117  0.0674
 5749TIP3    H117211   3.785   1.353   2.007 -1.4463 -0.5437  0.4778
 5749TIP3    H217212   3.788   1.357   2.158  0.8644  0.1127  0.4549
 5750TIP3   OH217213   2.911   6.766   0.838 -0.4491  0.7511 -0.2535
 5750TIP3    H117214   2.913   6.692   0.778  0.6440 -1.3867  2.1926
 5750TIP3    H217215   2.978   6.825   0.805  1.4026 -1.2013 -0.2540
 5751TIP3   OH217216   6.005   6.231   4.015 -0.1598  0.0111 -0.0932
 5751TIP3    H117217   6.048   6.304   3.971 -1.6419  0.3873 -0.9939
 5751TIP3    H217218   5.913   6.256   4.020 -0.4172 -1.0479  1.1696
 5752TIP3   OH217219   2.399   2.897   4.113 -0.2178 -0.3578  0.6671
 5752TIP3    H117220   2.336   2.920   4.045  0.0547 -0.3192  0.4257
 5752TIP3    H217221   2.443   2.819   4.080 -0.1292 -0.3757  0.8260
 5753TIP3   OH217222   2.325   2.828   3.377 -0.2757  0.0380  0.2034
 5753TIP3    H117223   2.396   2.889   3.357  0.5444 -0.5990  1.1031
 5753TIP3    H217224   2.328   2.763   3.307 -2.0187  1.6895 -1.5406
 5754TIP3   OH217225   3.358   2.612   3.869 -0.0114  0.2957  0.4888
 5754TIP3    H117226   3.319   2.554   3.804  0.7448 -0.8488  1.0244
 5754TIP3    H217227   3.438   2.644   3.828  0.3977 -0.3218  0.7955
 5755TIP3   OH217228   6.890   0.425   3.971  0.0361  0.3879 -0.5271
 5755TIP3    H117229   6.916   0.515   3.989 -2.1345  0.4611  3.1630
 5755TIP3    H217230   6.932   0.373   4.039  0.5859 -1.3430 -2.0900
 5756TIP3   OH217231   6.550   2.162   1.377 -0.0385 -0.2999  0.2730
 5756TIP3    H117232   6.512   2.130   1.459  0.3440  0.9406  0.9588
 5756TIP3    H217233   6.481   2.217   1.339  0.4565  0.6841  0.7439
 5757TIP3   OH217234   6.400   6.493   4.501  0.0802 -0.4962  0.4481
 5757TIP3    H117235   6.394   6.467   4.409  0.1490 -2.3983  0.9250
 5757TIP3    H217236   6.311   6.486   4.534 -0.6026  3.3390 -0.1523
 5758TIP3   OH217237   4.305   4.718   3.575  0.4347 -0.1865  0.0649
 5758TIP3    H117238   4.209   4.708   3.576  0.3677  0.0577 -1.4618
 5758TIP3    H217239   4.330   4.692   3.487  2.1254 -3.1094  1.2791
 5759TIP3   OH217240   1.450   6.392   3.357 -0.2484  0.5742  0.5279
 5759TIP3    H117241   1.471   6.379   3.265 -0.8513  3.4887 -0.1286
 5759TIP3    H217242   1.530   6.427   3.395 -0.4078  0.6755  0.7738
 5760TIP3   OH217243   2.421   2.275   2.594  0.1689  0.1508  0.2945
 5760TIP3    H117244   2.422   2.303   2.686 -0.4493  1.2860 -0.0284
 5760TIP3    H217245   2.450   2.351   2.545 -0.8097  0.0093 -0.5452
 5761TIP3   OH217246   5.990   5.388   0.540  0.1603  0.3720 -0.1019
 5761TIP3    H117247   5.968   5.294   0.537  1.0565  0.1776 -1.7429
 5761TIP3    H217248   5.956   5.417   0.625  0.7797 -1.6605  0.9244
 5762TIP3   OH217249   0.948   0.522   5.035  0.6624  0.3231  0.0684
 5762TIP3    H117250   1.010   0.591   5.009  1.0848  0.2015  0.7325
 5762TIP3    H217251   1.003   0.451   5.067  0.2531 -0.6206 -1.2777
 5763TIP3   OH217252   0.339   1.948   5.471  0.0768 -0.4302 -0.3065
 5763TIP3    H117253   0.350   1.955   5.377 -0.7136  1.1658 -0.3160
 5763TIP3    H217254   0.246   1.967   5.486  1.0078  4.1753  1.1012
 5764TIP3   OH217255   2.134   1.325   5.825  0.0157  0.4600 -0.3920
 5764TIP3    H117256   2.064   1.351   5.885 -0.7703 -1.1224 -0.5979
 5764TIP3    H217257   2.090   1.311   5.741  0.8589  1.0530 -0.9592
 5765TIP3   OH217258   0.746   0.592   4.053  0.0923  0.0061  0.2624
 5765TIP3    H117259   0.669   0.563   4.102 -1.4764 -0.0449 -2.1168
 5765TIP3    H217260   0.716   0.666   4.002  1.7826  0.3084 -0.3542
 5766TIP3   OH217261   2.835   1.789   2.722  0.0649 -0.6241  0.5250
 5766TIP3    H117262   2.781   1.854   2.767  0.9989 -0.0495  0.8276
 5766TIP3    H217263   2.791   1.777   2.637  2.0459  3.6258 -1.4229
 5767TIP3   OH217264   5.751   0.039   4.716 -0.0153 -0.0620  0.3023
 5767TIP3    H117265   5.731   0.099   4.644 -0.4237  0.6011  0.9556
 5767TIP3    H217266   5.716  -0.045   4.688 -0.3797  0.2464 -0.1723
 5768TIP3   OH217267   7.018   5.566   0.720  0.0656  0.0310  0.1716
 5768TIP3    H117268   7.090   5.610   0.765  0.8477  0.7979 -1.7437
 5768TIP3    H217269   7.001   5.488   0.774  0.8647  0.9351  1.8205
 5769TIP3   OH217270   5.256   2.942   1.789 -0.4280  0.2211 -0.0569
 5769TIP3    H117271   5.264   2.983   1.875  2.6919  0.3546 -0.2980
 5769TIP3    H217272   5.211   3.007   1.735  0.1138  1.3194  0.7802
 5770TIP3   OH217273   4.477   0.249   5.521 -0.4926  0.1831  0.1550
 5770TIP3    H117274   4.495   0.302   5.599 -1.6157  0.6105  0.1388
 5770TIP3    H217275   4.563   0.215   5.495 -0.0386  0.3716  1.3271
 5771TIP3   OH217276   0.346   6.420   4.476 -0.0978  0.0792 -0.1501
 5771TIP3    H117277   0.347   6.472   4.556  0.0765  0.8834 -0.6722
 5771TIP3    H217278   0.409   6.350   4.493 -1.8916 -1.2978  1.4024
 5772TIP3   OH217279   5.590   6.375   2.298 -0.0773 -0.6951  0.3327
 5772TIP3    H117280   5.535   6.402   2.224 -1.9108 -4.8533 -0.0834
 5772TIP3    H217281   5.549   6.414   2.374  1.1410  2.6603 -0.5257
 5773TIP3   OH217282   4.896   3.940   2.353 -0.2827 -0.5773  0.4992
 5773TIP3    H117283   4.947   3.963   2.431 -1.4714  0.1202  1.1048
 5773TIP3    H217284   4.805   3.946   2.382 -0.7645  0.2903 -1.0884
 5774TIP3   OH217285   0.738   5.331   3.217 -0.0280  0.3472 -0.1905
 5774TIP3    H117286   0.720   5.389   3.291 -0.2202  1.5511 -1.1561
 5774TIP3    H217287   0.698   5.374   3.142 -1.5017 -1.7943 -0.7073
 5775TIP3   OH217288   6.568   2.308   1.689  0.7857  0.4034 -0.0466
 5775TIP3    H117289   6.559   2.402   1.675  1.9477  0.4542 -0.6793
 5775TIP3    H217290   6.590   2.299   1.782 -1.2436  0.5723  0.4879
 5776TIP3   OH217291   1.921   3.794   3.006  0.2435 -0.2896 -0.5887
 5776TIP3    H117292   1.947   3.877   3.045 -1.0088 -0.5180  0.8236
 5776TIP3    H217293   1.898   3.816   2.916  0.7574  0.7215 -0.4902
 5777TIP3   OH217294   2.559   1.128   0.250  0.4061 -0.1250  0.8750
 5777TIP3    H117295   2.581   1.078   0.171 -0.7376 -1.4545  1.3573
 5777TIP3    H217296   2.641   1.170   0.276  0.8725  0.0753 -0.8313
 5778TIP3   OH217297   6.037   1.216   1.195 -0.2016 -0.0383  0.7362
 5778TIP3    H117298   5.949   1.252   1.181 -0.3111 -0.4519  0.3574
 5778TIP3    H217299   6.091   1.259   1.128 -0.1318  0.1570  0.9182
 5779TIP3   OH217300   0.482   1.025   2.857 -0.2827 -0.2897  0.3187
 5779TIP3    H117301   0.531   0.948   2.884  2.1214  0.5213 -1.3964
 5779TIP3    H217302   0.518   1.048   2.771 -1.6106  2.1529  0.3109
 5780TIP3   OH217303   0.941   2.004   2.030 -0.3418 -0.0407 -0.2268
 5780TIP3    H117304   0.872   1.984   2.092  0.9742  0.8879  1.6244
 5780TIP3    H217305   1.013   1.946   2.055 -0.5979 -1.5418 -2.5880
 5781TIP3   OH217306   6.305   6.687   5.335 -0.1965  0.2647 -0.1627
 5781TIP3    H117307   6.344   6.765   5.297 -0.8832  0.3676 -0.6908
 5781TIP3    H217308   6.238   6.719   5.394 -2.0633  0.1186 -2.0764
 5782TIP3   OH217309   3.464   4.826   1.816  0.0299 -0.1136  0.3012
 5782TIP3    H117310   3.410   4.752   1.787  0.3652 -0.2531  0.0196
 5782TIP3    H217311   3.401   4.894   1.841 -0.3908  1.4330 -4.0960
 5783TIP3   OH217312   3.885   2.962   1.776 -0.0679  0.2123  0.5412
 5783TIP3    H117313   3.971   2.928   1.801  0.6625  1.9140  0.4722
 5783TIP3    H217314   3.883   3.051   1.812 -1.4431  0.5144 -0.2227
 5784TIP3   OH217315   0.243   4.733   2.951  0.2250  0.0550 -0.9614
 5784TIP3    H117316   0.195   4.814   2.931  0.3448  0.4706  0.3127
 5784TIP3    H217317   0.334   4.761   2.956  0.1575  0.0759  0.5267
 5785TIP3   OH217318   2.750   4.012   3.704 -0.0270 -0.6991  0.5943
 5785TIP3    H117319   2.709   4.083   3.655  1.4923 -1.8077 -2.5494
 5785TIP3    H217320   2.837   4.045   3.726 -0.8530 -0.0156  3.2574
 5786TIP3   OH217321   1.092   6.192   2.412 -0.3929 -0.7693 -0.4280
 5786TIP3    H117322   1.033   6.262   2.441 -0.8972 -1.5950  0.6038
 5786TIP3    H217323   1.101   6.206   2.318 -0.6505  0.5539 -0.2767
 5787TIP3   OH217324   6.375   5.274   2.394  0.0759 -0.2664  0.2613
 5787TIP3    H117325   6.407   5.185   2.377 -1.0062 -0.8029  0.9544
 5787TIP3    H217326   6.347   5.272   2.486 -0.1683  0.7292  0.2132
 5788TIP3   OH217327   3.254   1.289   3.042 -0.0288  0.0051 -0.4922
 5788TIP3    H117328   3.287   1.203   3.064  0.9442  0.6221  0.5526
 5788TIP3    H217329   3.295   1.310   2.958  0.8170 -0.0065 -0.0931
 5789TIP3   OH217330   2.694   1.810   4.226 -0.9275  0.1464  0.4049
 5789TIP3    H117331   2.784   1.790   4.199 -0.7392  1.2093  0.1697
 5789TIP3    H217332   2.655   1.725   4.246 -0.1717 -0.4151 -0.4348
 5790TIP3   OH217333   0.037   2.525   4.313  0.6435  0.6959  0.5736
 5790TIP3    H117334   0.067   2.434   4.304  0.3679  0.5026  1.4783
 5790TIP3    H217335  -0.034   2.533   4.249  3.2730  1.5248 -2.4924
 5791TIP3   OH217336   6.396   5.840   3.205  0.1556 -0.3324 -0.2825
 5791TIP3    H117337   6.435   5.891   3.134  1.1393  0.5078  0.8139
 5791TIP3    H217338   6.309   5.878   3.216  0.2561 -0.0071 -0.5797
 5792TIP3   OH217339   4.218   1.022   1.229  0.0176  0.1856  0.1746
 5792TIP3    H117340   4.166   1.042   1.152 -0.0989  0.2910  0.2812
 5792TIP3    H217341   4.155   0.986   1.292  0.1984 -0.3957  0.0321
 5793TIP3   OH217342   2.351   6.557   5.528  0.2096 -0.6435  0.0090
 5793TIP3    H117343   2.318   6.469   5.514  0.1899 -0.3979 -1.7121
 5793TIP3    H217344   2.293   6.613   5.477  0.3849  0.3420  0.8600
 5794TIP3   OH217345   3.602   1.121   3.044 -0.8833 -0.1020  0.3121
 5794TIP3    H117346   3.567   1.206   3.072 -1.3347 -0.2032  0.0693
 5794TIP3    H217347   3.638   1.137   2.957  0.0200  0.0862  0.7143
 5795TIP3   OH217348   2.551   2.626   3.994  0.0489 -0.0234  0.4402
 5795TIP3    H117349   2.637   2.586   3.976  0.1753 -0.5063  1.9753
 5795TIP3    H217350   2.540   2.691   3.925  0.6556 -1.4696 -1.0875
 5796TIP3   OH217351   5.198   2.564   2.838  0.6094 -0.3971 -0.0409
 5796TIP3    H117352   5.248   2.482   2.849  0.8575 -0.4927 -1.6590
 5796TIP3    H217353   5.256   2.632   2.872  1.1285 -0.7021 -0.3075
 5797TIP3   OH217354   5.360   2.847   2.382  0.1338 -0.2124  0.1445
 5797TIP3    H117355   5.433   2.820   2.437 -0.6394 -0.6841  0.9521
 5797TIP3    H217356   5.296   2.883   2.443 -0.4052 -0.0097 -0.5329
 5798TIP3   OH217357   5.438   0.414   5.194  0.2806  0.4712  0.4889
 5798TIP3    H117358   5.499   0.428   5.121  0.2211 -0.3685  0.2707
 5798TIP3    H217359   5.484   0.353   5.252  0.5413  1.5216  1.4271
 5799TIP3   OH217360   3.830   5.888   2.006  0.7379 -0.1234  0.0988
 5799TIP3    H117361   3.807   5.957   1.944  0.5154 -0.1162  0.1852
 5799TIP3    H217362   3.831   5.932   2.092  0.2569 -0.2949  0.1961
 5800TIP3   OH217363   5.580   1.604   2.443 -0.0512  0.0473 -0.5587
 5800TIP3    H117364   5.585   1.514   2.412  0.8750 -0.2000  0.2361
 5800TIP3    H217365   5.490   1.631   2.427 -0.8668 -1.6408  0.8419
 5801TIP3   OH217366   0.185   0.562   3.282  0.1323  0.2862  0.0846
 5801TIP3    H117367   0.220   0.649   3.263  0.5861  0.1899  0.4385
 5801TIP3    H217368   0.190   0.555   3.378 -0.2521  0.0170  0.0847
 5802TIP3   OH217369   5.928   3.896   1.853  0.2552  0.4058 -0.1921
 5802TIP3    H117370   5.848   3.907   1.802  0.4989 -1.0925 -0.9721
 5802TIP3    H217371   5.960   3.985   1.867 -0.4744  0.9351 -1.6308
 5803TIP3   OH217372   6.783   6.548   0.946 -0.3747 -0.1551  0.4475
 5803TIP3    H117373   6.796   6.506   1.031 -1.8544 -1.9053 -0.1315
 5803TIP3    H217374   6.817   6.484   0.882 -1.3566  0.1176 -0.3807
 5804TIP3   OH217375   2.924   2.144   2.144  0.0454  0.1018 -0.2652
 5804TIP3    H117376   2.854   2.124   2.083  1.0001 -0.3821 -1.2387
 5804TIP3    H217377   2.975   2.063   2.151 -1.0992 -0.5164  2.7044
 5805TIP3   OH217378   6.154   1.237   2.977 -0.1129  1.1128 -0.2945
 5805TIP3    H117379   6.095   1.222   2.904 -2.7995 -1.1837  2.1011
 5805TIP3    H217380   6.152   1.331   2.991 -2.3577  1.2252 -1.0302
 5806TIP3   OH217381   0.939   1.835   0.302  0.3657  0.4469 -0.0601
 5806TIP3    H117382   0.999   1.816   0.375 -0.4375 -3.3147 -0.1565
 5806TIP3    H217383   0.944   1.757   0.246 -2.7508  1.0235 -1.3723
 5807TIP3   OH217384   4.925   6.609   2.050  0.1263 -0.4780  0.2066
 5807TIP3    H117385   4.844   6.613   2.101 -0.1222 -0.9563 -0.1380
 5807TIP3    H217386   4.938   6.699   2.019 -0.9038 -0.6032 -0.6741
 5808TIP3   OH217387   2.734   2.587   2.998 -0.2205 -0.4750  0.1639
 5808TIP3    H117388   2.826   2.595   3.023 -0.8979 -0.7721  3.1671
 5808TIP3    H217389   2.698   2.523   3.059 -2.3562 -0.6138 -1.1513
 5809TIP3   OH217390   2.225   0.679   2.270  0.2638 -0.2297  0.3546
 5809TIP3    H117391   2.308   0.643   2.302  1.0085  0.4451 -0.7660
 5809TIP3    H217392   2.158   0.625   2.312  1.2961 -1.8910 -0.0375
 5810TIP3   OH217393   0.610   4.229   1.429  0.1521 -0.2091 -1.1899
 5810TIP3    H117394   0.529   4.276   1.410  0.1922 -0.0908 -1.0744
 5810TIP3    H217395   0.665   4.244   1.353 -0.4239 -1.3944 -1.8705
 5811TIP3   OH217396   2.668   6.499   2.759 -0.0293  0.3035 -0.1786
 5811TIP3    H117397   2.722   6.526   2.833  0.4116  1.6674 -0.9535
 5811TIP3    H217398   2.583   6.478   2.797  0.3704  0.3926  0.7791
 5812TIP3   OH217399   4.662   3.363   4.735 -0.9217 -0.1094  0.1885
 5812TIP3    H117400   4.699   3.365   4.647 -0.9934 -2.4529  0.0451
 5812TIP3    H217401   4.609   3.443   4.740 -2.1374 -0.6237 -2.4504
 5813TIP3   OH217402   0.123   5.345   1.774  0.3955 -0.3810 -0.1217
 5813TIP3    H117403   0.033   5.315   1.771  0.6042 -1.2186  1.0838
 5813TIP3    H217404   0.141   5.377   1.686 -0.5609 -1.7252 -0.8401
 5814TIP3   OH217405   5.192   6.383   3.579 -0.1234 -0.0222  0.6780
 5814TIP3    H117406   5.287   6.383   3.572 -0.1807 -0.8958 -0.2199
 5814TIP3    H217407   5.175   6.396   3.673  0.8640  0.5341  0.7866
 5815TIP3   OH217408   0.838   0.796   3.823 -0.1144 -0.0142  0.3036
 5815TIP3    H117409   0.833   0.861   3.893 -0.3167 -0.1628  0.4285
 5815TIP3    H217410   0.931   0.787   3.804  0.1684 -1.8416  2.2858
 5816TIP3   OH217411   3.640   6.129   4.664  0.0370 -0.1134  0.4305
 5816TIP3    H117412   3.654   6.200   4.727 -0.4398  2.0534 -1.7646
 5816TIP3    H217413   3.702   6.147   4.593 -0.2418 -1.8060 -0.2890
 5817TIP3   OH217414   0.146   0.163   1.103 -0.2801  0.6199 -0.0105
 5817TIP3    H117415   0.084   0.157   1.175 -1.6183  1.7508 -1.0185
 5817TIP3    H217416   0.175   0.072   1.090 -3.0067 -0.2916 -0.5505
 5818TIP3   OH217417   5.139   5.113   0.117  0.1868 -0.2367  0.0071
 5818TIP3    H117418   5.086   5.040   0.086 -0.0936 -0.3903  0.8328
 5818TIP3    H217419   5.226   5.076   0.130  0.2254 -0.2473 -0.2828
 5819TIP3   OH217420   6.115   0.867   1.566  0.5984  0.7774  0.1385
 5819TIP3    H117421   6.134   0.957   1.538  2.5255  0.2770 -0.3379
 5819TIP3    H217422   6.188   0.815   1.531 -0.1826 -0.8907  0.8664
 5820TIP3   OH217423   5.752   3.528   4.659 -0.2332  0.1661 -0.1709
 5820TIP3    H117424   5.712   3.448   4.625  0.7315  0.7065 -2.7926
 5820TIP3    H217425   5.820   3.496   4.719  0.6759 -1.0676 -1.7767
 5821TIP3   OH217426   1.895   4.380   5.878 -0.4106  0.6991  0.6776
 5821TIP3    H117427   1.898   4.285   5.894 -0.9440  0.6438  0.4761
 5821TIP3    H217428   1.980   4.401   5.841 -0.4121  0.2348  0.4025
 5822TIP3   OH217429   1.778   5.310   0.971 -0.2750 -0.5404 -0.3149
 5822TIP3    H117430   1.732   5.227   0.960 -1.7953  0.3822 -1.2073
 5822TIP3    H217431   1.868   5.291   0.947 -0.3776 -2.1412  0.4139
 5823TIP3   OH217432   1.747   3.985   2.623  0.4843  0.6358 -0.3350
 5823TIP3    H117433   1.816   4.038   2.584  1.9982 -0.6171  0.5478
 5823TIP3    H217434   1.677   4.048   2.643  2.5270  2.4807  1.4492
 5824TIP3   OH217435   4.292   1.983   4.181  0.4472 -0.6191  0.0760
 5824TIP3    H117436   4.275   1.889   4.176  1.2131 -0.7525 -0.2312
 5824TIP3    H217437   4.258   2.009   4.266  0.6828 -1.2798  0.3828
 5825TIP3   OH217438   6.111   2.508   0.552  0.2633  0.0270 -0.0699
 5825TIP3    H117439   6.113   2.602   0.569  2.7513 -0.1584  0.9909
 5825TIP3    H217440   6.054   2.499   0.475 -0.5629  2.2987  0.2085
 5826TIP3   OH217441   1.453   0.288   3.510  0.3746 -0.2822  0.6775
 5826TIP3    H117442   1.441   0.288   3.605  0.5279  0.9743  0.7182
 5826TIP3    H217443   1.521   0.354   3.495 -0.5785  0.4969 -0.3952
 5827TIP3   OH217444   2.120   5.317   1.013  0.2357  0.0945 -0.0349
 5827TIP3    H117445   2.063   5.258   0.964 -1.4786 -1.2036  3.2092
 5827TIP3    H217446   2.099   5.404   0.979 -4.9086 -0.1189  1.7796
 5828TIP3   OH217447   3.189   1.130   3.686 -0.1697  0.0632 -0.4952
 5828TIP3    H117448   3.147   1.135   3.600 -0.5954  0.5380 -0.2688
 5828TIP3    H217449   3.218   1.220   3.704 -1.7115  0.3837  0.6439
 5829TIP3   OH217450   1.297   5.813   0.596  0.2989  0.1598  0.0593
 5829TIP3    H117451   1.362   5.864   0.548  1.1849 -1.2258 -0.2691
 5829TIP3    H217452   1.321   5.824   0.688 -0.0776  1.0490  0.0633
 5830TIP3   OH217453   2.515   2.828   4.388 -0.0135 -0.3792  0.2084
 5830TIP3    H117454   2.584   2.763   4.400 -0.4871 -0.5440  2.4366
 5830TIP3    H217455   2.554   2.893   4.329  3.0211  0.7574  3.1482
 5831TIP3   OH217456   2.447   6.642   3.666 -0.1112 -0.3433  0.0850
 5831TIP3    H117457   2.477   6.602   3.584 -2.4118 -3.5108  0.5698
 5831TIP3    H217458   2.385   6.709   3.639 -0.3956 -0.9504 -0.8314
 5832TIP3   OH217459   2.402   5.541   0.822 -0.2649  0.3485 -0.0574
 5832TIP3    H117460   2.409   5.541   0.917  1.2959 -1.1997 -0.1381
 5832TIP3    H217461   2.333   5.605   0.804 -0.4316  0.8563  2.0802
 5833TIP3   OH217462   2.198   2.917   1.576 -0.7411 -0.1768 -0.0571
 5833TIP3    H117463   2.224   3.001   1.613 -0.9665 -0.4778  0.8020
 5833TIP3    H217464   2.106   2.907   1.600 -1.2328  0.1361 -1.6924
 5834TIP3   OH217465   5.882   1.373   3.579  0.3595  0.0194 -0.0550
 5834TIP3    H117466   5.952   1.370   3.645 -0.5531 -1.1721  0.9141
 5834TIP3    H217467   5.899   1.296   3.524 -0.7054 -0.8580  0.7902
 5835TIP3   OH217468   4.420   4.362   1.129  0.1606 -0.0960  0.0695
 5835TIP3    H117469   4.444   4.452   1.150 -0.2116 -0.2400  1.2135
 5835TIP3    H217470   4.403   4.321   1.215 -1.2872 -0.7825 -0.5098
 5836TIP3   OH217471   0.950   0.478   1.701 -0.5571  0.4043 -0.1742
 5836TIP3    H117472   0.942   0.523   1.617 -1.8579  0.5521  0.0026
 5836TIP3    H217473   0.916   0.390   1.684  0.1651  0.0935 -0.0480
 5837TIP3   OH217474   3.959   2.706   5.837 -0.0454  0.8756 -0.2726
 5837TIP3    H117475   4.037   2.662   5.804  0.5753  1.1501  0.7744
 5837TIP3    H217476   3.932   2.765   5.766  0.9928  1.1454 -0.4572
 5838TIP3   OH217477   3.571   6.571   3.608 -0.3820 -0.3628 -0.0103
 5838TIP3    H117478   3.498   6.632   3.613 -1.4083 -1.5634  0.0750
 5838TIP3    H217479   3.531   6.487   3.587  1.0928 -0.8138 -1.2292
 5839TIP3   OH217480   4.899   6.310   2.038 -0.2060 -0.2336 -0.2126
 5839TIP3    H117481   4.892   6.283   2.130 -0.9307 -0.7702 -0.4125
 5839TIP3    H217482   4.920   6.403   2.042  1.0063 -0.5164  0.4968
 5840TIP3   OH217483   1.575   0.625   3.123 -0.5462 -0.2867 -0.4814
 5840TIP3    H117484   1.574   0.603   3.030  0.9187  1.9352 -1.1180
 5840TIP3    H217485   1.660   0.594   3.154 -0.7848 -0.4949 -0.0335
 5841TIP3   OH217486   6.105   0.588   4.217  0.4392  0.1852 -0.5083
 5841TIP3    H117487   6.099   0.683   4.234 -0.2501  0.1626 -0.5978
 5841TIP3    H217488   6.057   0.548   4.290  4.0644 -0.3415  1.8318
 5842TIP3   OH217489   5.403   2.856   5.780 -0.3091 -0.0771 -0.0161
 5842TIP3    H117490   5.394   2.780   5.837 -0.6063 -0.1356 -0.1374
 5842TIP3    H217491   5.414   2.819   5.693 -1.0786  0.0158 -0.1651
 5843TIP3   OH217492   6.592   1.145   4.942  0.1819  0.0852 -0.4835
 5843TIP3    H117493   6.585   1.240   4.934 -1.7842 -0.1746 -2.7952
 5843TIP3    H217494   6.646   1.119   4.867  0.5371 -0.6632  0.0260
 5844TIP3   OH217495   3.554   1.133   5.063  0.0121 -0.0444  0.1828
 5844TIP3    H117496   3.579   1.068   4.997 -0.4841  1.2591 -1.3780
 5844TIP3    H217497   3.617   1.122   5.133  3.1496  1.0463 -2.2230
 5845TIP3   OH217498   2.599   4.153   1.258 -0.3595 -0.5228 -0.6919
 5845TIP3    H117499   2.602   4.130   1.350 -0.6779 -1.0402 -0.8069
 5845TIP3    H217500   2.670   4.217   1.247 -1.5759  1.0899  0.3129
 5846TIP3   OH217501   3.564   5.774   3.191 -0.1620 -0.2626 -0.2091
 5846TIP3    H117502   3.523   5.699   3.234  0.5393 -1.0223 -0.8231
 5846TIP3    H217503   3.555   5.846   3.253  2.2046 -1.6688  1.9246
 5847TIP3   OH217504   4.711   5.935   2.543 -0.1270  0.4110 -0.0457
 5847TIP3    H117505   4.797   5.972   2.562  0.2682 -1.1626  1.4683
 5847TIP3    H217506   4.681   5.982   2.465  1.6540  1.6881 -0.0095
 5848TIP3   OH217507   3.471   0.444   1.364  0.3499  0.1023  0.6439
 5848TIP3    H117508   3.395   0.408   1.319  0.9203 -0.1218 -0.1630
 5848TIP3    H217509   3.466   0.408   1.453  0.5723 -1.4761  0.0387
 5849TIP3   OH217510   6.333   1.849   1.592  0.3524  0.2434  0.4217
 5849TIP3    H117511   6.427   1.830   1.603  0.0657 -0.5872  1.5918
 5849TIP3    H217512   6.289   1.775   1.634 -0.8689 -0.4197 -1.8880
 5850TIP3   OH217513   1.066   6.001   0.714  0.3042  0.7856  0.5003
 5850TIP3    H117514   1.128   5.936   0.747 -0.9949 -0.6885  0.1536
 5850TIP3    H217515   1.061   6.066   0.783  1.7319  0.6160  0.8080
 5851TIP3   OH217516   3.637   2.208   4.261 -0.2996  0.0488  0.1860
 5851TIP3    H117517   3.585   2.184   4.184 -2.2469  0.1199  1.4284
 5851TIP3    H217518   3.699   2.273   4.228 -0.2733 -0.7720 -1.5471
 5852TIP3   OH217519   3.835   6.540   4.184 -0.5405  0.4920 -0.0211
 5852TIP3    H117520   3.793   6.526   4.269 -0.6983  0.2951 -0.1302
 5852TIP3    H217521   3.773   6.596   4.137 -0.8830 -0.1503 -0.3384
 5853TIP3   OH217522   2.009   2.440   3.086 -0.0277  0.2464 -0.1875
 5853TIP3    H117523   2.081   2.387   3.119  0.0470 -0.8502 -1.9678
 5853TIP3    H217524   1.964   2.471   3.164  0.3590 -1.8518  0.9395
 5854TIP3   OH217525   5.676   0.112   0.178 -0.3818 -0.2215 -0.5352
 5854TIP3    H117526   5.609   0.048   0.153 -1.0618  0.3780 -0.2879
 5854TIP3    H217527   5.726   0.068   0.246  0.2087 -1.1085 -1.5116
 5855TIP3   OH217528   3.912   1.546   1.289 -0.0401 -0.2276  0.1409
 5855TIP3    H117529   4.005   1.567   1.284 -0.5861  2.2944 -1.7969
 5855TIP3    H217530   3.901   1.469   1.234  0.8923 -0.6220  0.4864
 5856TIP3   OH217531   0.844   5.582   0.225  0.0965  0.0449  0.0515
 5856TIP3    H117532   0.886   5.651   0.174  0.3229  0.5865  0.9431
 5856TIP3    H217533   0.783   5.629   0.282 -0.4926 -0.5887 -0.0584
 5857TIP3   OH217534   3.544   1.117   5.688 -0.1736 -0.1644  0.3298
 5857TIP3    H117535   3.539   1.043   5.749  0.5017 -0.3687  0.1483
 5857TIP3    H217536   3.470   1.104   5.629  0.2185 -0.9812 -0.0046
 5858TIP3   OH217537   5.023   6.490   1.714 -0.0337  0.0130 -0.1178
 5858TIP3    H117538   5.084   6.418   1.728  0.3453  0.1780 -0.8917
 5858TIP3    H217539   4.938   6.448   1.703  0.3794 -0.4409 -1.9356
 5859TIP3   OH217540   1.156   4.443   2.041  0.0482  0.1005  0.3932
 5859TIP3    H117541   1.084   4.477   1.987 -0.0448  0.3082  0.6422
 5859TIP3    H217542   1.112   4.410   2.120  0.1889 -0.1308  0.3726
 5860TIP3   OH217543   6.715   4.243   5.013 -0.3026 -0.1190 -0.3794
 5860TIP3    H117544   6.793   4.235   5.067 -0.4854  0.5410 -0.0085
 5860TIP3    H217545   6.669   4.160   5.024  0.6948 -0.8104 -1.1719
 5861TIP3   OH217546   6.541   1.961   5.303  0.0971 -0.3017  0.1813
 5861TIP3    H117547   6.602   2.034   5.295  1.8463 -1.9079 -2.8619
 5861TIP3    H217548   6.456   1.999   5.282  0.7885  1.0940 -0.2261
 5862TIP3   OH217549   6.221   5.736   1.230 -0.4425  0.1857 -0.6536
 5862TIP3    H117550   6.251   5.712   1.143 -0.3892  2.8248 -1.4406
 5862TIP3    H217551   6.142   5.787   1.216  0.4354  2.0514  0.6568
 5863TIP3   OH217552   2.513   6.267   4.397 -0.2514  0.0605 -0.2931
 5863TIP3    H117553   2.587   6.238   4.450 -0.7228 -0.3573  0.1556
 5863TIP3    H217554   2.536   6.241   4.308  0.4240  0.5128 -0.2545
 5864TIP3   OH217555   2.172   2.968   2.125  0.2986  0.4828  0.3316
 5864TIP3    H117556   2.096   2.918   2.096 -0.3475  1.7482 -0.2253
 5864TIP3    H217557   2.240   2.902   2.137  0.3987 -0.2901 -3.2482
 5865TIP3   OH217558   5.356   1.610   0.960  0.3806  0.2897 -0.2635
 5865TIP3    H117559   5.293   1.646   1.022 -0.2581 -0.5901 -0.3790
 5865TIP3    H217560   5.387   1.530   1.001  0.9731  0.4056 -0.4791
 5866TIP3   OH217561   3.384   0.499   2.498 -0.0717  0.9855 -0.0730
 5866TIP3    H117562   3.311   0.451   2.539  0.8059  0.4793  0.9593
 5866TIP3    H217563   3.391   0.579   2.549  0.2007  0.9555 -0.0647
 5867TIP3   OH217564   4.061   5.173   1.425  0.1894  0.2160 -0.3183
 5867TIP3    H117565   4.081   5.266   1.409 -0.6211  0.6597  1.0733
 5867TIP3    H217566   4.003   5.174   1.501 -0.7066 -1.3754 -0.9392
 5868TIP3   OH217567   3.626   1.663   2.196 -0.0393  0.3431 -0.3893
 5868TIP3    H117568   3.720   1.671   2.214  0.2953 -0.4420 -1.6808
 5868TIP3    H217569   3.612   1.569   2.186 -0.9792  0.4590 -0.2076
 5869TIP3   OH217570   5.940   1.386   0.528  0.3330 -0.2750  0.1564
 5869TIP3    H117571   5.855   1.344   0.539  0.1647  0.0201 -0.0218
 5869TIP3    H217572   5.926   1.453   0.461  0.8866 -0.7471 -0.4418
 5870TIP3   OH217573   2.288   0.056   4.573  0.5926  0.1414  0.7216
 5870TIP3    H117574   2.209   0.006   4.591  0.2144  0.0825 -0.9247
 5870TIP3    H217575   2.263   0.147   4.588  0.3824  0.0714  0.7970
 5871TIP3   OH217576   2.318   4.006   4.737 -0.4753 -0.3489  0.2425
 5871TIP3    H117577   2.273   3.922   4.735 -1.1680  0.0111 -2.1928
 5871TIP3    H217578   2.257   4.065   4.780 -0.8216 -0.6635  0.1884
 5872TIP3   OH217579   0.048   0.171   0.747  0.2601  0.3140  0.3977
 5872TIP3    H117580   0.041   0.256   0.790  0.9616  0.2192  0.7216
 5872TIP3    H217581  -0.041   0.138   0.743 -0.0818  1.2595 -0.1400
 5873TIP3   OH217582   3.753   6.375   2.235  0.3636  0.4348  0.2947
 5873TIP3    H117583   3.723   6.288   2.261 -0.9256  0.9355  0.5788
 5873TIP3    H217584   3.847   6.366   2.226  0.4098 -0.7000  1.4961
 5874TIP3   OH217585   6.828   3.718   2.357 -0.1113  0.2124 -0.1200
 5874TIP3    H117586   6.760   3.694   2.294 -0.4311 -0.3771  0.4392
 5874TIP3    H217587   6.884   3.779   2.309 -0.1239 -0.5209 -1.0974
 5875TIP3   OH217588   1.350   3.471   4.224  0.9620 -0.2505  0.5643
 5875TIP3    H117589   1.263   3.510   4.216  1.1226  0.0230  0.1172
 5875TIP3    H217590   1.390   3.484   4.138  0.0358 -3.8150 -0.5735
 5876TIP3   OH217591   6.672   2.363   3.521  0.2613 -0.4047 -0.4185
 5876TIP3    H117592   6.660   2.338   3.429 -1.6938  2.6886 -1.1580
 5876TIP3    H217593   6.592   2.334   3.564  0.1608  0.1488 -0.2236
 5877TIP3   OH217594   1.863   0.375   2.650  0.5232  0.1163  0.4060
 5877TIP3    H117595   1.892   0.460   2.685  0.3837  0.3000  0.0736
 5877TIP3    H217596   1.928   0.353   2.583 -0.5077  0.9019 -0.8996
 5878TIP3   OH217597   6.196   6.486   2.213  0.3506  0.1310 -0.8510
 5878TIP3    H117598   6.263   6.456   2.274 -1.0591  0.3738  0.9082
 5878TIP3    H217599   6.115   6.487   2.264 -1.3873 -1.7733 -3.3118
 5879TIP3   OH217600   2.998   2.061   3.029  0.0501  0.6455 -0.5632
 5879TIP3    H117601   2.962   2.148   3.045 -3.2392 -1.0058  2.5432
 5879TIP3    H217602   3.060   2.047   3.101  0.2298  0.2844 -0.7840
 5880TIP3   OH217603   4.987   5.857   3.775 -1.0575  0.1745 -0.4321
 5880TIP3    H117604   5.022   5.772   3.802 -0.8005  0.1535 -0.8213
 5880TIP3    H217605   4.897   5.838   3.747 -1.3641  0.2131  0.4896
 5881TIP3   OH217606   6.891   3.269   4.957  0.1571  0.1519 -0.7352
 5881TIP3    H117607   6.917   3.360   4.971  2.0415 -0.2829 -1.1785
 5881TIP3    H217608   6.971   3.225   4.928 -0.3746 -1.9483  0.7367
 5882TIP3   OH217609   3.978   1.230   4.721 -0.0728 -0.1645  0.1172
 5882TIP3    H117610   3.955   1.226   4.628  1.2064  0.5910 -0.2622
 5882TIP3    H217611   4.072   1.211   4.723 -0.1215 -0.3411  1.2822
 5883TIP3   OH217612   6.821   6.798   4.016  0.2008  0.0669  0.5041
 5883TIP3    H117613   6.817   6.717   4.066 -0.5162 -2.7802 -3.6485
 5883TIP3    H217614   6.904   6.794   3.969  0.2577  1.8974  0.3520
 5884TIP3   OH217615   3.714   3.492   4.120 -0.2274 -0.4411  0.5318
 5884TIP3    H117616   3.800   3.450   4.115  0.7040  1.3880  0.2926
 5884TIP3    H217617   3.695   3.519   4.031 -0.2500  0.6497  0.8505
 5885TIP3   OH217618   1.168   4.188   3.712 -0.3574  0.2204  0.2134
 5885TIP3    H117619   1.093   4.201   3.655 -0.2037  2.1757  0.3911
 5885TIP3    H217620   1.244   4.192   3.654 -0.2686  0.9539  0.3680
 5886TIP3   OH217621   2.465   0.372   1.065  0.2810  0.4469 -0.1006
 5886TIP3    H117622   2.469   0.286   1.024 -2.1737 -0.3192  1.0637
 5886TIP3    H217623   2.449   0.354   1.158 -1.6694  2.1180 -0.0403
 5887TIP3   OH217624   4.681   3.802   2.711  0.0250 -1.1242 -0.3822
 5887TIP3    H117625   4.598   3.829   2.750  0.1327 -1.5696  0.1654
 5887TIP3    H217626   4.747   3.852   2.758  0.0310 -0.2163 -1.3156
 5888TIP3   OH217627   2.754   2.658   3.781 -0.0788  0.2024  0.0299
 5888TIP3    H117628   2.694   2.733   3.771 -0.2920 -0.1658 -2.0169
 5888TIP3    H217629   2.833   2.695   3.820 -0.4173  1.3884 -0.3549
 5889TIP3   OH217630   6.945   5.687   1.316  0.1856  0.5265 -0.1042
 5889TIP3    H117631   6.870   5.746   1.322 -0.6623 -0.5852  0.3842
 5889TIP3    H217632   6.912   5.602   1.346  1.7737  0.1495  0.7012
 5890TIP3   OH217633   2.081   6.558   3.788 -0.0018  0.4035 -0.3016
 5890TIP3    H117634   2.014   6.494   3.812  1.6057 -0.0775  3.7934
 5890TIP3    H217635   2.154   6.505   3.755  0.3145  0.3293  0.4823
 5891TIP3   OH217636   5.915   4.354   0.260 -0.1907  0.2158  0.0322
 5891TIP3    H117637   5.900   4.309   0.343 -0.1496  1.3890  0.6977
 5891TIP3    H217638   6.005   4.331   0.236  0.4628  1.3540  1.2885
 5892TIP3   OH217639   3.585   1.411   5.121  0.4826 -0.0476  0.1590
 5892TIP3    H117640   3.508   1.425   5.177  0.4778  0.8779 -0.0669
 5892TIP3    H217641   3.606   1.319   5.133  0.0200 -0.0480  1.1066
 5893TIP3   OH217642   2.028   3.696   5.450 -0.2678  0.6263  0.0799
 5893TIP3    H117643   1.997   3.724   5.364 -2.7482 -1.0441  0.3225
 5893TIP3    H217644   1.972   3.743   5.512  1.0322  1.2819  0.8131
 5894TIP3   OH217645   1.212   4.868   0.412 -0.2095  0.5668  0.4432
 5894TIP3    H117646   1.276   4.848   0.480 -2.2622 -0.4807  2.1937
 5894TIP3    H217647   1.174   4.952   0.438  0.7421  1.4295 -0.8526
 5895TIP3   OH217648   2.753   6.424   5.572 -0.4289  0.3463  0.1784
 5895TIP3    H117649   2.685   6.367   5.534 -0.3161  0.6359 -0.4698
 5895TIP3    H217650   2.761   6.394   5.663 -0.9212 -0.1596  0.0633
 5896TIP3   OH217651   0.721   3.069   2.647 -0.1385 -0.5553 -0.0025
 5896TIP3    H117652   0.630   3.069   2.618 -0.9853  0.5402  2.3885
 5896TIP3    H217653   0.716   3.083   2.741  2.5048 -1.1679  0.3041
 5897TIP3   OH217654   4.391   1.483   2.326 -0.1247 -0.3844  0.0394
 5897TIP3    H117655   4.377   1.456   2.416 -1.4553 -0.3774 -0.1398
 5897TIP3    H217656   4.345   1.417   2.274 -1.1792  0.7607 -0.5254
 5898TIP3   OH217657   6.898   5.709   4.324 -0.1230  0.2655  0.1005
 5898TIP3    H117658   6.961   5.638   4.341 -1.4528 -0.4080  2.8995
 5898TIP3    H217659   6.901   5.762   4.404 -2.8332  0.4045  0.1882
 5899TIP3   OH217660   3.436   1.514   2.846 -0.1666  0.1359 -0.3292
 5899TIP3    H117661   3.489   1.435   2.855 -0.6224 -0.1200  0.1562
 5899TIP3    H217662   3.378   1.495   2.771  1.8141  1.2319 -2.2602
 5900TIP3   OH217663   6.057   2.565   2.471  0.1008 -0.0220  0.0590
 5900TIP3    H117664   6.027   2.587   2.559  1.1081  0.8685  0.1940
 5900TIP3    H217665   6.055   2.469   2.468 -2.4599 -0.0363  0.1381
 5901TIP3   OH217666   5.413   2.587   4.553  0.7666  0.3095 -0.1243
 5901TIP3    H117667   5.333   2.565   4.506 -0.0412  0.6217  1.0484
 5901TIP3    H217668   5.388   2.662   4.608  1.9318  0.5576  0.0942
 5902TIP3   OH217669   0.415   4.749   2.642  0.3623  0.2549  0.4237
 5902TIP3    H117670   0.418   4.658   2.614 -2.1323  0.3112 -0.2923
 5902TIP3    H217671   0.453   4.799   2.569  0.0590 -0.0924  0.0261
 5903TIP3   OH217672   6.404   1.831   2.208 -0.1239  0.5255 -0.0394
 5903TIP3    H117673   6.495   1.843   2.180  0.6517 -1.2049  1.5182
 5903TIP3    H217674   6.407   1.841   2.304 -1.1290 -1.6518  0.2857
 5904TIP3   OH217675   5.718   0.687   5.473 -0.3466 -0.2768  0.2795
 5904TIP3    H117676   5.732   0.781   5.458 -1.4010 -0.2525 -0.7203
 5904TIP3    H217677   5.772   0.645   5.406  0.3785 -0.4076  0.9347
 5905TIP3   OH217678   1.124   3.536   5.883 -0.1416  0.0463 -0.3547
 5905TIP3    H117679   1.054   3.582   5.929 -1.2262  0.8794 -2.6542
 5905TIP3    H217680   1.111   3.559   5.791  1.3424 -2.2026 -1.2197
 5906TIP3   OH217681   1.163   3.384   0.209  0.3602  0.5267 -0.1898
 5906TIP3    H117682   1.237   3.430   0.248  0.2068  1.5226 -1.0211
 5906TIP3    H217683   1.152   3.425   0.123 -0.8624  0.0863 -0.2656
 5907TIP3   OH217684   4.648   4.571   0.149  0.2857 -0.0443 -0.3113
 5907TIP3    H117685   4.733   4.612   0.136  0.4223 -0.5168 -0.9465
 5907TIP3    H217686   4.594   4.605   0.078  0.0624 -0.0604 -0.1510
 5908TIP3   OH217687   1.329   3.972   1.815  0.4854 -0.0341  0.0646
 5908TIP3    H117688   1.270   4.046   1.800  0.5221  0.6512  2.7796
 5908TIP3    H217689   1.407   4.011   1.854  0.9662 -1.3901  0.5173
 5909TIP3   OH217690   5.224   6.259   1.722 -1.1591 -0.7397  0.4647
 5909TIP3    H117691   5.197   6.214   1.802 -1.0676 -0.4134  0.6869
 5909TIP3    H217692   5.167   6.224   1.654  0.6084 -3.1010  0.0866
 5910TIP3   OH217693   7.219   3.868   0.613  0.0070  0.1952 -0.7950
 5910TIP3    H117694   7.130   3.889   0.587 -0.0698  1.0285  0.0548
 5910TIP3    H217695   7.246   3.942   0.669  1.3858  0.1881 -1.3946
 5911TIP3   OH217696   5.847   4.078   5.433 -0.2866  0.3403 -0.3470
 5911TIP3    H117697   5.840   4.153   5.492  1.0506 -0.0737  0.3999
 5911TIP3    H217698   5.840   4.002   5.490  1.5012 -0.0705 -0.6122
 5912TIP3   OH217699   3.895   4.545   1.627  0.0610 -0.2460 -0.3394
 5912TIP3    H117700   3.913   4.621   1.682 -0.3663 -1.3530  1.4080
 5912TIP3    H217701   3.947   4.474   1.665 -0.8053 -1.2216 -0.9060
 5913TIP3   OH217702   0.921   2.793   3.742  0.2407  0.0312  0.2950
 5913TIP3    H117703   0.860   2.817   3.811 -0.8894 -0.3307 -0.5486
 5913TIP3    H217704   0.951   2.877   3.706  0.9241  0.2246  1.2571
 5914TIP3   OH217705   4.033   5.634   4.529  0.2859 -0.1604 -0.3093
 5914TIP3    H117706   3.970   5.678   4.587 -0.9738 -1.8798 -0.3010
 5914TIP3    H217707   3.980   5.598   4.458  1.6214  0.5431 -1.7254
 5915TIP3   OH217708   0.123   5.835   4.984 -0.5801 -0.3181  0.5492
 5915TIP3    H117709   0.071   5.891   5.041  0.0360  0.7543  0.0800
 5915TIP3    H217710   0.086   5.847   4.897  1.3201  1.6446 -0.0735
 5916TIP3   OH217711   0.110   3.613   0.699  0.1487 -0.2177 -0.2783
 5916TIP3    H117712   0.082   3.689   0.649 -1.9241 -0.1736  0.8397
 5916TIP3    H217713   0.093   3.538   0.642 -1.5238 -0.1107  0.0238
 5917TIP3   OH217714   6.952   6.747   4.304  0.3302  0.0436  0.4262
 5917TIP3    H117715   6.890   6.718   4.371  1.2242 -1.4181  0.6716
 5917TIP3    H217716   6.947   6.680   4.236  0.2902  0.9036 -0.4432
 5918TIP3   OH217717   0.184   1.008   2.492  0.8102 -0.2002 -0.2250
 5918TIP3    H117718   0.264   1.036   2.448  0.2468  2.9082  0.4326
 5918TIP3    H217719   0.213   0.945   2.558  2.6849  0.4991 -0.3254
 5919TIP3   OH217720   5.764   0.269   4.880 -0.2927  0.0069 -0.2410
 5919TIP3    H117721   5.822   0.195   4.867  0.4410  0.6197 -0.5711
 5919TIP3    H217722   5.747   0.302   4.792 -0.2699  0.4812 -0.0740
 5920TIP3   OH217723   6.931   0.522   5.680  0.3487 -0.0847 -0.2902
 5920TIP3    H117724   6.931   0.576   5.602 -1.7766 -1.5525 -1.4077
 5920TIP3    H217725   6.918   0.433   5.648  0.3849 -0.8638  1.6881
 5921TIP3   OH217726   2.387   5.481   2.847 -0.1199  0.3250 -0.6936
 5921TIP3    H117727   2.396   5.497   2.753 -1.4249  0.2021 -0.8634
 5921TIP3    H217728   2.294   5.497   2.865 -0.0502 -0.3973  0.4306
 5922TIP3   OH217729   0.004   0.714   0.734  0.4766 -0.2518 -0.4247
 5922TIP3    H117730  -0.015   0.663   0.812  2.1021 -1.4300 -0.7289
 5922TIP3    H217731   0.059   0.786   0.765  2.9437 -1.8991 -0.6482
 5923TIP3   OH217732   5.711   1.038   5.547 -0.2360 -0.1800 -0.1117
 5923TIP3    H117733   5.734   0.964   5.603  0.5294  0.3166  0.2488
 5923TIP3    H217734   5.713   1.004   5.458 -1.2235 -0.9230  0.1378
 5924TIP3   OH217735   3.001   4.817   1.715 -0.4121 -0.6525 -0.9475
 5924TIP3    H117736   3.004   4.812   1.619 -0.2981  0.8563 -1.0503
 5924TIP3    H217737   2.912   4.787   1.737 -0.9144  0.2566 -1.6449
 5925TIP3   OH217738   4.661   5.344   3.253 -0.2027  0.4548  0.0258
 5925TIP3    H117739   4.577   5.303   3.235 -1.0485  1.5206  1.3332
 5925TIP3    H217740   4.714   5.326   3.176 -0.0773 -4.0133  0.8624
 5926TIP3   OH217741   6.680   5.574   5.855 -0.2695  0.4132 -0.2063
 5926TIP3    H117742   6.744   5.593   5.923  2.6717 -1.4757 -2.1948
 5926TIP3    H217743   6.658   5.659   5.818  0.5251  1.1770  1.0259
 5927TIP3   OH217744   4.299  -0.012   0.413  0.5550 -0.6731 -0.2841
 5927TIP3    H117745   4.266   0.021   0.330  1.0616  1.4589  0.2917
 5927TIP3    H217746   4.235   0.018   0.478  1.2718 -0.4280  0.3229
 5928TIP3   OH217747   4.573   5.028   2.342 -0.2933  0.9200 -0.7087
 5928TIP3    H117748   4.499   5.046   2.284 -0.8401  1.8290  0.2510
 5928TIP3    H217749   4.610   5.113   2.362  2.8200  0.3711 -3.3844
 5929TIP3   OH217750   6.987   5.063   1.996 -0.1631  0.2922 -0.2657
 5929TIP3    H117751   6.991   5.013   2.078 -1.5403  0.6152  0.0322
 5929TIP3    H217752   7.078   5.081   1.974  0.2449 -0.0467  1.0497
 5930TIP3   OH217753   7.008   4.853   5.208  0.3485  0.1224 -0.1786
 5930TIP3    H117754   7.049   4.922   5.157  0.2625 -0.5858 -1.2478
 5930TIP3    H217755   7.038   4.772   5.167  1.2122 -0.5162  1.6356
 5931TIP3   OH217756   4.126   2.544   3.867  0.2401  0.1927  1.1510
 5931TIP3    H117757   4.148   2.480   3.799 -2.1119 -0.7596  1.2064
 5931TIP3    H217758   4.105   2.623   3.819  0.5562  0.1314  0.9068
 5932TIP3   OH217759   1.276   1.285   0.484 -0.3232 -0.0572 -0.4689
 5932TIP3    H117760   1.245   1.239   0.406 -0.7618  0.0842 -0.3789
 5932TIP3    H217761   1.200   1.289   0.542 -0.5665  1.5866 -0.8393
 5933TIP3   OH217762   6.508   2.491   4.158 -0.1383 -0.0986  0.6070
 5933TIP3    H117763   6.437   2.439   4.122  0.7159 -1.8994  1.3815
 5933TIP3    H217764   6.583   2.471   4.102  0.0813  0.6928  0.6136
 5934TIP3   OH217765   0.431   6.288   4.846  0.0627 -0.3279 -0.0685
 5934TIP3    H117766   0.438   6.202   4.887  1.3104 -0.6551 -0.9049
 5934TIP3    H217767   0.505   6.337   4.881 -1.6470  1.0701  1.8067
 5935TIP3   OH217768   1.120   2.326   5.251  0.0488 -0.0092 -0.3195
 5935TIP3    H117769   1.197   2.342   5.306 -0.3754 -0.2329  0.3570
 5935TIP3    H217770   1.147   2.352   5.163 -0.1276  3.0512  0.4327
 5936TIP3   OH217771   4.590   4.473   0.869 -0.1141  0.3673 -0.5626
 5936TIP3    H117772   4.614   4.545   0.811  1.3033  1.5333  1.3549
 5936TIP3    H217773   4.597   4.509   0.958 -0.1012 -1.9182  0.4544
 5937TIP3   OH217774   5.091   4.567   5.239 -0.4351  0.0573  0.5056
 5937TIP3    H117775   5.059   4.482   5.209  0.0053 -0.1465  0.6072
 5937TIP3    H217776   5.186   4.563   5.224 -0.0884 -0.3340  2.5725
 5938TIP3   OH217777   5.634   2.469   3.945 -0.6901 -0.0239  0.5183
 5938TIP3    H117778   5.580   2.402   3.902 -0.4844 -0.1318  0.4257
 5938TIP3    H217779   5.583   2.549   3.939  0.0619  0.3526 -1.4599
 5939TIP3   OH217780   0.580   4.204   4.831 -0.3971  0.8971 -0.4521
 5939TIP3    H117781   0.594   4.193   4.925  2.0787  1.9610 -0.6159
 5939TIP3    H217782   0.566   4.115   4.798 -0.8884  0.4740  0.8358
 5940TIP3   OH217783   6.716   3.120   1.051 -0.4315 -0.3058 -0.2317
 5940TIP3    H117784   6.778   3.169   1.104 -0.4871  0.4969 -0.8779
 5940TIP3    H217785   6.724   3.158   0.963 -1.6521 -0.3470 -0.3845
 5941TIP3   OH217786   3.955   2.574   3.362 -0.1905  0.8030 -0.1214
 5941TIP3    H117787   3.974   2.608   3.275 -3.3914 -0.0735 -1.2588
 5941TIP3    H217788   3.860   2.565   3.365  0.0220 -2.1113  2.3581
 5942TIP3   OH217789   3.810   2.361   1.624 -0.4029 -0.1735  0.6049
 5942TIP3    H117790   3.798   2.455   1.613  0.4274 -0.0538  0.6811
 5942TIP3    H217791   3.807   2.347   1.719  2.2123  0.1836  0.7970
 5943TIP3   OH217792   6.210   6.596   1.259  0.3315 -0.5723  0.1123
 5943TIP3    H117793   6.301   6.565   1.261  0.0221 -1.5313  0.0053
 5943TIP3    H217794   6.188   6.599   1.166 -0.0773 -1.3702  0.1787
 5944TIP3   OH217795   6.898   3.366   5.728  0.1416 -0.3008 -0.2017
 5944TIP3    H117796   6.855   3.392   5.647  0.3133  0.2490 -0.1209
 5944TIP3    H217797   6.900   3.445   5.781  0.6379 -0.4877  0.0723
 5945TIP3   OH217798   6.777   2.193   2.585 -0.8599 -0.2574 -0.3742
 5945TIP3    H117799   6.741   2.268   2.632 -2.7199 -0.9735 -0.5809
 5945TIP3    H217800   6.867   2.186   2.617 -1.2833  0.8252  1.1575
 5946TIP3   OH217801   1.380   5.569   1.362 -0.1172 -0.5851  0.6229
 5946TIP3    H117802   1.438   5.586   1.287 -1.2941 -0.0485 -0.1941
 5946TIP3    H217803   1.430   5.509   1.418  0.8902 -0.7901 -0.4602
 5947TIP3   OH217804   4.299   0.527   2.580 -0.1506 -0.1754 -0.2487
 5947TIP3    H117805   4.296   0.449   2.525  0.1642  1.8347 -3.4082
 5947TIP3    H217806   4.393   0.544   2.592 -0.1984  0.1825 -0.3559
 5948TIP3   OH217807   6.446   2.414   3.365 -0.3853 -0.0096  0.5117
 5948TIP3    H117808   6.400   2.391   3.284  1.2284 -1.3870 -0.0577
 5948TIP3    H217809   6.464   2.508   3.356  1.4996 -0.4974 -1.6816
 5949TIP3   OH217810   3.953   5.663   3.727  0.4382 -0.2907 -0.0906
 5949TIP3    H117811   3.887   5.694   3.788 -0.4809 -1.3368 -0.5233
 5949TIP3    H217812   3.910   5.593   3.678  1.3451  0.0783 -1.4917
 5950TIP3   OH217813   4.846   4.924   0.218 -0.1172  0.1372  0.6803
 5950TIP3    H117814   4.859   5.012   0.252  3.2659 -0.4288  1.2073
 5950TIP3    H217815   4.908   4.916   0.146 -1.2326 -1.4476 -0.1857
 5951TIP3   OH217816   0.149   3.883   0.371  0.2220 -0.0735  0.4786
 5951TIP3    H117817   0.111   3.869   0.457 -0.0773 -1.2160  0.1795
 5951TIP3    H217818   0.163   3.795   0.336  0.6251  0.3637 -0.5115
 5952TIP3   OH217819   5.751   5.802   4.225  0.5452 -0.0484 -0.3107
 5952TIP3    H117820   5.758   5.729   4.287  0.8742 -1.2246 -1.6806
 5952TIP3    H217821   5.669   5.845   4.249  0.5713 -0.5828  0.8229
 5953TIP3   OH217822   4.945   4.820   2.431  0.3592 -0.1503  0.5613
 5953TIP3    H117823   4.935   4.911   2.402  1.6749 -0.0107  0.4890
 5953TIP3    H217824   5.035   4.815   2.462 -0.2772 -0.9082  2.4520
 5954TIP3   OH217825   1.487   4.234   3.652  0.3480  0.0846  0.2483
 5954TIP3    H117826   1.513   4.274   3.569 -0.7431 -0.9110 -0.6098
 5954TIP3    H217827   1.475   4.308   3.712  1.3300  0.8039 -0.4091
 5955TIP3   OH217828   5.718   5.543   3.572  0.3178 -0.3451 -0.1884
 5955TIP3    H117829   5.759   5.613   3.623  0.5840 -1.5761  1.3817
 5955TIP3    H217830   5.785   5.517   3.509  1.2199 -0.8888  0.9408
 5956TIP3   OH217831   2.530   5.564   2.327  0.6116 -0.3937  0.0057
 5956TIP3    H117832   2.514   5.653   2.294 -1.4768  0.0563  1.9975
 5956TIP3    H217833   2.521   5.508   2.250  1.2443  1.0204 -1.1577
 5957TIP3   OH217834   0.118   4.463   5.030  0.1469 -0.5032 -0.1563
 5957TIP3    H117835   0.159   4.520   4.966 -0.3724  0.7138  0.5615
 5957TIP3    H217836   0.125   4.511   5.113 -2.1387 -0.5064  0.0972
 5958TIP3   OH217837   4.656   5.528   3.691  0.1694 -0.4484  0.7497
 5958TIP3    H117838   4.673   5.459   3.627 -2.7299  0.4098 -1.1712
 5958TIP3    H217839   4.565   5.513   3.719 -0.1749  1.9162  1.0785
 5959TIP3   OH217840   3.978   5.714   2.290 -0.0697 -0.1940  0.3387
 5959TIP3    H117841   3.951   5.762   2.212 -1.5614 -2.9924 -0.9993
 5959TIP3    H217842   4.066   5.682   2.269  0.1522  0.3330  0.4526
 5960TIP3   OH217843   6.669   2.270   1.947  0.5252  0.6294  0.2450
 5960TIP3    H117844   6.758   2.238   1.960  1.4027  2.4632 -0.8213
 5960TIP3    H217845   6.668   2.355   1.990 -0.6523  0.7137  0.0744
 5961TIP3   OH217846   3.591   4.779   3.465 -0.3084  1.2198 -0.1125
 5961TIP3    H117847   3.662   4.842   3.468  0.0728  0.7918 -0.0082
 5961TIP3    H217848   3.512   4.832   3.453  0.1735  1.6080 -1.8599
 5962TIP3   OH217849   3.188   6.509   1.643 -0.8673 -0.7511  0.1672
 5962TIP3    H117850   3.131   6.582   1.670 -0.0932  0.4389 -1.2626
 5962TIP3    H217851   3.276   6.546   1.644 -0.1412 -2.3722  1.6532
 5963TIP3   OH217852   2.653   3.759   3.691 -0.1110  0.2339  0.2334
 5963TIP3    H117853   2.621   3.755   3.601 -0.2441 -0.2891  0.3031
 5963TIP3    H217854   2.715   3.832   3.691  1.3006 -0.9143 -0.7320
 5964TIP3   OH217855   4.953   4.292   5.599 -0.3820  0.8241  0.5524
 5964TIP3    H117856   4.926   4.333   5.681  0.3175  1.1573  0.6197
 5964TIP3    H217857   5.019   4.351   5.563  0.6800 -0.2521  0.6640
 5965TIP3   OH217858   2.894   1.771   5.008 -0.4139 -0.0227 -0.4436
 5965TIP3    H117859   2.945   1.821   5.072 -2.3337 -0.1862  1.3104
 5965TIP3    H217860   2.888   1.683   5.045 -0.7302 -0.4004 -1.3587
 5966TIP3   OH217861   3.710   5.841   1.400  0.1472 -0.0524 -0.1122
 5966TIP3    H117862   3.802   5.835   1.376 -0.1208  1.2188 -1.6483
 5966TIP3    H217863   3.663   5.833   1.317 -1.0622  0.4926  0.4952
 5967TIP3   OH217864   5.998   4.366   2.033  0.0745 -0.3523  0.1782
 5967TIP3    H117865   5.968   4.427   2.101 -1.7593 -1.9102  0.8649
 5967TIP3    H217866   6.093   4.370   2.037  0.0984  3.2208 -0.5524
 5968TIP3   OH217867   6.436   3.282   3.967 -0.1786 -0.1837 -0.1352
 5968TIP3    H117868   6.465   3.269   3.876 -0.7394  0.3540 -0.4022
 5968TIP3    H217869   6.388   3.365   3.965 -0.0241 -0.0668  0.7002
 5969TIP3   OH217870   1.517   3.654   4.845  0.3417 -0.0231  0.1727
 5969TIP3    H117871   1.425   3.629   4.850  0.6916 -1.3254  0.8515
 5969TIP3    H217872   1.543   3.665   4.937  0.4811  1.9301 -0.0727
 5970TIP3   OH217873   7.172   2.569   2.561  0.1378 -0.5660  0.3341
 5970TIP3    H117874   7.147   2.567   2.654 -0.5067 -2.4816  0.1580
 5970TIP3    H217875   7.100   2.614   2.518  0.7049  0.8431  0.8149
 5971TIP3   OH217876   1.711   0.184   5.508  0.2038 -0.0654  0.2982
 5971TIP3    H117877   1.762   0.103   5.506 -0.5703 -0.6258  1.4463
 5971TIP3    H217878   1.638   0.164   5.568  0.1218  1.5513  0.7836
 5972TIP3   OH217879   1.789   4.829   1.073 -0.5156 -0.2939 -0.4888
 5972TIP3    H117880   1.758   4.740   1.090 -0.1337 -0.3516 -0.0568
 5972TIP3    H217881   1.865   4.816   1.016 -0.1446 -0.2887 -0.0080
 5973TIP3   OH217882   3.837   1.094   2.582 -0.4626 -0.4269  0.6326
 5973TIP3    H117883   3.783   1.130   2.653 -0.7085 -0.8672  0.6756
 5973TIP3    H217884   3.809   1.003   2.575 -1.7636  0.0768 -1.2913
 5974TIP3   OH217885   7.181   5.765   2.125  0.0566  0.2941  0.5573
 5974TIP3    H117886   7.108   5.826   2.119 -0.2281  0.1153  1.8494
 5974TIP3    H217887   7.244   5.807   2.183  0.9128  0.3567 -0.3808
 5975TIP3   OH217888   7.079   5.922   5.549 -0.1289 -0.6285  0.4056
 5975TIP3    H117889   7.168   5.912   5.514 -0.4355 -0.9672 -0.2959
 5975TIP3    H217890   7.076   6.012   5.581 -0.0623 -0.0441 -1.1307
 5976TIP3   OH217891   2.133   1.353   2.673 -0.2016  0.0804 -0.3320
 5976TIP3    H117892   2.224   1.325   2.661 -0.3536 -0.4206 -0.3701
 5976TIP3    H217893   2.135   1.448   2.662  0.4126  0.1427  0.2578
 5977TIP3   OH217894   1.156   4.703   3.865  0.2846 -0.0495  0.2098
 5977TIP3    H117895   1.170   4.652   3.785 -1.8435  0.6973 -0.6934
 5977TIP3    H217896   1.075   4.667   3.902 -0.1981  1.3664  0.5796
 5978TIP3   OH217897   5.537   0.937   2.725  0.0811 -0.2293  0.3976
 5978TIP3    H117898   5.564   0.860   2.675  3.3043  0.9173  0.0962
 5978TIP3    H217899   5.449   0.917   2.756 -1.0776 -2.0777 -3.5148
 5979TIP3   OH217900   1.585   2.400   0.668  0.3332 -0.1932  0.5926
 5979TIP3    H117901   1.528   2.369   0.597  0.0448  0.2427  0.6363
 5979TIP3    H217902   1.638   2.323   0.691 -0.9622 -0.9184  1.2735
 5980TIP3   OH217903   6.165   6.500   2.936 -0.5274  0.0266 -0.2868
 5980TIP3    H117904   6.205   6.464   3.015 -1.5554 -0.3883  0.0536
 5980TIP3    H217905   6.099   6.562   2.968  0.3735  1.3394 -0.8534
 5981TIP3   OH217906   1.523   3.257   5.169 -0.5777 -0.0119  0.2415
 5981TIP3    H117907   1.443   3.259   5.222 -1.5061 -0.3188 -1.0808
 5981TIP3    H217908   1.592   3.285   5.228 -1.9362  2.0432  0.9917
 5982TIP3   OH217909   4.055   5.858   3.085  0.1579  0.0591  0.1827
 5982TIP3    H117910   4.105   5.780   3.107  1.8674  0.5571 -1.6053
 5982TIP3    H217911   4.108   5.931   3.119 -0.5036  0.5088  0.2640
 5983TIP3   OH217912   4.238   0.643   4.824 -0.1749 -0.3680  0.4682
 5983TIP3    H117913   4.189   0.571   4.784 -2.1524  0.4478  1.2983
 5983TIP3    H217914   4.265   0.609   4.909  0.7049 -0.8088  0.0229
 5984TIP3   OH217915   3.280   0.272   1.886  0.1158  0.1850 -0.0942
 5984TIP3    H117916   3.374   0.255   1.897  0.7073  1.1662 -2.9517
 5984TIP3    H217917   3.275   0.364   1.863 -1.7246  0.4531  1.1932
 5985TIP3   OH217918   4.133   3.931   5.038 -0.2521 -0.1480  0.1727
 5985TIP3    H117919   4.064   3.997   5.027 -1.0327 -1.0077 -0.2028
 5985TIP3    H217920   4.101   3.874   5.108  0.5371  0.0169  0.6714
 5986TIP3   OH217921   0.947   5.818   2.365 -0.2243 -0.4172  0.3169
 5986TIP3    H117922   1.033   5.778   2.375  0.1539  0.5578  1.1470
 5986TIP3    H217923   0.915   5.830   2.455 -0.9932 -0.2551  0.0346
 5987TIP3   OH217924   4.067   0.815   5.253 -0.8613 -0.4964 -0.1844
 5987TIP3    H117925   4.055   0.892   5.198 -2.6800  1.6855  2.9653
 5987TIP3    H217926   4.161   0.810   5.269 -0.6973  0.9120 -0.6265
 5988TIP3   OH217927   0.895   6.317   1.378 -0.3714  0.1944 -0.1322
 5988TIP3    H117928   0.969   6.264   1.408 -1.1126 -0.8423 -0.0541
 5988TIP3    H217929   0.863   6.271   1.301  0.0548  1.5364 -1.1374
 5989TIP3   OH217930   4.622   5.818   0.901  0.0387 -0.6917  0.5163
 5989TIP3    H117931   4.664   5.806   0.816  1.6279 -0.5970  1.2509
 5989TIP3    H217932   4.578   5.735   0.918 -0.3004 -0.7089 -0.3877
 5990TIP3   OH217933   1.853   4.934   5.416  0.6095  0.1558 -0.4097
 5990TIP3    H117934   1.804   4.985   5.351 -4.1542  0.0001  2.5893
 5990TIP3    H217935   1.847   4.843   5.385  0.3296  0.3276 -0.8643
 5991TIP3   OH217936   3.760   1.733   4.000  0.3481 -1.6090 -0.4835
 5991TIP3    H117937   3.675   1.732   3.954  0.0606  0.1289 -0.0829
 5991TIP3    H217938   3.821   1.771   3.937  0.2594 -0.5323  0.0501
 5992TIP3   OH217939   4.347   0.792   3.951 -0.8043 -0.3262 -0.7029
 5992TIP3    H117940   4.337   0.872   4.004 -0.4987 -1.2926  0.8613
 5992TIP3    H217941   4.435   0.800   3.913 -0.6414 -0.0825 -0.2848
 5993TIP3   OH217942   4.198   5.624   5.212  0.0991 -0.5746 -0.6355
 5993TIP3    H117943   4.182   5.612   5.119  1.7365 -1.1610 -0.8670
 5993TIP3    H217944   4.228   5.715   5.220 -2.1915  0.2284 -0.3219
 5994TIP3   OH217945   4.899   2.190   0.992  0.1294  0.3877 -0.0690
 5994TIP3    H117946   4.824   2.155   0.942  1.1368 -0.0382 -1.3423
 5994TIP3    H217947   4.906   2.281   0.964 -1.8045  1.4013  2.4158
 5995TIP3   OH217948   1.392   3.056   4.144 -0.3626  0.2463 -0.5552
 5995TIP3    H117949   1.368   3.104   4.223 -1.5581 -1.7246  0.3517
 5995TIP3    H217950   1.476   3.015   4.164  0.3277  1.3608 -1.0833
 5996TIP3   OH217951   1.206   0.198   0.035 -0.2646  0.5976  0.3967
 5996TIP3    H117952   1.154   0.118   0.047  1.4851 -0.7883 -0.5706
 5996TIP3    H217953   1.148   0.257  -0.013 -1.0707 -0.7481 -0.3603
 5997TIP3   OH217954   0.835   6.306   4.255 -0.2371 -0.4279  0.2335
 5997TIP3    H117955   0.913   6.249   4.256 -0.4750 -0.7935 -0.9793
 5997TIP3    H217956   0.809   6.309   4.163 -1.9155 -0.6588  0.6830
 5998TIP3   OH217957   0.381   4.692   1.094 -0.3094  0.0107  0.0237
 5998TIP3    H117958   0.288   4.668   1.088 -1.1493  2.7359  0.6605
 5998TIP3    H217959   0.394   4.757   1.025  1.2830 -0.6629 -0.3502
 5999TIP3   OH217960   3.683   4.034   2.825 -0.2381  0.2066 -0.6445
 5999TIP3    H117961   3.670   3.987   2.907 -2.6950 -0.8841 -1.5552
 5999TIP3    H217962   3.640   4.119   2.839 -2.5257 -0.7391 -1.3487
 6000TIP3   OH217963   6.642   5.639   4.849 -0.4665  0.2262  0.5235
 6000TIP3    H117964   6.609   5.564   4.801  1.5586 -0.4929  0.1628
 6000TIP3    H217965   6.689   5.601   4.923  2.0071  0.9805 -0.5637
 6001TIP3   OH217966   6.840   6.247   1.494 -0.0165  0.0586 -0.2945
 6001TIP3    H117967   6.907   6.304   1.532 -0.3722  0.6938 -0.5916
 6001TIP3    H217968   6.888   6.178   1.449  0.4285  0.2602 -0.1284
 6002TIP3   OH217969   7.032   5.000   0.164  0.6650  0.1575  0.4211
 6002TIP3    H117970   6.947   5.042   0.153  0.6759  0.1126  0.1618
 6002TIP3    H217971   7.015   4.907   0.148  0.6947  0.1001  0.7168
 6003TIP3   OH217972   5.540   4.556   2.012  0.4645 -0.0659  0.6751
 6003TIP3    H117973   5.588   4.473   2.019  0.0207 -0.3745  0.0917
 6003TIP3    H217974   5.602   4.621   2.045  0.1732 -0.8309  2.8941
 6004TIP3   OH217975   6.307   1.055   1.771 -0.0961  0.1039  0.4806
 6004TIP3    H117976   6.246   1.080   1.701  1.2377 -0.9059 -1.1363
 6004TIP3    H217977   6.295   1.122   1.838 -1.2792  1.2735 -0.8125
 6005TIP3   OH217978   1.012   4.898   5.471  0.2213  0.1572 -0.1839
 6005TIP3    H117979   1.031   4.918   5.562 -0.5643  1.1617 -0.2223
 6005TIP3    H217980   1.096   4.872   5.434  0.9900  1.8226  0.3004
 6006TIP3   OH217981   6.093   3.141   3.243  0.2459  0.1852 -0.1280
 6006TIP3    H117982   6.003   3.170   3.232  0.8254  1.5696 -1.5602
 6006TIP3    H217983   6.111   3.155   3.336 -0.7249  0.7727 -0.0078
 6007TIP3   OH217984   5.260   4.693   0.136 -0.0376 -0.7965  0.0191
 6007TIP3    H117985   5.241   4.695   0.230 -3.0447 -0.5974 -0.4972
 6007TIP3    H217986   5.239   4.603   0.110 -1.2623 -0.3038 -0.7790
 6008TIP3   OH217987   3.750   4.179   1.142  0.2026 -0.0315 -0.1925
 6008TIP3    H117988   3.827   4.188   1.198  0.7761 -0.0159 -0.9788
 6008TIP3    H217989   3.780   4.206   1.055 -1.2075  2.0468 -0.1097
 6009TIP3   OH217990   0.236   2.757   5.766 -0.6485  0.5171  0.6177
 6009TIP3    H117991   0.270   2.844   5.745 -0.3123 -0.0898 -1.5325
 6009TIP3    H217992   0.267   2.701   5.695  1.9088 -2.1111  3.5009
 6010TIP3   OH217993   2.434   1.171   4.052 -0.2231 -0.4137 -0.0845
 6010TIP3    H117994   2.465   1.123   4.129 -2.3471 -0.1277  1.0348
 6010TIP3    H217995   2.400   1.104   3.993  2.6873 -0.7728 -1.5224
 6011TIP3   OH217996   2.029   5.880   2.060  0.0004 -0.5199 -0.4184
 6011TIP3    H117997   1.992   5.954   2.108  2.8736 -0.8969  2.7705
 6011TIP3    H217998   1.977   5.805   2.087 -0.7943 -0.1874 -0.9916
 6012TIP3   OH217999   2.383   6.583   0.662 -0.2875 -0.0280 -0.1384
 6012TIP3    H118000   2.405   6.544   0.577 -0.6366 -0.2921 -0.1115
 6012TIP3    H218001   2.344   6.668   0.640 -0.1637  0.0042 -0.2319
 6013TIP3   OH218002   4.113   1.393   4.958 -0.6881 -0.1855  0.4025
 6013TIP3    H118003   4.054   1.397   4.882 -2.0252 -2.5677  1.2331
 6013TIP3    H218004   4.054   1.384   5.033  0.6965 -1.4161  1.3820
 6014TIP3   OH218005   6.708   0.565   2.165 -0.3684  0.1679 -0.7708
 6014TIP3    H118006   6.772   0.515   2.115 -2.2756  0.5682 -3.8668
 6014TIP3    H218007   6.654   0.609   2.099 -3.2455  0.5996  1.6291
 6015TIP3   OH218008   6.220   5.615   2.521 -0.2199 -0.2815 -0.0473
 6015TIP3    H118009   6.290   5.581   2.466  0.2235 -0.6418  0.7295
 6015TIP3    H218010   6.142   5.566   2.495 -0.0550 -0.3118 -0.4856
 6016TIP3   OH218011   4.339   4.742   2.208  0.0119 -0.2470 -0.1930
 6016TIP3    H118012   4.420   4.764   2.254  0.2828 -1.6463  0.0458
 6016TIP3    H218013   4.357   4.762   2.116  0.6910 -0.6912 -0.1613
 6017TIP3   OH218014   6.811   0.433   5.167  0.5044  0.1499 -0.1087
 6017TIP3    H118015   6.726   0.439   5.212  0.4220  0.6441 -0.3306
 6017TIP3    H218016   6.788   0.414   5.076  0.6332  0.3352 -0.1786
 6018TIP3   OH218017   2.201   4.448   1.051  0.3606 -0.8732 -0.0381
 6018TIP3    H118018   2.116   4.404   1.055  0.5130 -1.2353 -0.6450
 6018TIP3    H218019   2.181   4.540   1.068 -0.1331 -0.9755 -0.0352
 6019TIP3   OH218020   4.504   6.730   5.772 -0.2095 -0.0849  0.3957
 6019TIP3    H118021   4.566   6.768   5.834 -1.0365 -0.8701  1.7343
 6019TIP3    H218022   4.435   6.693   5.826 -0.1432 -2.2792 -0.9001
 6020TIP3   OH218023   3.149   1.164   0.729 -0.3958 -0.0530 -0.3904
 6020TIP3    H118024   3.142   1.070   0.741  2.1395 -0.2582  0.0486
 6020TIP3    H218025   3.103   1.201   0.804 -0.5865 -0.9659 -0.0472
 6021TIP3   OH218026   5.488   0.868   1.999 -0.2821  0.6455 -0.4663
 6021TIP3    H118027   5.461   0.949   2.043 -1.0041  0.9648 -1.4645
 6021TIP3    H218028   5.579   0.855   2.027 -0.9706  0.3436  1.7895
 6022TIP3   OH218029   6.281   5.701   3.742  0.2165  0.2068 -0.3560
 6022TIP3    H118030   6.355   5.757   3.761 -0.1206  0.5468 -0.0300
 6022TIP3    H218031   6.298   5.620   3.790 -0.4168  0.8930  1.0940
 6023TIP3   OH218032   5.057   4.911   1.051 -0.0423 -0.1484 -0.2137
 6023TIP3    H118033   5.031   4.863   0.973  0.9924 -1.4700  0.2098
 6023TIP3    H218034   5.044   5.003   1.029  2.1663 -0.3356 -2.6843
 6024TIP3   OH218035   0.464   5.950   1.868  0.0607  0.2749 -0.1661
 6024TIP3    H118036   0.463   6.001   1.949 -1.5672 -1.8081  1.2478
 6024TIP3    H218037   0.375   5.959   1.833  0.3866  0.1407 -1.0597
 6025TIP3   OH218038   6.650   5.655   3.006  0.0704 -0.0699  0.0064
 6025TIP3    H118039   6.669   5.703   2.925 -1.9087  0.1043 -0.4069
 6025TIP3    H218040   6.735   5.625   3.036  0.8955 -0.0191 -2.0772
 6026TIP3   OH218041   1.302   3.107   5.659  0.0468 -0.1512 -0.5592
 6026TIP3    H118042   1.326   3.060   5.739 -0.1783 -0.9156 -0.9362
 6026TIP3    H218043   1.368   3.081   5.595  0.2618  0.5088 -0.6117
 6027TIP3   OH218044   1.404   4.779   3.547 -0.6348 -0.2911 -0.2133
 6027TIP3    H118045   1.479   4.721   3.549 -0.0563  0.4150 -0.8324
 6027TIP3    H218046   1.435   4.861   3.586 -0.9713  0.1198 -0.7876
 6028TIP3   OH218047   1.397   4.694   2.643 -0.1150  0.4866  0.1408
 6028TIP3    H118048   1.381   4.600   2.628  0.4881  0.4906 -0.5943
 6028TIP3    H218049   1.479   4.697   2.692  0.4582  0.6500 -0.7879
 6029TIP3   OH218050   6.227   6.062   1.128 -0.3917 -0.2397 -0.7473
 6029TIP3    H118051   6.300   6.042   1.187 -0.5053 -1.5799 -1.0453
 6029TIP3    H218052   6.165   5.991   1.141 -0.9168  0.0280 -1.6906
 6030TIP3   OH218053   0.494   0.994   4.295  0.0696 -0.1518  0.1537
 6030TIP3    H118054   0.476   0.950   4.378 -0.3498 -1.6194 -0.6809
 6030TIP3    H218055   0.589   0.990   4.286  0.0152 -1.2646 -0.0821
 6031TIP3   OH218056   4.641   0.218   5.057 -0.7422  0.3075  0.2594
 6031TIP3    H118057   4.622   0.312   5.054  0.8397  0.6295 -1.6321
 6031TIP3    H218058   4.555   0.176   5.053 -1.4383  1.6662  0.4296
 6032TIP3   OH218059   5.829   1.292   5.560 -0.2238 -0.6484 -0.2691
 6032TIP3    H118060   5.797   1.203   5.573 -0.5102 -0.4476  0.5197
 6032TIP3    H218061   5.867   1.316   5.645  1.7011 -0.7315 -1.0612
 6033TIP3   OH218062   2.169   3.088   5.089  0.4571 -0.1299 -0.1235
 6033TIP3    H118063   2.112   3.109   5.163  0.1139 -1.9746  0.1671
 6033TIP3    H218064   2.173   3.170   5.039 -1.0612  0.5315  0.7581
 6034TIP3   OH218065   1.873   2.102   0.433 -1.0466 -0.6492  0.0457
 6034TIP3    H118066   1.884   2.007   0.438 -0.3486 -0.6052 -0.6565
 6034TIP3    H218067   1.874   2.123   0.340  3.3519  0.5385  0.1682
 6035TIP3   OH218068   5.907   1.544   2.502 -0.3762 -0.0779 -0.6928
 6035TIP3    H118069   5.814   1.564   2.491 -0.9316 -2.4606 -0.8512
 6035TIP3    H218070   5.935   1.512   2.416  0.9828  1.8160 -1.0345
 6036TIP3   OH218071   0.671   1.745   1.245  0.6365  0.2525 -0.1024
 6036TIP3    H118072   0.598   1.793   1.283 -0.5749 -0.8341 -0.9941
 6036TIP3    H218073   0.749   1.789   1.279 -0.4204  1.5600  0.7011
 6037TIP3   OH218074   2.829   2.993   5.370 -0.3257 -0.0671  1.3022
 6037TIP3    H118075   2.744   3.010   5.411 -0.7484  1.2500 -0.0575
 6037TIP3    H218076   2.829   2.898   5.354 -2.2088  0.1087 -0.0444
 6038TIP3   OH218077   1.207   4.174   1.621  0.1130 -0.1371 -0.5666
 6038TIP3    H118078   1.235   4.235   1.689  3.0855 -1.9588  0.0520
 6038TIP3    H218079   1.235   4.215   1.539 -2.0299  1.3181 -0.6507
 6039TIP3   OH218080   2.144   1.558   5.256  0.0947 -0.5833  0.1565
 6039TIP3    H118081   2.215   1.586   5.314 -0.0672 -0.4460  0.2900
 6039TIP3    H218082   2.156   1.610   5.177  1.3063 -1.9448 -0.5963
 6040TIP3   OH218083   3.383   6.764   3.660 -0.1289  0.2531 -0.3662
 6040TIP3    H118084   3.294   6.773   3.694 -0.6436  0.3658 -1.6591
 6040TIP3    H218085   3.392   6.835   3.596  1.1857  0.7447  0.3233
 6041TIP3   OH218086   2.404   0.916   2.556  0.1264 -0.4162 -0.7456
 6041TIP3    H118087   2.366   1.001   2.578  2.0692  0.2855  0.1109
 6041TIP3    H218088   2.401   0.913   2.460 -1.0169  0.0715 -0.7533
 6042TIP3   OH218089   4.341   4.053   4.328 -0.7398 -0.6434 -0.6475
 6042TIP3    H118090   4.346   3.967   4.369  0.0504  0.0720  0.8305
 6042TIP3    H218091   4.366   4.114   4.397 -0.2965  0.6959 -1.9423
 6043TIP3   OH218092   4.262   3.020   1.138  0.4147 -0.0505 -0.2878
 6043TIP3    H118093   4.270   3.103   1.093 -0.8260  0.6797  0.7516
 6043TIP3    H218094   4.254   3.043   1.231 -0.8729 -1.2407 -0.0563
 6044TIP3   OH218095   7.062   1.218   1.650 -0.3414  0.3487  0.0448
 6044TIP3    H118096   7.096   1.172   1.574 -1.5411  0.5398 -0.6236
 6044TIP3    H218097   6.967   1.212   1.642 -0.4978  1.0959  1.0859
 6045TIP3   OH218098   6.647   0.928   4.280  0.6214 -0.4980 -0.3704
 6045TIP3    H118099   6.566   0.879   4.295  0.7548 -0.4041  0.7361
 6045TIP3    H218100   6.706   0.865   4.239 -0.6560 -0.0150 -3.1339
 6046TIP3   OH218101   6.785   2.579   4.334 -0.5884 -0.0117  0.2408
 6046TIP3    H118102   6.786   2.483   4.329  0.0607 -0.0357  0.6682
 6046TIP3    H218103   6.766   2.608   4.245  0.5467 -0.5204 -0.1791
 6047TIP3   OH218104   4.247   4.318   0.932 -0.7995 -0.3792  0.4702
 6047TIP3    H118105   4.316   4.326   0.998 -0.4244  0.2208  0.0140
 6047TIP3    H218106   4.273   4.379   0.862 -1.1090 -1.1072 -0.2992
 6048TIP3   OH218107   5.410   4.976   0.174 -0.3087  0.2363  0.2036
 6048TIP3    H118108   5.367   4.891   0.183 -2.4075  0.5206 -4.5336
 6048TIP3    H218109   5.494   4.956   0.133  0.0816  0.3574  0.9262
 6049TIP3   OH218110   1.426   3.952   3.586 -0.3858 -0.1620  0.2757
 6049TIP3    H118111   1.431   4.043   3.615 -1.8476  0.0657 -0.1000
 6049TIP3    H218112   1.352   3.950   3.526 -0.7464 -1.7206  0.7152
 6050TIP3   OH218113   4.755   6.055   3.095  0.0561 -0.0923  0.2932
 6050TIP3    H118114   4.816   6.105   3.041 -1.2358 -1.0922 -2.2771
 6050TIP3    H218115   4.798   5.971   3.110  0.4593  0.2233  0.9179
 6051TIP3   OH218116   0.882   6.314   5.447 -0.1438  0.3397  0.0977
 6051TIP3    H118117   0.867   6.356   5.531 -0.5238 -0.3417  0.3825
 6051TIP3    H218118   0.971   6.279   5.453 -0.4511 -0.3995  0.5349
 6052TIP3   OH218119   6.082   4.222   0.739 -0.6747 -0.1335 -0.4894
 6052TIP3    H118120   6.012   4.283   0.715 -1.5396 -1.5005 -1.5544
 6052TIP3    H218121   6.150   4.235   0.673 -0.8685 -0.3428 -0.7291
 6053TIP3   OH218122   4.972   0.869   4.601  0.2285 -0.0034  0.3558
 6053TIP3    H118123   4.992   0.952   4.556  0.8043 -0.0051  0.6062
 6053TIP3    H218124   4.877   0.861   4.594  0.2475  0.2932 -0.3457
 6054TIP3   OH218125   1.139   5.307   5.616  0.0496  0.2094 -0.0672
 6054TIP3    H118126   1.177   5.228   5.577 -1.3861 -0.1485 -0.8330
 6054TIP3    H218127   1.161   5.301   5.709  3.1206  0.8309 -0.6621
 6055TIP3   OH218128   5.977   1.078   2.139  0.1667 -0.3994  0.3566
 6055TIP3    H118129   5.921   1.092   2.215 -0.7840 -1.9647 -0.0083
 6055TIP3    H218130   5.916   1.065   2.066  1.0440 -0.0324 -0.4581
 6056TIP3   OH218131   3.113   6.280   5.597  0.0409 -0.3454 -0.1676
 6056TIP3    H118132   3.188   6.294   5.655  0.5575 -1.6762 -0.4744
 6056TIP3    H218133   3.038   6.307   5.649  0.4624 -1.7074  1.2640
 6057TIP3   OH218134   4.785   4.670   4.045  0.2959  0.2194 -0.7629
 6057TIP3    H118135   4.866   4.661   3.995  1.9406 -1.7802  1.9884
 6057TIP3    H218136   4.814   4.682   4.135 -2.5185  1.0079  0.1242
 6058TIP3   OH218137   4.132   1.297   0.116 -0.3701 -0.5671  0.2962
 6058TIP3    H118138   4.227   1.293   0.108 -0.3135  0.5279  0.3214
 6058TIP3    H218139   4.102   1.211   0.087  0.4678 -0.1062 -2.1110
 6059TIP3   OH218140   7.070   1.224   4.668  0.4962 -0.0247  0.1558
 6059TIP3    H118141   7.025   1.268   4.596  0.1831  0.3447  0.5783
 6059TIP3    H218142   7.062   1.131   4.648  1.0067  0.0937 -0.6489
 6060TIP3   OH218143   2.597   2.358   3.429 -0.3181  0.0721 -0.3620
 6060TIP3    H118144   2.569   2.284   3.483  0.5525 -0.3591 -0.4841
 6060TIP3    H218145   2.517   2.386   3.385 -0.5646 -1.1489 -0.7365
 6061TIP3   OH218146   0.251   0.518   4.106  0.1561  0.3392 -0.0531
 6061TIP3    H118147   0.292   0.548   4.025  1.6386 -0.1582  0.4909
 6061TIP3    H218148   0.167   0.480   4.077  0.7267  0.0219 -1.3734
 6062TIP3   OH218149   4.150   1.182   3.591  0.0694  0.1876 -0.1936
 6062TIP3    H118150   4.233   1.195   3.636  0.4828 -1.2802 -0.4749
 6062TIP3    H218151   4.170   1.120   3.521 -1.6713 -1.8707  1.0155
 6063TIP3   OH218152   4.779   2.185   1.263 -0.4024  0.3881 -0.3773
 6063TIP3    H118153   4.701   2.162   1.214 -0.2067  0.2441 -0.6207
 6063TIP3    H218154   4.753   2.177   1.355 -0.4579 -0.3721 -0.4603
 6064TIP3   OH218155   0.792   3.354   2.612 -0.5603  0.3234  0.2132
 6064TIP3    H118156   0.753   3.409   2.544 -1.3561 -1.1481 -0.5686
 6064TIP3    H218157   0.775   3.265   2.583  1.3422 -0.3682  1.0633
 6065TIP3   OH218158   1.727   3.321   5.656  0.2222  0.2449  0.0945
 6065TIP3    H118159   1.699   3.282   5.739 -1.3935  1.9335  0.4085
 6065TIP3    H218160   1.757   3.409   5.680  1.0676  0.2472 -0.9356
 6066TIP3   OH218161   3.436   2.296   5.323  0.5405 -0.3244  0.1982
 6066TIP3    H118162   3.487   2.376   5.338  1.2234 -0.6816 -0.1933
 6066TIP3    H218163   3.350   2.328   5.297  1.1492  0.2962 -1.1410
 6067TIP3   OH218164   2.705   3.083   1.541  0.4297 -0.2070  0.3918
 6067TIP3    H118165   2.709   3.057   1.633 -2.6796  1.4976  1.1878
 6067TIP3    H218166   2.615   3.115   1.530  1.4337  2.0581 -2.5635
 6068TIP3   OH218167   4.389   4.123   3.810  0.7655  0.2365 -0.2141
 6068TIP3    H118168   4.445   4.111   3.887 -0.2390  0.3625  0.5643
 6068TIP3    H218169   4.389   4.037   3.767  1.7014  0.2927 -0.3368
 6069TIP3   OH218170   2.482   1.969   2.951 -0.3776 -0.0062  0.0399
 6069TIP3    H118171   2.440   2.049   2.981 -0.1747 -0.2941  1.1508
 6069TIP3    H218172   2.576   1.987   2.958 -0.2936  0.3340 -1.6025
 6070TIP3   OH218173   4.706   2.633   4.548  0.4268 -0.0667 -0.1232
 6070TIP3    H118174   4.794   2.662   4.573  0.4798  0.8239 -1.2268
 6070TIP3    H218175   4.668   2.710   4.504 -0.2056 -1.0403 -1.3281
 6071TIP3   OH218176   0.502   2.506   4.733  0.1792 -0.5184  0.5225
 6071TIP3    H118177   0.467   2.594   4.740 -3.0391 -1.4634 -1.3373
 6071TIP3    H218178   0.573   2.513   4.668 -0.7207  0.5581 -0.3811
 6072TIP3   OH218179   7.168   4.346   3.816  0.1356  0.1993  0.2796
 6072TIP3    H118180   7.106   4.410   3.851  2.5341  1.8299  1.8809
 6072TIP3    H218181   7.216   4.394   3.748  0.9865 -0.3601  0.4675
 6073TIP3   OH218182   0.421   3.843   3.830  0.3151  0.1678 -0.4733
 6073TIP3    H118183   0.508   3.884   3.835  0.4645  0.2773 -2.6777
 6073TIP3    H218184   0.418   3.806   3.742 -0.8347 -2.3155  0.5203
 6074TIP3   OH218185   5.362   4.359   5.189  0.2774 -0.8321  0.0269
 6074TIP3    H118186   5.316   4.350   5.105 -1.1991 -2.7389  0.9507
 6074TIP3    H218187   5.422   4.284   5.190  0.0101 -1.0393  0.8246
 6075TIP3   OH218188   6.821   5.028   4.663 -0.0686  0.1290  0.1121
 6075TIP3    H118189   6.744   5.066   4.621  0.5541  0.3578 -0.8695
 6075TIP3    H218190   6.787   4.956   4.715 -0.7777 -0.9073 -1.6966
 6076TIP3   OH218191   0.276   2.746   0.372  0.2514  0.0607  0.4318
 6076TIP3    H118192   0.250   2.659   0.401 -0.0602  0.6586  2.0565
 6076TIP3    H218193   0.255   2.803   0.446  0.5005  1.5093 -0.5737
 6077TIP3   OH218194   2.440   6.229   0.669 -0.1758  0.1621 -0.4077
 6077TIP3    H118195   2.364   6.287   0.659  0.4797  0.9119 -1.3028
 6077TIP3    H218196   2.447   6.214   0.763 -0.2812  1.6817 -0.1315
 6078TIP3   OH218197   1.263   4.709   5.694 -1.0295  0.0428 -0.4005
 6078TIP3    H118198   1.261   4.634   5.754  2.1924  1.4728  1.7958
 6078TIP3    H218199   1.353   4.711   5.662 -1.4543  2.1173 -1.5856
 6079TIP3   OH218200   0.521   5.963   0.710 -0.1165  0.0269 -0.0298
 6079TIP3    H118201   0.617   5.965   0.719  0.0493  0.4444 -1.4904
 6079TIP3    H218202   0.501   5.871   0.691 -0.2346 -0.4136  2.0147
 6080TIP3   OH218203   5.029   1.662   5.091 -0.3150  0.2653 -0.2445
 6080TIP3    H118204   4.960   1.718   5.055 -0.4671  0.4070  0.2710
 6080TIP3    H218205   5.096   1.660   5.022 -1.6477 -1.4406 -1.6004
 6081TIP3   OH218206   4.857   3.412   0.729  0.3375  0.5062  0.1624
 6081TIP3    H118207   4.884   3.333   0.776  0.3598  0.7159  0.5056
 6081TIP3    H218208   4.857   3.481   0.795  1.6689  1.0952 -0.4138
 6082TIP3   OH218209   7.024   4.859   1.275 -0.3732 -0.4103 -0.5909
 6082TIP3    H118210   6.952   4.849   1.336  0.1944  2.2426  0.6382
 6082TIP3    H218211   7.101   4.826   1.322 -0.0964  0.7752 -0.1677
 6083TIP3   OH218212   0.562   0.381   2.479 -0.2014  0.6905 -0.5917
 6083TIP3    H118213   0.606   0.299   2.457  0.6539  1.0775 -0.3697
 6083TIP3    H218214   0.611   0.448   2.430 -0.0536  1.2222  0.2705
 6084TIP3   OH218215   3.165   3.528   5.444  0.6041  0.9991 -0.3537
 6084TIP3    H118216   3.084   3.478   5.447  0.5838  0.9300 -1.6594
 6084TIP3    H218217   3.154   3.587   5.370  1.4601  1.4989 -0.0939
 6085TIP3   OH218218   5.130   3.338   4.287 -0.0846  0.0821  0.6256
 6085TIP3    H118219   5.219   3.311   4.311 -0.6860 -1.2304  1.5295
 6085TIP3    H218220   5.089   3.363   4.371 -0.5019  0.8842  0.1925
 6086TIP3   OH218221   2.414   6.698   4.438 -0.1771  0.2770  0.1265
 6086TIP3    H118222   2.379   6.715   4.351 -0.7002  0.5901  0.3950
 6086TIP3    H218223   2.403   6.604   4.450  1.2870 -0.0400 -0.7368
 6087TIP3   OH218224   0.282   2.156   1.008 -0.0741  0.5438  0.3937
 6087TIP3    H118225   0.364   2.119   1.041  0.8415  2.3277  0.2432
 6087TIP3    H218226   0.214   2.097   1.039  1.2584 -0.9064  0.6372
 6088TIP3   OH218227   2.924   6.658   1.516  0.2452 -0.0941 -0.0470
 6088TIP3    H118228   2.960   6.574   1.487  0.1094 -0.7964  1.6545
 6088TIP3    H218229   2.948   6.663   1.608 -0.5292  1.3282  0.0987
 6089TIP3   OH218230   1.131   6.642   2.388  0.3147  0.0750 -0.3168
 6089TIP3    H118231   1.081   6.614   2.311  1.1028  1.7543 -1.5034
 6089TIP3    H218232   1.068   6.637   2.461 -0.9995  0.1828 -1.3998
 6090TIP3   OH218233   5.441   4.328   2.190  0.2619  0.3748 -0.1816
 6090TIP3    H118234   5.522   4.317   2.140  0.2889 -0.3067  0.0025
 6090TIP3    H218235   5.372   4.326   2.124  0.2546 -1.1129 -0.1494
 6091TIP3   OH218236   5.539   6.420   1.347 -0.0453  0.3859 -0.0711
 6091TIP3    H118237   5.479   6.361   1.393  0.5954  0.2959  0.6768
 6091TIP3    H218238   5.596   6.455   1.416  0.0693  1.3043 -0.6077
 6092TIP3   OH218239   1.627   6.068   2.297 -0.5106 -0.1924  0.4033
 6092TIP3    H118240   1.585   6.036   2.217  0.1362 -1.6712  0.6299
 6092TIP3    H218241   1.717   6.086   2.271 -0.2401 -0.8921  0.8428
 6093TIP3   OH218242   7.107   0.049   4.410  0.0883  0.0121 -0.5413
 6093TIP3    H118243   7.130   0.130   4.455  0.8205  0.0636 -1.0006
 6093TIP3    H218244   7.040   0.009   4.466 -0.4585  1.0419 -0.4361
 6094TIP3   OH218245   3.984   4.199   4.286  0.0667  0.0018 -0.1632
 6094TIP3    H118246   3.947   4.173   4.202 -0.3444 -0.1240  0.0552
 6094TIP3    H218247   4.060   4.253   4.263 -2.4909  3.7201 -0.6952
 6095TIP3   OH218248   4.502   1.280   1.538 -0.3824  0.2739 -0.1271
 6095TIP3    H118249   4.431   1.327   1.493 -1.7436 -2.0819 -0.6613
 6095TIP3    H218250   4.552   1.240   1.467 -0.8661 -1.2060  0.3333
 6096TIP3   OH218251   2.306   1.712   5.449 -0.1017  0.6099  0.6692
 6096TIP3    H118252   2.255   1.673   5.520 -0.4544  1.8736  1.1432
 6096TIP3    H218253   2.255   1.787   5.420  0.9766  1.2927  0.4462
 6097TIP3   OH218254   5.699   1.956   2.429 -0.1450  0.5001 -0.2014
 6097TIP3    H118255   5.718   1.902   2.351  1.9319  1.9316 -0.7682
 6097TIP3    H218256   5.606   1.940   2.446 -0.0735 -1.7978 -1.4393
 6098TIP3   OH218257   5.004   3.585   0.993  1.0593  0.0641 -0.3128
 6098TIP3    H118258   4.909   3.597   0.984  0.9622 -0.4558 -0.0212
 6098TIP3    H218259   5.031   3.652   1.055  1.3016  1.9020 -2.2771
 6099TIP3   OH218260   7.154   1.371   5.520  0.3131 -0.5271  0.6454
 6099TIP3    H118261   7.178   1.455   5.482 -0.2725 -1.6868 -2.5969
 6099TIP3    H218262   7.235   1.336   5.555  1.7872 -0.8439 -2.7560
 6100TIP3   OH218263   4.036   0.247   0.954 -0.1913 -0.0223 -0.3472
 6100TIP3    H118264   4.042   0.236   1.049 -0.3057  1.0541 -0.2018
 6100TIP3    H218265   4.075   0.333   0.937  0.9572 -0.7284 -1.4273
 6101TIP3   OH218266   5.034   6.251   3.999 -0.4457  0.1933 -0.3417
 6101TIP3    H118267   5.046   6.196   3.922 -1.2351  0.5378 -0.7258
 6101TIP3    H218268   4.944   6.282   3.993 -0.2851  0.8366  0.3233
 6102TIP3   OH218269   0.481   2.679   0.702 -0.6146 -0.4007  0.2868
 6102TIP3    H118270   0.489   2.601   0.649 -0.7908  0.5949 -1.2708
 6102TIP3    H218271   0.424   2.653   0.775 -1.5295 -1.4429 -0.7562
 6103TIP3   OH218272   6.878   3.518   0.525  0.4724  0.0605  0.2147
 6103TIP3    H118273   6.954   3.523   0.466 -1.0280  1.1538 -1.7537
 6103TIP3    H218274   6.847   3.428   0.516  0.3099  0.1892 -0.6740
 6104TIP3   OH218275   3.653   5.656   1.571 -0.4203 -0.0114  0.3937
 6104TIP3    H118276   3.664   5.736   1.519 -2.4921 -0.3836 -0.7380
 6104TIP3    H218277   3.605   5.684   1.649  0.1734  0.0663  0.7412
 6105TIP3   OH218278   0.336   0.773   1.970 -0.0111  0.1802 -0.5129
 6105TIP3    H118279   0.312   0.845   1.912 -3.0333 -0.1534  0.1863
 6105TIP3    H218280   0.340   0.812   2.057  2.0223  0.1592 -0.5367
 6106TIP3   OH218281   2.604   5.522   1.353  0.3145 -0.4688  0.2456
 6106TIP3    H118282   2.607   5.586   1.281  1.5582 -0.7102  0.0768
 6106TIP3    H218283   2.691   5.483   1.355 -0.5767 -2.6346 -0.0548
 6107TIP3   OH218284   3.783   1.773   5.555  0.5987 -0.4401 -0.1649
 6107TIP3    H118285   3.819   1.844   5.609 -0.2874 -0.6076  0.6681
 6107TIP3    H218286   3.831   1.779   5.472 -0.2333  1.8436 -0.5452
 6108TIP3   OH218287   6.968   1.241   0.434 -0.1839 -0.7535 -0.3545
 6108TIP3    H118288   6.935   1.323   0.398 -1.6736 -0.9453  0.4601
 6108TIP3    H218289   7.003   1.264   0.519  2.1339 -0.5145 -1.3112
 6109TIP3   OH218290   1.236   3.863   5.203  0.0431  0.0556 -0.2847
 6109TIP3    H118291   1.285   3.933   5.160 -0.2516  2.1225  2.4032
 6109TIP3    H218292   1.166   3.909   5.250 -2.5231 -2.4686 -1.3228
 6110TIP3   OH218293   0.303   0.177   3.478 -0.1749 -0.2067 -0.3759
 6110TIP3    H118294   0.323   0.227   3.399  0.1468 -1.2249 -0.9542
 6110TIP3    H218295   0.315   0.086   3.453 -2.3667 -0.7181  0.1523
 6111TIP3   OH218296   5.078   1.252   0.491  0.3708  0.2697 -0.2109
 6111TIP3    H118297   5.053   1.340   0.462  0.2069  0.0077 -0.8750
 6111TIP3    H218298   5.029   1.193   0.435  0.3872 -0.2529  0.3178
 6112TIP3   OH218299   7.094   0.067   5.497  0.1841 -0.6876  0.3326
 6112TIP3    H118300   7.158   0.004   5.530  0.7637  0.0583  0.6467
 6112TIP3    H218301   7.014   0.049   5.548  0.2866 -1.2931  0.2826
 6113TIP3   OH218302   5.337   3.600   4.703  0.1981  0.4649 -0.1067
 6113TIP3    H118303   5.311   3.521   4.750  2.4333 -0.1892  0.1130
 6113TIP3    H218304   5.351   3.571   4.613  2.0537  0.3389  0.1935
 6114TIP3   OH218305   4.496   2.301   2.981 -0.1451 -0.3136  0.2393
 6114TIP3    H118306   4.524   2.336   2.897  0.8447  2.1661  1.4972
 6114TIP3    H218307   4.428   2.237   2.960  0.4525 -0.1547 -2.4270
 6115TIP3   OH218308   3.289   1.588   0.214 -0.3191 -0.7492 -0.4886
 6115TIP3    H118309   3.286   1.552   0.303  0.9662 -2.5043 -1.1047
 6115TIP3    H218310   3.203   1.567   0.177 -1.5907  1.6277  0.8579
 6116TIP3   OH218311   6.324   5.835   2.625 -0.7788 -0.1068  0.3821
 6116TIP3    H118312   6.282   5.753   2.599 -0.2079 -0.6217  1.0296
 6116TIP3    H218313   6.387   5.853   2.555  0.0054 -0.9246  0.8476
 6117TIP3   OH218314   0.649   3.069   0.747  0.5582 -0.3937  0.0460
 6117TIP3    H118315   0.592   3.102   0.677  0.9226  0.4855  0.1488
 6117TIP3    H218316   0.590   3.053   0.821  0.2710 -0.6519 -0.2392
 6118TIP3   OH218317   5.845   4.517   4.633 -0.3148  0.0241 -0.2048
 6118TIP3    H118318   5.801   4.437   4.661 -2.3511  1.1995  0.1405
 6118TIP3    H218319   5.873   4.499   4.543 -2.7288 -0.3525 -0.9319
 6119TIP3   OH218320   3.328   6.624   2.664 -0.0904  0.0687  0.1641
 6119TIP3    H118321   3.336   6.714   2.634 -1.2680  0.2157  0.2231
 6119TIP3    H218322   3.328   6.572   2.583 -0.7047  0.2415  0.0485
 6120TIP3   OH218323   5.967   2.451   1.214  0.4327  0.3236 -0.5433
 6120TIP3    H118324   5.941   2.528   1.163  0.1413  0.0201 -0.8538
 6120TIP3    H218325   5.973   2.380   1.150  0.2141 -0.0270 -0.1771
 6121TIP3   OH218326   2.709   5.340   4.046 -0.5214 -0.4043 -0.3800
 6121TIP3    H118327   2.667   5.261   4.011  0.1468 -1.4442  1.0570
 6121TIP3    H218328   2.725   5.320   4.138  0.8377  0.9133 -0.2897
 6122TIP3   OH218329  -0.022   6.209   0.346  0.2637 -0.0391 -0.2386
 6122TIP3    H118330   0.028   6.267   0.288  1.8778 -1.6407 -0.5325
 6122TIP3    H218331   0.044   6.159   0.393 -0.9918  0.9205  2.7941
 6123TIP3   OH218332   3.774   0.853   5.769  0.1380 -0.2612  0.2578
 6123TIP3    H118333   3.710   0.786   5.746  1.8617 -1.4968 -1.2844
 6123TIP3    H218334   3.813   0.878   5.685  2.6704 -0.6534  1.2273
 6124TIP3   OH218335   3.833   3.722   1.372  0.2665  0.0037  0.0457
 6124TIP3    H118336   3.785   3.640   1.376 -1.6597  1.0419 -0.5292
 6124TIP3    H218337   3.856   3.732   1.279 -1.1934  0.9808 -0.2453
 6125TIP3   OH218338   7.113   2.233   0.271  0.1340 -0.1654 -0.4342
 6125TIP3    H118339   7.197   2.267   0.302  0.9083 -1.6112 -0.8603
 6125TIP3    H218340   7.106   2.266   0.181  0.3119 -0.1590 -0.4463
 6126TIP3   OH218341   5.393   1.109   2.106  0.3383 -0.3213  0.2934
 6126TIP3    H118342   5.312   1.072   2.141  1.4479 -0.5121  2.8439
 6126TIP3    H218343   5.388   1.202   2.128  1.5006 -0.6232  2.0079
 6127TIP3   OH218344   2.656   4.852   0.682  0.6262 -0.1439 -0.1934
 6127TIP3    H118345   2.729   4.793   0.704 -0.2266 -1.3461 -0.4797
 6127TIP3    H218346   2.617   4.813   0.604  0.2995  1.0647 -0.6453
 6128TIP3   OH218347   0.778   2.266   4.271  0.5521 -0.5707  0.2950
 6128TIP3    H118348   0.850   2.292   4.328  1.0583 -1.4174  0.0716
 6128TIP3    H218349   0.780   2.170   4.272 -0.1822 -0.6060 -0.2036
 6129TIP3   OH218350   1.996   2.921   4.760 -0.3724  0.6858 -0.2926
 6129TIP3    H118351   1.927   2.971   4.716 -1.2657  1.2185  1.6513
 6129TIP3    H218352   1.954   2.840   4.787  0.2511  0.2292 -0.6648
 6130TIP3   OH218353   3.593   4.736   3.822  0.1925 -0.0619 -0.2571
 6130TIP3    H118354   3.610   4.649   3.858  0.2393  0.0736  0.0459
 6130TIP3    H218355   3.498   4.740   3.813  0.1513  0.0383  0.1923
 6131TIP3   OH218356   4.742   2.104   3.581 -0.2983  0.3133 -0.2338
 6131TIP3    H118357   4.832   2.073   3.595 -0.4500 -0.2885 -0.5925
 6131TIP3    H218358   4.744   2.194   3.613  0.3249  0.1702  0.1652
 6132TIP3   OH218359   1.623   0.627   4.640 -1.0311 -0.1502  0.1952
 6132TIP3    H118360   1.669   0.544   4.624  1.4108  1.4984 -2.0946
 6132TIP3    H218361   1.679   0.674   4.702 -1.4879  0.5298  0.1017
 6133TIP3   OH218362   6.895   2.830   4.107  0.0426 -0.3412 -0.1035
 6133TIP3    H118363   6.874   2.737   4.096 -0.2836 -0.1775 -0.9744
 6133TIP3    H218364   6.990   2.833   4.105  0.0726 -0.6992  0.3782
 6134TIP3   OH218365   2.306   3.420   2.044  0.0129  0.5654  0.6882
 6134TIP3    H118366   2.247   3.345   2.054 -0.6307  1.0127  0.2823
 6134TIP3    H218367   2.250   3.497   2.056  0.1928  1.0391 -1.2200
 6135TIP3   OH218368   0.978   3.228   4.328 -0.2303 -0.3663 -0.9018
 6135TIP3    H118369   0.967   3.318   4.356 -0.2359 -0.3036 -1.1011
 6135TIP3    H218370   1.068   3.223   4.295 -0.5780 -0.1368 -1.9431
 6136TIP3   OH218371   6.767   5.832   3.894 -0.1049  0.7327 -0.0491
 6136TIP3    H118372   6.707   5.902   3.920 -2.8263 -0.8461 -1.5626
 6136TIP3    H218373   6.760   5.829   3.798  3.6856  1.4352 -0.5061
 6137TIP3   OH218374   3.424   2.469   1.628  0.1211  0.0132 -0.0833
 6137TIP3    H118375   3.512   2.494   1.655 -0.1353  0.3287  0.4832
 6137TIP3    H218376   3.394   2.408   1.695 -0.6127  0.9969  0.5248
 6138TIP3   OH218377   5.184   1.245   4.345 -0.3787 -0.5007 -0.3418
 6138TIP3    H118378   5.280   1.251   4.350 -0.4388  0.3974 -0.0847
 6138TIP3    H218379   5.167   1.230   4.252  0.0690 -2.2903 -0.1675
 6139TIP3   OH218380   5.329   2.138   2.540 -0.1333 -0.1340 -0.4803
 6139TIP3    H118381   5.244   2.174   2.564  0.2132 -0.0041  0.6393
 6139TIP3    H218382   5.381   2.214   2.514  0.1736  0.0320  0.5599
 6140TIP3   OH218383   7.207   2.795   5.364  0.1413 -0.1312 -0.3717
 6140TIP3    H118384   7.126   2.767   5.322 -1.0254  0.6521  1.2546
 6140TIP3    H218385   7.226   2.727   5.428  1.0982 -0.5827 -1.1085
 6141TIP3   OH218386   1.095   1.042   5.697  0.2748 -0.0437 -0.0841
 6141TIP3    H118387   1.010   1.063   5.735  0.5867  1.6604 -0.2472
 6141TIP3    H218388   1.075   1.018   5.606 -0.1924 -1.5704  0.3822
 6142TIP3   OH218389   3.330   1.312   0.159 -0.2032  0.1640 -0.0841
 6142TIP3    H118390   3.301   1.299   0.068  2.3340  0.1583 -0.9890
 6142TIP3    H218391   3.326   1.407   0.171  1.1036  0.3488 -0.8725
 6143TIP3   OH218392   4.141   1.652   1.175 -0.0409  0.4854 -0.1209
 6143TIP3    H118393   4.142   1.732   1.122  2.5868  0.3436 -0.4322
 6143TIP3    H218394   4.143   1.581   1.110  0.4177  0.2559  0.1364
 6144TIP3   OH218395   5.989   1.658   4.060  0.0122 -0.1988  0.7447
 6144TIP3    H118396   5.946   1.723   4.116  0.3612 -1.1056  2.1358
 6144TIP3    H218397   5.938   1.578   4.073  0.0178 -0.3898 -0.3731
 6145TIP3   OH218398   7.052   0.474   0.367  0.4514 -0.0196 -0.4291
 6145TIP3    H118399   7.038   0.492   0.460 -2.3690  0.5637 -0.8653
 6145TIP3    H218400   7.043   0.379   0.360 -0.0873  0.0057 -0.1813
 6146TIP3   OH218401   5.041   0.678   3.187 -0.5148 -0.1266 -0.1744
 6146TIP3    H118402   4.948   0.657   3.176 -1.0169  2.4939 -1.9236
 6146TIP3    H218403   5.041   0.771   3.212  1.6315  0.4262 -1.9525
 6147TIP3   OH218404   3.981   2.955   1.114  0.5551  0.1140 -0.3445
 6147TIP3    H118405   4.017   2.924   1.196 -0.4665 -2.1751 -0.6838
 6147TIP3    H218406   4.043   2.925   1.047 -0.1047 -0.6664 -0.6247
 6148TIP3   OH218407   3.565   2.127   5.043  0.3974  0.0082 -0.2507
 6148TIP3    H118408   3.516   2.161   4.968  0.6906 -1.3035 -1.0638
 6148TIP3    H218409   3.540   2.184   5.116  0.0009  1.2270 -1.3056
 6149TIP3   OH218410   4.813   0.074   5.868 -0.0253 -0.3540 -0.0592
 6149TIP3    H118411   4.757   0.083   5.945 -0.6609 -1.1667 -0.4077
 6149TIP3    H218412   4.769   0.008   5.814  1.1108 -0.7897 -0.4859
 6150TIP3   OH218413   1.556   5.242   3.833  0.0704  0.5932  0.2688
 6150TIP3    H118414   1.541   5.172   3.770 -1.9982  1.0930  0.1204
 6150TIP3    H218415   1.622   5.208   3.893 -0.9103 -1.5110  0.2348
 6151TIP3   OH218416   2.979   4.772   4.539 -0.3533 -0.2277  0.2513
 6151TIP3    H118417   2.957   4.696   4.592  1.6377 -0.2737  1.1143
 6151TIP3    H218418   2.911   4.836   4.558 -1.6103 -1.4793  0.1372
 6152TIP3   OH218419   3.929   0.898   3.787 -0.7059  0.7480 -0.1186
 6152TIP3    H118420   3.896   0.987   3.773  0.1571  1.2677  0.9585
 6152TIP3    H218421   4.018   0.900   3.752 -0.1233  0.7868  1.2747
 6153TIP3   OH218422   5.275   4.732   0.808  0.8904 -0.5568 -0.1689
 6153TIP3    H118423   5.189   4.709   0.771  1.9578 -0.1801 -3.2046
 6153TIP3    H218424   5.325   4.650   0.806 -0.1286 -1.5712  4.4896
 6154TIP3   OH218425   1.608   5.150   5.699 -0.0772 -0.1359 -0.0593
 6154TIP3    H118426   1.600   5.185   5.610 -1.3838 -0.9596 -0.2921
 6154TIP3    H218427   1.622   5.227   5.754 -1.1450  0.5874 -0.7688
 6155TIP3   OH218428   6.085   4.606   0.549 -0.0397  0.3466  0.4000
 6155TIP3    H118429   6.177   4.595   0.574 -0.4313 -3.3626  0.7227
 6155TIP3    H218430   6.088   4.626   0.455  1.0781  1.3959  0.6313
 6156TIP3   OH218431   1.788   0.779   1.899  0.7946 -0.0073 -0.1787
 6156TIP3    H118432   1.818   0.722   1.829 -0.3751  0.7978 -1.3879
 6156TIP3    H218433   1.739   0.721   1.957  2.1322 -0.7610  0.2388
 6157TIP3   OH218434   4.028   1.875   5.427  0.4041  0.2269  0.4791
 6157TIP3    H118435   4.045   1.814   5.355  0.2170  0.5833  0.1328
 6157TIP3    H218436   4.082   1.951   5.406  0.3538  0.3286  0.7225
 6158TIP3   OH218437   5.036   5.079   4.361  0.0328  0.2669  0.6432
 6158TIP3    H118438   5.110   5.124   4.401 -0.2441 -1.0906  2.8813
 6158TIP3    H218439   5.069   4.992   4.340 -1.0038 -0.5091  2.1053
 6159TIP3   OH218440   6.124   1.749   0.529  0.1082 -0.5861 -0.0914
 6159TIP3    H118441   6.183   1.691   0.578  0.4238  0.9616  1.4790
 6159TIP3    H218442   6.043   1.749   0.581 -1.3430 -2.5865 -2.1545
 6160TIP3   OH218443   4.918   2.918   3.042  0.2773  0.3318  0.0393
 6160TIP3    H118444   4.937   2.854   3.110  0.5311 -0.5798 -0.8670
 6160TIP3    H218445   4.845   2.969   3.077 -0.1244 -0.6437  0.6644
 6161TIP3   OH218446   6.288   5.716   0.974 -0.0160 -0.6358 -0.5447
 6161TIP3    H118447   6.332   5.686   0.895  0.9431 -0.7351  0.0093
 6161TIP3    H218448   6.197   5.729   0.948  0.5383  0.5649 -1.9824
 6162TIP3   OH218449   1.929   6.309   1.167  0.1760 -0.5043 -0.5655
 6162TIP3    H118450   1.913   6.374   1.098  0.2752 -0.2593 -0.3593
 6162TIP3    H218451   1.937   6.360   1.247  1.3513 -0.6639 -0.5629
 6163TIP3   OH218452   1.922   4.444   3.300  0.2263  0.1998  0.1452
 6163TIP3    H118453   1.925   4.410   3.211 -2.2371  0.8476 -0.2786
 6163TIP3    H218454   1.875   4.376   3.350 -0.4589  0.8277  0.3812
 6164TIP3   OH218455   5.332   0.810   4.009  0.0780 -0.0411 -0.1643
 6164TIP3    H118456   5.292   0.866   3.942 -0.0729 -0.1602 -0.1741
 6164TIP3    H218457   5.426   0.828   4.002  0.2066 -0.9832 -1.2824
 6165TIP3   OH218458   6.609   0.137   2.040 -0.3629  0.1106  0.0407
 6165TIP3    H118459   6.535   0.139   2.101  1.7733 -1.4662  2.8979
 6165TIP3    H218460   6.595   0.057   1.989 -0.8946  0.1118  0.1733
 6166TIP3   OH218461   6.856   3.386   4.533  0.7793  0.0205  0.2753
 6166TIP3    H118462   6.844   3.295   4.506 -2.4798  0.0098  1.3202
 6166TIP3    H218463   6.828   3.437   4.457 -3.1162 -0.0018  1.4895
 6167TIP3   OH218464   4.724   6.581   0.679 -0.5406 -0.3799  0.3327
 6167TIP3    H118465   4.670   6.555   0.754 -0.9340  0.7204  0.4383
 6167TIP3    H218466   4.798   6.520   0.681 -1.3936 -1.4435  0.6125
 6168TIP3   OH218467   4.439   6.449   4.520 -0.2013  0.6575 -0.1703
 6168TIP3    H118468   4.493   6.374   4.496  1.0343  1.0396  1.2200
 6168TIP3    H218469   4.355   6.433   4.479  0.0673 -1.4373  0.0033
 6169TIP3   OH218470   3.179   6.547   5.402  0.0647  0.4502 -0.2096
 6169TIP3    H118471   3.166   6.526   5.495  0.1323 -0.9257 -0.5047
 6169TIP3    H218472   3.233   6.627   5.404  0.4403  0.1945  0.9338
 6170TIP3   OH218473   5.211   5.823   1.610  0.3004 -0.4009 -0.4932
 6170TIP3    H118474   5.200   5.870   1.693  0.1229  0.6983 -1.1277
 6170TIP3    H218475   5.200   5.731   1.634 -1.8215  0.0225  0.3613
 6171TIP3   OH218476   2.889   2.413   5.140 -0.5913 -0.6738  0.1793
 6171TIP3    H118477   2.794   2.426   5.133 -0.4604 -0.0930 -0.6679
 6171TIP3    H218478   2.926   2.475   5.077  0.3174 -1.5408 -0.1542
 6172TIP3   OH218479   4.831   1.793   0.948  0.1737 -0.1017  0.7647
 6172TIP3    H118480   4.899   1.858   0.932 -0.4565  1.1278  2.7327
 6172TIP3    H218481   4.804   1.765   0.860  1.6424  1.0359 -0.1004
 6173TIP3   OH218482   2.357   3.460   2.555 -0.7194  0.2177  0.1114
 6173TIP3    H118483   2.315   3.528   2.502  0.1798  1.2057  0.6166
 6173TIP3    H218484   2.447   3.458   2.524 -1.3535 -2.9125 -2.0022
 6174TIP3   OH218485   5.885   1.026   2.881 -0.0338 -0.1226  0.2052
 6174TIP3    H118486   5.833   1.093   2.837 -0.7118 -0.9357 -0.2737
 6174TIP3    H218487   5.957   1.008   2.820  0.7635  0.9263  0.8198
 6175TIP3   OH218488   4.899   3.914   4.471 -0.2124 -0.0307 -0.0235
 6175TIP3    H118489   4.896   3.863   4.391 -2.2513  0.9153 -0.6018
 6175TIP3    H218490   4.809   3.944   4.485  0.3102  0.8041  1.9824
 6176TIP3   OH218491   2.202   2.528   2.876 -0.3839  0.0111  0.1962
 6176TIP3    H118492   2.214   2.603   2.818 -0.8446 -0.0864 -0.0286
 6176TIP3    H218493   2.108   2.525   2.892 -0.2410  0.1721  1.1345
 6177TIP3   OH218494   3.522   6.541   5.003 -0.0949 -0.1120  0.3336
 6177TIP3    H118495   3.579   6.535   5.079  0.5092  0.9606 -0.0152
 6177TIP3    H218496   3.469   6.620   5.019 -0.7265 -0.4948  0.1543
 6178TIP3   OH218497   0.304   1.125   0.256  1.1154  0.4578  0.8617
 6178TIP3    H118498   0.290   1.159   0.344  0.1026  0.2164  0.8064
 6178TIP3    H218499   0.227   1.071   0.238  2.0046 -0.7194  0.4012
 6179TIP3   OH218500   1.425   1.527   1.237  0.0911  0.0083 -0.1023
 6179TIP3    H118501   1.475   1.455   1.275  0.1733  1.3041  2.4059
 6179TIP3    H218502   1.482   1.562   1.168  1.8548  0.2503  1.4195
 6180TIP3   OH218503   2.309   2.240   3.858  0.1108  0.0744  0.5248
 6180TIP3    H118504   2.335   2.237   3.765  1.1530  1.4863  0.7320
 6180TIP3    H218505   2.392   2.240   3.905 -0.3210  1.7126  1.3548
 6181TIP3   OH218506   2.444   1.735   5.721  0.0882 -0.3386 -0.0570
 6181TIP3    H118507   2.434   1.648   5.758  1.3149  0.5632  2.6774
 6181TIP3    H218508   2.524   1.730   5.668  0.6964 -0.6946  0.8626
 6182TIP3   OH218509   2.199   1.761   4.308  0.5520 -0.1783  0.4703
 6182TIP3    H118510   2.117   1.807   4.286  0.0022 -0.6902  1.3830
 6182TIP3    H218511   2.267   1.813   4.266 -0.1249  1.0214  0.7897
 6183TIP3   OH218512   6.717   0.395   5.834 -0.9269  0.2978  0.5403
 6183TIP3    H118513   6.654   0.452   5.878  0.4937  0.9242  1.8415
 6183TIP3    H218514   6.737   0.440   5.752 -2.2544 -0.0013  0.0115
 6184TIP3   OH218515   0.821   6.785   1.436  0.1859  0.2852 -0.2033
 6184TIP3    H118516   0.827   6.778   1.531  2.0496 -0.0830 -0.3175
 6184TIP3    H218517   0.811   6.695   1.406  0.2228  0.3458 -0.3970
 6185TIP3   OH218518   3.854   6.510   4.819 -0.3877 -0.5503  0.2989
 6185TIP3    H118519   3.923   6.564   4.782  0.5406 -1.8916  0.0169
 6185TIP3    H218520   3.832   6.553   4.902  0.5311  0.0833  0.2259
 6186TIP3   OH218521   0.417   2.782   3.934  0.0883  0.1885 -0.4359
 6186TIP3    H118522   0.482   2.725   3.893 -0.9882 -0.8905 -0.7063
 6186TIP3    H218523   0.354   2.722   3.974  0.0449  1.2176  1.1146
 6187TIP3   OH218524   5.962   4.124   4.370  0.2027 -0.4265  0.1372
 6187TIP3    H118525   5.892   4.085   4.318 -0.0927  0.0268  0.1923
 6187TIP3    H218526   5.951   4.086   4.457 -1.9588  1.9848  1.0203
 6188TIP3   OH218527   1.620   2.301   3.499  0.4733 -0.0283  0.4076
 6188TIP3    H118528   1.654   2.326   3.413  0.1020 -2.2318 -0.4426
 6188TIP3    H218529   1.623   2.206   3.499 -1.0419 -0.1337  2.2340
 6189TIP3   OH218530   5.288   6.703   1.209 -0.3016  0.0620  0.1675
 6189TIP3    H118531   5.196   6.718   1.188  0.1464  0.0522 -2.0550
 6189TIP3    H218532   5.302   6.610   1.190  0.5624  0.4690 -1.3961
 6190TIP3   OH218533   5.864   3.733   5.463 -0.7634  0.2711 -0.7302
 6190TIP3    H118534   5.952   3.710   5.494 -0.3520  1.5048 -0.9111
 6190TIP3    H218535   5.808   3.722   5.540 -0.5129 -0.8348 -0.6984
 6191TIP3   OH218536   1.042   3.631   5.606 -0.1051 -0.1935  0.6639
 6191TIP3    H118537   0.995   3.705   5.567 -0.7973 -1.1015 -0.2752
 6191TIP3    H218538   1.082   3.586   5.532 -0.6003 -1.3776  1.0970
 6192TIP3   OH218539   5.516   2.162   3.414  0.5850  0.6344 -0.6725
 6192TIP3    H118540   5.506   2.071   3.388  1.7575  0.9313 -2.4040
 6192TIP3    H218541   5.460   2.211   3.353 -0.7548  1.0474  0.8250
 6193TIP3   OH218542   3.624   3.827   2.005  0.6605 -0.4020 -0.4706
 6193TIP3    H118543   3.603   3.761   1.938  4.0778 -1.6752 -0.4876
 6193TIP3    H218544   3.664   3.777   2.076  1.3056  1.4205  0.5178
 6194TIP3   OH218545   3.120   2.479   1.615  0.0004 -0.8395  0.1571
 6194TIP3    H118546   3.097   2.439   1.531  0.3340  0.6841 -0.6949
 6194TIP3    H218547   3.190   2.424   1.650  0.6947 -0.8257 -1.1507
 6195TIP3   OH218548   1.857   3.459   2.850 -0.3712  0.0157 -0.3726
 6195TIP3    H118549   1.860   3.539   2.902 -1.4321  0.6773 -1.2675
 6195TIP3    H218550   1.765   3.451   2.824  0.3394  0.5598 -3.3930
 6196TIP3   OH218551   0.304   1.235   4.421 -0.0293 -0.2419  0.1587
 6196TIP3    H118552   0.213   1.244   4.390  0.5812 -0.8831 -2.0226
 6196TIP3    H218553   0.311   1.143   4.446  0.4388 -0.6041 -1.2451
 6197TIP3   OH218554   2.712   2.059   1.941  0.4440  0.1162  0.7357
 6197TIP3    H118555   2.709   1.967   1.917  0.4320  0.5784 -1.1440
 6197TIP3    H218556   2.731   2.106   1.860  1.1488  1.7395  1.7623
 6198TIP3   OH218557   2.557   3.596   1.086 -0.4879 -0.2585 -0.2671
 6198TIP3    H118558   2.635   3.570   1.134 -0.9420  0.9713  1.2461
 6198TIP3    H218559   2.484   3.562   1.138 -1.0304  2.0895  0.6541
 6199TIP3   OH218560   4.224   4.823   5.417 -0.1140 -0.1351 -0.0141
 6199TIP3    H118561   4.271   4.741   5.402 -2.4888 -1.2393 -2.1669
 6199TIP3    H218562   4.183   4.843   5.333 -1.3096  2.1710  1.0099
 6200TIP3   OH218563   0.054   3.588   3.222 -0.3050  0.6134 -0.7931
 6200TIP3    H118564   0.097   3.591   3.137  0.2671 -1.7354 -0.6656
 6200TIP3    H218565   0.095   3.514   3.267  1.2878  3.2168  2.5779
 6201TIP3   OH218566   0.539   4.208   3.996  0.0212  0.7064  0.3106
 6201TIP3    H118567   0.492   4.239   4.073  0.1002  3.0454 -0.4835
 6201TIP3    H218568   0.571   4.288   3.954  1.8930 -0.6178 -0.9520
 6202TIP3   OH218569   0.973   2.240   3.963 -0.7392  0.3885 -0.0668
 6202TIP3    H118570   1.000   2.196   4.043 -2.3603  0.4642  0.5534
 6202TIP3    H218571   1.047   2.295   3.939  0.8451 -1.6748 -0.1580
 6203TIP3   OH218572   2.284   4.639   3.122 -0.3109  0.5455  0.1381
 6203TIP3    H118573   2.219   4.660   3.189 -0.0596  0.2170  0.4899
 6203TIP3    H218574   2.334   4.721   3.111 -0.5335  0.6836  0.1439
 6204TIP3   OH218575   0.674   3.309   2.106 -0.5309 -0.0014 -0.4771
 6204TIP3    H118576   0.615   3.258   2.052 -0.7487 -0.3278  0.0574
 6204TIP3    H218577   0.639   3.398   2.102 -1.0891 -0.1998 -0.1296
 6205TIP3   OH218578   6.981   6.056   4.465  0.7485 -0.2914 -0.1694
 6205TIP3    H118579   6.906   6.030   4.519  0.5977 -0.8237 -0.6203
 6205TIP3    H218580   7.042   5.983   4.471  0.3538 -0.7559 -1.3891
 6206TIP3   OH218581   6.414   0.207   2.218  0.5972 -0.3819 -0.2433
 6206TIP3    H118582   6.458   0.275   2.270  1.7021 -1.7059  0.6337
 6206TIP3    H218583   6.351   0.168   2.278 -0.0879 -0.1045 -0.7679
 6207TIP3   OH218584   0.364   6.488   3.573  0.2070 -0.6351 -0.4912
 6207TIP3    H118585   0.390   6.402   3.607  2.5870 -0.6007 -1.9945
 6207TIP3    H218586   0.430   6.548   3.608 -0.1474  0.2068 -1.2429
 6208TIP3   OH218587   4.873   5.260   0.938  0.1096 -0.8901 -0.4106
 6208TIP3    H118588   4.947   5.268   0.879  0.4736  0.1740  0.1751
 6208TIP3    H218589   4.906   5.207   1.011  0.1607 -0.7779 -0.3529
 6209TIP3   OH218590   4.280   5.928   4.591 -0.0484  0.3386 -0.4690
 6209TIP3    H118591   4.184   5.929   4.590 -0.1517  1.4338  2.0017
 6209TIP3    H218592   4.303   5.862   4.656  0.8509  0.6472 -0.4586
 6210TIP3   OH218593   3.555   1.346   1.544 -0.0711 -0.2610  0.0550
 6210TIP3    H118594   3.635   1.399   1.540 -0.0350 -0.3404 -0.2875
 6210TIP3    H218595   3.559   1.292   1.466 -1.6323  1.3910 -1.2463
 6211TIP3   OH218596   4.323   4.654   4.709 -0.6446 -0.2665 -0.0187
 6211TIP3    H118597   4.275   4.575   4.735 -2.2314  0.5003 -0.5001
 6211TIP3    H218598   4.262   4.702   4.652  0.4967  1.0342 -0.2035
 6212TIP3   OH218599   3.773   1.490   4.920 -0.0646 -0.3981  0.1155
 6212TIP3    H118600   3.757   1.584   4.916 -0.8647 -0.5667 -1.2707
 6212TIP3    H218601   3.728   1.461   4.999 -3.5622 -0.2508 -1.6516
 6213TIP3   OH218602   6.871   2.520   3.692 -0.3488  0.2250 -0.7211
 6213TIP3    H118603   6.820   2.455   3.645  1.6107 -1.7195 -0.3012
 6213TIP3    H218604   6.962   2.502   3.667  0.4577  1.2377  1.2711
 6214TIP3   OH218605   2.231   3.027   5.521 -0.6877  0.4600  0.2351
 6214TIP3    H118606   2.283   3.055   5.446 -2.8711  0.8481 -1.2312
 6214TIP3    H218607   2.222   2.932   5.511 -0.4209  0.4164  0.3966
 6215TIP3   OH218608   6.948   5.680   4.047  0.5492  0.5836 -0.2262
 6215TIP3    H118609   6.878   5.729   4.004 -0.8300 -1.7851 -0.8818
 6215TIP3    H218610   6.925   5.681   4.139 -1.3670 -1.5469 -0.6086
 6216TIP3   OH218611   3.799   4.184   0.447  0.3464 -0.2803 -0.1992
 6216TIP3    H118612   3.772   4.169   0.356 -1.0949 -0.1906  0.1909
 6216TIP3    H218613   3.893   4.166   0.447  0.8627  1.9373 -2.1958
 6217TIP3   OH218614   6.956   0.671   3.000 -0.1193  0.3656 -0.4837
 6217TIP3    H118615   7.017   0.731   2.957 -0.6915  1.2666 -0.0859
 6217TIP3    H218616   7.009   0.624   3.064  0.3047  0.6036 -0.6579
 6218TIP3   OH218617   4.477   2.538   4.263  0.4603 -0.0051  0.5795
 6218TIP3    H118618   4.471   2.585   4.180  1.4758 -0.6216  0.1467
 6218TIP3    H218619   4.392   2.495   4.272  1.1593 -1.9778 -1.4053
 6219TIP3   OH218620   6.624   5.305   5.026  0.0303  0.0956 -0.5652
 6219TIP3    H118621   6.660   5.304   5.115 -0.6431  0.9078 -0.2722
 6219TIP3    H218622   6.550   5.365   5.031 -0.1242  0.0080 -1.6386
 6220TIP3   OH218623   5.656   0.470   3.141  0.1301  1.0759  0.0724
 6220TIP3    H118624   5.563   0.455   3.123  0.2415  1.7468 -1.2256
 6220TIP3    H218625   5.682   0.537   3.077  1.9978 -0.5355 -0.9540
 6221TIP3   OH218626   7.042   5.489   3.843  0.6838 -0.2772  0.0586
 6221TIP3    H118627   7.097   5.518   3.770  2.4723 -1.1993  0.9748
 6221TIP3    H218628   7.027   5.569   3.894 -1.2779  0.5541 -1.6635
 6222TIP3   OH218629   6.533   3.516   2.728  0.0426  0.2578 -0.0900
 6222TIP3    H118630   6.565   3.598   2.690  0.6923  1.6284  3.0750
 6222TIP3    H218631   6.600   3.492   2.792 -1.5272 -1.1784  1.1073
 6223TIP3   OH218632   3.726   4.309   1.901  0.5653  0.2627 -0.3118
 6223TIP3    H118633   3.773   4.230   1.877  0.2383  0.2710 -1.0122
 6223TIP3    H218634   3.652   4.312   1.840 -0.6978 -0.0757  1.1307
 6224TIP3   OH218635   6.213   0.153   2.410 -0.2989  0.1095 -0.7078
 6224TIP3    H118636   6.130   0.109   2.426  0.2444 -0.5661  0.4860
 6224TIP3    H218637   6.190   0.242   2.386 -1.4855 -0.9839 -4.1901
 6225TIP3   OH218638   2.635   4.207   0.139 -0.1344 -0.2201 -0.3768
 6225TIP3    H118639   2.672   4.125   0.106  0.2533  0.3483 -1.3851
 6225TIP3    H218640   2.541   4.194   0.135 -0.0807 -1.1742  0.9197
 6226TIP3   OH218641   5.760   5.639   2.733  0.6691  0.2645  0.8070
 6226TIP3    H118642   5.682   5.632   2.788  0.4726 -0.6140  0.4277
 6226TIP3    H218643   5.789   5.730   2.744 -0.0020  0.4050  1.4907
 6227TIP3   OH218644   3.953   2.662   0.077  0.0756  0.5585 -0.8695
 6227TIP3    H118645   3.984   2.636  -0.009  0.7009 -0.7846 -0.2676
 6227TIP3    H218646   3.951   2.581   0.128 -0.0046  1.3580  0.4632
 6228TIP3   OH218647   1.145   1.825   1.346 -0.2778 -1.0186 -0.2339
 6228TIP3    H118648   1.172   1.917   1.347  0.6157 -1.1893  2.8312
 6228TIP3    H218649   1.049   1.828   1.353 -0.2115 -0.2662  0.6003
 6229TIP3   OH218650   4.636   3.467   2.008  0.3737  0.1898  0.5638
 6229TIP3    H118651   4.674   3.555   2.006 -1.2792  0.9223 -0.8474
 6229TIP3    H218652   4.631   3.441   1.915 -0.2966 -0.8936  0.8834
 6230TIP3   OH218653   3.436   5.702   5.395 -0.2617  0.2339  1.0499
 6230TIP3    H118654   3.378   5.662   5.330  0.5670 -0.0740  0.4801
 6230TIP3    H218655   3.520   5.657   5.382  0.3464  1.3004  1.2489
 6231TIP3   OH218656   0.465   6.707   1.579  0.4072 -0.0590  0.1334
 6231TIP3    H118657   0.460   6.612   1.566  2.1709 -0.1871  0.1001
 6231TIP3    H218658   0.412   6.744   1.509  2.1900 -0.9653 -1.8011
 6232TIP3   OH218659   0.979   0.947   0.224  0.1923  0.3088  0.4212
 6232TIP3    H118660   0.894   0.987   0.208 -0.2460 -0.1811  1.4322
 6232TIP3    H218661   0.962   0.853   0.223  1.4022 -0.0054 -3.0249
 6233TIP3   OH218662   6.003   1.204   2.484  0.1483 -0.6785 -0.1824
 6233TIP3    H118663   6.013   1.262   2.408  1.6862  0.2500  0.6839
 6233TIP3    H218664   6.061   1.130   2.464  0.7871 -0.2903  0.1985
 6234TIP3   OH218665   0.326   4.031   5.584  0.0076 -0.2205  0.1759
 6234TIP3    H118666   0.277   4.113   5.579  1.3297  0.5961  0.1766
 6234TIP3    H218667   0.393   4.039   5.517 -1.0257 -2.1594 -1.1898
 6235TIP3   OH218668   2.865   1.087   2.589  0.3876  0.2259 -0.2933
 6235TIP3    H118669   2.932   1.127   2.644 -0.2795 -0.5450  1.1285
 6235TIP3    H218670   2.808   1.159   2.563  1.3717  0.7831 -0.9989
 6236TIP3   OH218671   3.546   2.820   3.053  0.4536  0.4471 -0.7059
 6236TIP3    H118672   3.506   2.792   3.136  0.2175  0.5690 -0.7771
 6236TIP3    H218673   3.471   2.837   2.996  0.6307 -0.8295 -1.3479
 6237TIP3   OH218674   3.868   3.156   5.875  0.1982  0.0537 -0.0009
 6237TIP3    H118675   3.900   3.107   5.951  0.8672  1.0036  0.3653
 6237TIP3    H218676   3.914   3.118   5.800  1.0389  0.3899  0.3332
 6238TIP3   OH218677   0.619   3.722   5.759  0.0081  0.1746  0.2072
 6238TIP3    H118678   0.596   3.724   5.666  1.1773 -0.0568 -0.1051
 6238TIP3    H218679   0.536   3.734   5.804 -0.6328 -0.0368 -0.8656
 6239TIP3   OH218680   2.274   3.925   0.652 -0.1575 -0.1307 -0.2142
 6239TIP3    H118681   2.179   3.920   0.656 -0.1049 -1.1053  0.3342
 6239TIP3    H218682   2.303   3.833   0.656  0.8543  0.2180  1.9304
 6240TIP3   OH218683   2.978   3.900   4.892 -0.3111  0.3906  0.2071
 6240TIP3    H118684   3.046   3.922   4.829  0.1161  1.9721  1.1702
 6240TIP3    H218685   2.904   3.870   4.839  0.2509  1.0993 -0.9994
 6241TIP3   OH218686   3.303   4.069   2.332  0.1910 -0.5808 -0.0196
 6241TIP3    H118687   3.395   4.075   2.358  0.2607 -1.9965  0.1537
 6241TIP3    H218688   3.300   3.997   2.269 -0.7091 -0.1443 -0.5054
 6242TIP3   OH218689   2.294   3.343   1.070  0.0570 -0.4126 -0.0753
 6242TIP3    H118690   2.325   3.391   1.147 -0.8085 -1.1316  0.7332
 6242TIP3    H218691   2.200   3.332   1.084  0.0176 -1.2056 -0.8775
 6243TIP3   OH218692   5.017   6.620   0.069 -0.6964 -0.4708  0.5017
 6243TIP3    H118693   5.006   6.530   0.101 -0.2195 -3.0807 -5.3813
 6243TIP3    H218694   5.111   6.627   0.049 -1.1606  0.1020 -1.7762
 6244TIP3   OH218695   1.031   3.774   1.038  0.1938  0.5440  0.6636
 6244TIP3    H118696   1.106   3.795   0.982  0.3441 -0.0458  0.6445
 6244TIP3    H218697   1.029   3.846   1.102 -0.7949  1.9746 -0.8662
 6245TIP3   OH218698   6.482   1.137   0.083 -0.0339 -0.1657 -0.7467
 6245TIP3    H118699   6.404   1.091   0.116  0.8566 -0.7530  0.6170
 6245TIP3    H218700   6.541   1.067   0.055 -0.5230  0.2927 -3.2302
 6246TIP3   OH218701   0.495   0.458   2.933  0.0559  0.0484  0.5263
 6246TIP3    H118702   0.508   0.370   2.896 -1.2167  0.5040 -1.1286
 6246TIP3    H218703   0.401   0.472   2.928  0.2711  1.6121  0.4899
 6247TIP3   OH218704   3.216   5.151   4.582 -0.2993  0.2031 -0.4163
 6247TIP3    H118705   3.176   5.174   4.666 -0.4441  1.2227 -0.7592
 6247TIP3    H218706   3.142   5.139   4.522 -0.1892 -0.3556 -0.4479
 6248TIP3   OH218707   7.027   1.471   5.097 -0.4557 -0.1961 -0.5774
 6248TIP3    H118708   7.071   1.443   5.017  2.3843  0.5281  0.6224
 6248TIP3    H218709   7.016   1.391   5.148  2.3734 -0.1110  0.3667
 6249TIP3   OH218710   0.958   0.213   3.075  0.3370 -0.3185  0.7792
 6249TIP3    H118711   0.960   0.128   3.031 -0.6489 -0.9148  1.8372
 6249TIP3    H218712   0.867   0.224   3.103  0.8635  0.1533  2.4237
 6250TIP3   OH218713   3.544   0.086   1.657  0.1678  0.5307  0.1529
 6250TIP3    H118714   3.511   0.175   1.647 -0.8405  0.3939  1.8023
 6250TIP3    H218715   3.469   0.037   1.692  0.5411 -1.1054 -1.2083
 6251TIP3   OH218716   3.028   5.096   4.378 -0.2027  0.9654 -0.3103
 6251TIP3    H118717   2.984   5.065   4.298 -0.7036  1.4626 -0.2324
 6251TIP3    H218718   3.084   5.023   4.404 -1.3052  0.1428 -0.1713
 6252TIP3   OH218719   2.278   3.940   2.493  0.3841  0.5716 -0.6902
 6252TIP3    H118720   2.348   3.964   2.554  0.9578  0.8786 -1.4537
 6252TIP3    H218721   2.313   3.960   2.407 -0.3261 -0.0846 -1.1471
 6253TIP3   OH218722   1.355   6.377   1.913  0.5361 -0.1603 -0.4768
 6253TIP3    H118723   1.384   6.431   1.987  0.6532 -1.0984  0.1834
 6253TIP3    H218724   1.379   6.288   1.938 -0.9974 -0.7136 -0.8789
 6254TIP3   OH218725   5.672   2.907   1.721 -0.2399 -0.1006  0.1165
 6254TIP3    H118726   5.688   2.823   1.765 -0.4149 -0.6620 -0.8701
 6254TIP3    H218727   5.758   2.948   1.715 -0.0416 -0.5405 -0.0574
 6255TIP3   OH218728   1.224   1.516   3.734 -0.2058  0.3172  0.6207
 6255TIP3    H118729   1.311   1.477   3.725  0.3248  1.5363  0.3526
 6255TIP3    H218730   1.208   1.518   3.828  0.2842  0.5795  0.7017
 6256TIP3   OH218731   4.958   0.685   1.490  0.1150  0.6361  0.2162
 6256TIP3    H118732   4.986   0.595   1.474  0.6070  0.9783 -0.9058
 6256TIP3    H218733   4.894   0.677   1.561  0.1025 -0.6036  0.0929
 6257TIP3   OH218734   3.873   5.240   2.825  0.0687  0.2028 -0.5764
 6257TIP3    H118735   3.956   5.226   2.779  0.8702  1.3253  0.4291
 6257TIP3    H218736   3.812   5.269   2.758  0.4431 -0.7819 -1.3630
 6258TIP3   OH218737   2.774   4.479   3.662 -0.2477 -0.4076  0.0122
 6258TIP3    H118738   2.810   4.545   3.721 -1.3555 -0.2630  0.5588
 6258TIP3    H218739   2.707   4.434   3.714 -0.0327 -1.4569 -0.5893
 6259TIP3   OH218740   4.323   4.825   5.148  0.2020 -0.1178  0.2938
 6259TIP3    H118741   4.355   4.820   5.058 -0.9223  0.0206 -0.1219
 6259TIP3    H218742   4.384   4.770   5.198  0.1857 -1.1039 -0.7369
 6260TIP3   OH218743   0.194   4.409   3.980  0.3109  0.0530 -0.0314
 6260TIP3    H118744   0.110   4.379   3.944 -0.4316  0.1114  1.5762
 6260TIP3    H218745   0.257   4.342   3.952 -0.6685 -1.1543  0.5493
 6261TIP3   OH218746   6.530   0.551   0.857 -0.3063  0.1434  0.6240
 6261TIP3    H118747   6.459   0.490   0.877 -1.3973  0.8627 -0.8410
 6261TIP3    H218748   6.487   0.628   0.821  1.1845  0.9287  0.4023
 6262TIP3   OH218749   7.049   6.565   2.160 -0.2187  0.0554  0.0556
 6262TIP3    H118750   7.035   6.503   2.089 -0.8015 -1.1135  1.1509
 6262TIP3    H218751   6.962   6.579   2.197 -0.0952  1.5361 -0.1440
 6263TIP3   OH218752   2.918   1.852   5.555 -0.0199 -0.0693  0.0171
 6263TIP3    H118753   2.923   1.768   5.603  1.0566 -0.4300 -0.6891
 6263TIP3    H218754   2.862   1.833   5.480  0.5567 -0.2898 -0.3682
 6264TIP3   OH218755   4.043   3.377   0.065 -0.2108 -0.0051  0.6335
 6264TIP3    H118756   4.127   3.416   0.091  0.0611 -0.4196  0.3830
 6264TIP3    H218757   3.993   3.371   0.146  0.1856 -0.1976  0.8669
 6265TIP3   OH218758   5.907   5.893   5.043  0.0642  0.7122 -0.3941
 6265TIP3    H118759   5.930   5.961   5.106 -1.1384  1.2217 -0.4650
 6265TIP3    H218760   5.965   5.820   5.064  1.1889  1.6534 -0.1377
 6266TIP3   OH218761   6.163   1.473   4.310 -0.0344  0.3070  0.1870
 6266TIP3    H118762   6.247   1.518   4.313 -0.2490  0.7225 -0.0066
 6266TIP3    H218763   6.115   1.505   4.387 -0.3114  0.6623 -0.1289
 6267TIP3   OH218764   4.308   3.125   0.224  0.3496  0.3934 -0.2024
 6267TIP3    H118765   4.359   3.075   0.287 -0.6124 -0.2814  0.0651
 6267TIP3    H218766   4.217   3.102   0.242 -0.0204  1.0534 -1.1011
 6268TIP3   OH218767   0.917   0.091   5.542 -0.0172  0.4539  0.6326
 6268TIP3    H118768   0.845   0.154   5.531 -0.1591  0.0726 -0.8292
 6268TIP3    H218769   0.877   0.006   5.526  0.9210  0.3143 -1.1762
 6269TIP3   OH218770   7.097   0.047   1.791  0.0121  0.4682  0.0841
 6269TIP3    H118771   7.029   0.076   1.851  0.3771 -2.0431  1.8647
 6269TIP3    H218772   7.066  -0.038   1.759  2.0356 -0.5496  0.6206
 6270TIP3   OH218773   0.477   5.791   4.132 -0.5873 -0.6257  0.4967
 6270TIP3    H118774   0.511   5.878   4.148  0.0493 -0.8411  0.3212
 6270TIP3    H218775   0.383   5.804   4.120 -0.8599 -0.2252  2.6194
 6271TIP3   OH218776   4.171   4.645   0.970  0.3652 -0.4326  0.6611
 6271TIP3    H118777   4.137   4.606   1.050 -1.8543  1.0651  0.5610
 6271TIP3    H218778   4.153   4.580   0.902 -1.9695  0.0451  0.7171
 6272TIP3   OH218779   6.129   5.581   2.119 -0.5654  0.3526 -0.0003
 6272TIP3    H118780   6.153   5.548   2.033 -0.9517  2.5663 -1.0171
 6272TIP3    H218781   6.209   5.621   2.153 -0.5803  0.0479  0.4042
 6273TIP3   OH218782   2.849   1.051   1.914 -0.1742  0.0874  0.4635
 6273TIP3    H118783   2.897   1.104   1.850 -0.8532 -0.5349 -0.6118
 6273TIP3    H218784   2.764   1.094   1.922 -0.1135  0.1296  0.9130
 6274TIP3   OH218785   6.470   0.320   4.863 -0.4879  0.1922 -0.2820
 6274TIP3    H118786   6.443   0.230   4.846 -0.5201  0.1634 -0.0733
 6274TIP3    H218787   6.518   0.346   4.783 -0.2674 -0.0891 -0.2420
 6275TIP3   OH218788   4.315   2.691   4.999 -0.2409 -0.0741  0.0104
 6275TIP3    H118789   4.359   2.737   4.928 -1.1677  2.9848  1.2481
 6275TIP3    H218790   4.245   2.642   4.956  1.1883 -0.9473 -1.4467
 6276TIP3   OH218791   0.101   4.346   4.584 -0.1834 -0.7434  0.0602
 6276TIP3    H118792   0.029   4.408   4.571  0.4157  0.0141  0.3077
 6276TIP3    H218793   0.180   4.400   4.585  0.3743 -1.5395  0.0353
 6277TIP3   OH218794   5.878   6.054   0.079 -0.2178 -0.0256 -0.1422
 6277TIP3    H118795   5.786   6.049   0.054 -0.4825 -1.8418  1.0064
 6277TIP3    H218796   5.912   5.966   0.062  1.3773  0.6674 -0.7476
 6278TIP3   OH218797   2.013   5.577   3.133 -0.4563  0.6569  0.4938
 6278TIP3    H118798   1.952   5.563   3.205 -1.9744  0.8952 -0.6861
 6278TIP3    H218799   1.990   5.663   3.098 -0.5835  0.0663 -0.9799
 6279TIP3   OH218800   2.222   3.179   3.104  0.4514  0.4197 -0.1360
 6279TIP3    H118801   2.307   3.136   3.116  0.8988  0.7958 -1.7596
 6279TIP3    H218802   2.243   3.272   3.106  0.3842  0.5131 -2.3424
 6280TIP3   OH218803   6.805   1.318   1.625  0.3826  0.1326  0.4058
 6280TIP3    H118804   6.717   1.302   1.590  0.2699  0.6573  0.4487
 6280TIP3    H218805   6.790   1.344   1.716  0.5946  0.0651  0.4606
 6281TIP3   OH218806   5.461   1.075   4.629  0.2162  0.5283  0.6393
 6281TIP3    H118807   5.438   1.158   4.588  0.2554  0.7651  1.0879
 6281TIP3    H218808   5.415   1.077   4.713  0.6323  0.3219  0.8725
 6282TIP3   OH218809   3.435   5.000   1.012  0.0928 -0.7569  0.4357
 6282TIP3    H118810   3.369   4.972   0.949 -0.0825 -1.3122  0.8587
 6282TIP3    H218811   3.516   5.004   0.962 -0.3523  0.5306 -0.2412
 6283TIP3   OH218812   1.087   6.195   2.139  0.2616  0.8183  0.8836
 6283TIP3    H118813   1.181   6.174   2.131 -0.3060 -2.6303  1.8019
 6283TIP3    H218814   1.060   6.213   2.049  1.4023 -0.3410  0.2578
 6284TIP3   OH218815   1.453   1.317   3.733  0.0520 -0.3505 -0.2984
 6284TIP3    H118816   1.419   1.251   3.793 -0.8913  0.1322 -0.2707
 6284TIP3    H218817   1.479   1.268   3.655  0.7432 -0.9146  0.2761
 6285TIP3   OH218818   4.563   6.038   4.642 -0.4840 -0.2637 -0.2109
 6285TIP3    H118819   4.654   6.021   4.616 -0.5626  1.2635 -1.6212
 6285TIP3    H218820   4.569   6.110   4.705 -0.6633 -0.9190  0.5823
 6286TIP3   OH218821   0.363   6.748   3.223  0.4817  0.0994  0.6848
 6286TIP3    H118822   0.356   6.673   3.163 -0.8358  2.7672 -2.8114
 6286TIP3    H218823   0.281   6.748   3.272  1.1753 -1.5563  1.9705
 6287TIP3   OH218824   2.488   5.503   4.385 -0.2122  0.6366  0.5286
 6287TIP3    H118825   2.404   5.460   4.405 -0.3978  1.1907  0.9645
 6287TIP3    H218826   2.483   5.522   4.291 -0.2495 -0.0281  0.3919
 6288TIP3   OH218827   1.135   2.575   3.198 -0.3896 -0.1998  0.0799
 6288TIP3    H118828   1.053   2.545   3.238 -0.5026  0.6920  0.5368
 6288TIP3    H218829   1.107   2.612   3.114 -0.4466  0.0475  0.2080
 6289TIP3   OH218830   7.048   0.941   3.774 -0.0519 -0.2695 -0.6005
 6289TIP3    H118831   7.142   0.927   3.788 -0.4115 -1.8291  0.3748
 6289TIP3    H218832   7.044   0.989   3.691  1.4767 -3.8356 -2.9855
 6290TIP3   OH218833   2.931   1.886   2.453  0.0876 -0.3017 -0.2864
 6290TIP3    H118834   2.968   1.811   2.406  0.7797 -0.0490 -0.1591
 6290TIP3    H218835   3.007   1.930   2.491 -0.4069 -0.1828  0.6014
 6291TIP3   OH218836   1.678   1.890   1.583  0.3962  0.4303  0.4845
 6291TIP3    H118837   1.629   1.840   1.649 -1.7627  0.8193 -0.7483
 6291TIP3    H218838   1.675   1.980   1.614  0.4546  0.4361  0.4735
 6292TIP3   OH218839   3.571   1.244   1.819 -0.0111 -0.0655  0.1905
 6292TIP3    H118840   3.590   1.164   1.769 -1.0327  0.1886 -0.6363
 6292TIP3    H218841   3.494   1.281   1.776 -0.6535  0.4122  1.6829
 6293TIP3   OH218842   6.258   1.595   0.688 -0.8400 -0.1962  0.5847
 6293TIP3    H118843   6.215   1.609   0.773  1.7698 -1.6533  2.3014
 6293TIP3    H218844   6.352   1.591   0.709 -0.0740 -0.5120 -2.4092
 6294TIP3   OH218845   3.352   3.976   4.806 -0.0869 -0.6971 -0.0418
 6294TIP3    H118846   3.334   4.045   4.870  0.0700 -0.6512 -0.0451
 6294TIP3    H218847   3.441   3.995   4.775 -0.7101  0.1481 -1.3819
 6295TIP3   OH218848   0.270   1.295   4.759  0.4262  0.3973  0.4524
 6295TIP3    H118849   0.300   1.235   4.827 -0.9881 -2.4059 -1.2079
 6295TIP3    H218850   0.346   1.303   4.700  0.0821 -1.4302 -0.3179
 6296TIP3   OH218851   1.358   2.635   5.029 -0.0257  0.8628 -0.4211
 6296TIP3    H118852   1.266   2.656   5.042 -0.1918 -0.4443  0.8303
 6296TIP3    H218853   1.402   2.672   5.106  0.2615  0.2497 -0.2801
 6297TIP3   OH218854   4.269   4.376   2.034 -0.0221  0.0323  0.0630
 6297TIP3    H118855   4.361   4.359   2.055 -0.4217 -1.2332  0.8202
 6297TIP3    H218856   4.236   4.426   2.108 -0.1184 -0.0711  0.0895
 6298TIP3   OH218857   0.538   2.651   0.286  0.6094 -0.7383  0.4066
 6298TIP3    H118858   0.458   2.701   0.302 -0.2231 -2.2658  1.2205
 6298TIP3    H218859   0.608   2.706   0.320  0.2252  1.5958 -2.2124
 6299TIP3   OH218860   2.316   0.601   0.381  0.1634 -0.8172  0.1175
 6299TIP3    H118861   2.315   0.507   0.399 -3.1425 -1.3049 -1.7976
 6299TIP3    H218862   2.343   0.608   0.289  0.4596  0.1348  0.2620
 6300TIP3   OH218863   3.020   1.272   2.750 -0.0848  0.1075  0.2699
 6300TIP3    H118864   3.107   1.266   2.789 -0.3447 -1.2382  0.6748
 6300TIP3    H218865   2.981   1.350   2.789  0.1209 -0.5179  1.7661
 6301TIP3   OH218866   5.710   3.723   5.692  0.0741 -0.3844  0.1589
 6301TIP3    H118867   5.654   3.701   5.766 -0.6793  1.8816  0.3317
 6301TIP3    H218868   5.759   3.800   5.721  1.7204 -1.0320 -0.7716
 6302TIP3   OH218869   5.798   3.847   3.317  0.3058  0.2539 -0.0438
 6302TIP3    H118870   5.820   3.875   3.228 -1.3985  1.5135 -0.1236
 6302TIP3    H218871   5.838   3.914   3.374 -1.4369  1.4170 -0.0933
 6303TIP3   OH218872   4.277   5.353   4.940 -0.5217  0.0694  0.2942
 6303TIP3    H118873   4.305   5.382   5.027  0.4825  0.7993 -0.2505
 6303TIP3    H218874   4.277   5.258   4.946 -0.0505  0.1011  0.9649
 6304TIP3   OH218875   6.757   2.966   2.642  0.7500 -0.4631  0.1692
 6304TIP3    H118876   6.849   2.962   2.667  1.2061 -1.0415 -1.4496
 6304TIP3    H218877   6.720   2.883   2.672  0.5073  0.1192  1.5805
 6305TIP3   OH218878   1.613   4.427   2.798 -0.3122 -0.0252 -0.9544
 6305TIP3    H118879   1.635   4.486   2.727  0.4753  0.3274 -0.4377
 6305TIP3    H218880   1.690   4.429   2.856 -0.8741 -0.4035 -0.1648
 6306TIP3   OH218881   1.827   6.473   2.599  0.4552 -0.5408  0.0833
 6306TIP3    H118882   1.812   6.384   2.567  0.5987 -0.4473 -0.2503
 6306TIP3    H218883   1.775   6.528   2.540  0.0149 -0.4374  0.5588
 6307TIP3   OH218884   4.823   2.656   3.463  0.1823 -0.2260 -0.2837
 6307TIP3    H118885   4.801   2.573   3.420 -2.0489  0.2977 -0.2576
 6307TIP3    H218886   4.760   2.719   3.428 -0.2338  0.7436  2.0140
 6308TIP3   OH218887   4.699   3.365   1.597 -0.0604 -0.3615 -0.0580
 6308TIP3    H118888   4.650   3.378   1.516 -1.2086 -2.4299  0.2144
 6308TIP3    H218889   4.687   3.447   1.646  2.2127  1.6854 -2.6255
 6309TIP3   OH218890   2.333   3.291   4.936 -0.1851  0.8158 -0.2319
 6309TIP3    H118891   2.338   3.386   4.926  1.0701  1.1390  2.5583
 6309TIP3    H218892   2.424   3.262   4.933 -0.4953 -0.1913 -0.1368
 6310TIP3   OH218893   4.559   0.688   1.242  0.2362  0.3279  0.1493
 6310TIP3    H118894   4.485   0.688   1.182  1.7275  0.4477 -1.7663
 6310TIP3    H218895   4.543   0.762   1.301 -1.0756  0.4275 -0.3039
 6311TIP3   OH218896   3.873   0.933   0.767 -0.5720  0.2641 -0.4310
 6311TIP3    H118897   3.923   1.000   0.721  0.1688  1.4850  1.9915
 6311TIP3    H218898   3.893   0.852   0.720  2.0521  1.0439 -0.7928
 6312TIP3   OH218899   1.278   4.360   1.814  0.5417 -0.1314 -0.5094
 6312TIP3    H118900   1.287   4.455   1.823 -1.0761  0.2129 -2.0093
 6312TIP3    H218901   1.234   4.332   1.895  1.2835  0.3432  0.0645
 6313TIP3   OH218902   3.032   1.773   1.182 -0.6591  0.0316  0.3675
 6313TIP3    H118903   3.070   1.801   1.266  1.1378  1.3793 -0.8325
 6313TIP3    H218904   2.939   1.796   1.190 -1.0293 -1.8361  2.7585
 6314TIP3   OH218905   1.867   4.939   4.405  0.1143 -0.0324 -0.5073
 6314TIP3    H118906   1.955   4.918   4.374 -0.0091 -0.2836 -0.6890
 6314TIP3    H218907   1.851   5.029   4.376  0.2954 -0.0016 -0.5084
 6315TIP3   OH218908   4.416   1.376   0.145 -0.7108 -0.0864  0.4794
 6315TIP3    H118909   4.359   1.397   0.219 -0.3104  0.2545  0.6965
 6315TIP3    H218910   4.498   1.422   0.164 -0.7821  0.4546 -0.4386
 6316TIP3   OH218911   6.149   6.318   1.036  0.6070  0.1714 -0.0860
 6316TIP3    H118912   6.173   6.235   1.076 -1.1501 -0.7808 -0.9386
 6316TIP3    H218913   6.083   6.355   1.095  2.1699  1.5719  0.8981
 6317TIP3   OH218914   4.031   5.417   4.720 -0.1443  0.0593  0.3897
 6317TIP3    H118915   4.069   5.458   4.797  1.3897 -1.1914  0.3734
 6317TIP3    H218916   4.019   5.489   4.658  0.6836  0.7648  1.0168
 6318TIP3   OH218917   1.858   4.333   4.644 -0.0529 -0.5675 -0.2260
 6318TIP3    H118918   1.947   4.300   4.650 -0.2393 -1.1773 -0.6694
 6318TIP3    H218919   1.865   4.412   4.591  0.2561 -0.4893 -0.0667
 6319TIP3   OH218920   6.130   5.856   4.024  0.1231 -0.4718 -0.2469
 6319TIP3    H118921   6.182   5.926   4.062 -0.7650 -0.3257  0.7666
 6319TIP3    H218922   6.194   5.793   3.992  1.0010  1.4514 -2.5946
 6320TIP3   OH218923   5.410   2.116   0.503 -0.4222  0.1377  0.4864
 6320TIP3    H118924   5.341   2.151   0.559  0.7633  0.9717  1.4821
 6320TIP3    H218925   5.423   2.184   0.436 -0.9076 -0.2552 -0.0180
 6321TIP3   OH218926   1.308   1.044   3.820 -0.1477 -0.3011 -0.1447
 6321TIP3    H118927   1.229   1.056   3.872  0.0074 -1.7701  0.5018
 6321TIP3    H218928   1.363   0.986   3.873  1.6494  1.1860 -0.2902
 6322TIP3   OH218929   3.147   1.739   1.860 -0.0413 -0.0271 -0.6095
 6322TIP3    H118930   3.188   1.679   1.798  0.5558  1.0923 -1.3054
 6322TIP3    H218931   3.212   1.750   1.929 -0.6467 -1.1521  0.1869
 6323TIP3   OH218932   0.699   3.527   2.397 -0.0122  0.1634 -0.9616
 6323TIP3    H118933   0.631   3.574   2.348 -0.7965  0.3075  0.2271
 6323TIP3    H218934   0.780   3.545   2.349 -0.4827  1.7372 -1.2318
 6324TIP3   OH218935   0.772   0.095   1.860 -0.4301 -0.6177 -0.0829
 6324TIP3    H118936   0.715   0.167   1.887  0.1025 -0.2470  0.0519
 6324TIP3    H218937   0.861   0.126   1.876 -0.1463 -0.8335 -1.1826
 6325TIP3   OH218938   5.792   4.380   2.977  0.3911  0.1100  0.8930
 6325TIP3    H118939   5.768   4.318   3.047  0.1357  0.4525  1.1112
 6325TIP3    H218940   5.728   4.364   2.908 -0.2249  0.7308  1.3045
 6326TIP3   OH218941   5.153   4.087   3.792 -0.1637 -0.1726 -0.3535
 6326TIP3    H118942   5.201   4.031   3.732 -0.0163 -0.3597 -0.0621
 6326TIP3    H218943   5.071   4.040   3.808 -0.2937 -0.0247 -0.5651
 6327TIP3   OH218944   6.777   0.732   2.369 -0.6969 -0.0055  0.5502
 6327TIP3    H118945   6.807   0.812   2.326  0.5703 -0.2854  0.8684
 6327TIP3    H218946   6.725   0.687   2.302  1.8908 -0.8175 -1.0312
 6328TIP3   OH218947   0.158   4.665   2.564 -1.0546 -0.4456 -0.0193
 6328TIP3    H118948   0.102   4.725   2.513  1.0318 -0.0243 -2.0236
 6328TIP3    H218949   0.201   4.722   2.628 -2.3160 -0.6471  1.0475
 6329TIP3   OH218950   3.232   2.117   2.022  0.3877  0.6740 -0.1298
 6329TIP3    H118951   3.271   2.030   2.030  1.4151  1.0527 -0.8643
 6329TIP3    H218952   3.259   2.163   2.102  0.1239  0.4365  0.0991
 6330TIP3   OH218953   5.565   0.807   0.839  0.7125  0.4419 -0.0824
 6330TIP3    H118954   5.506   0.875   0.805 -1.8015 -1.1580  0.7964
 6330TIP3    H218955   5.611   0.850   0.911  2.4563  2.4076 -2.1860
 6331TIP3   OH218956   2.634   1.550   2.312  0.4758 -0.2360 -0.1257
 6331TIP3    H118957   2.607   1.635   2.347 -1.9671 -0.2202 -1.8057
 6331TIP3    H218958   2.715   1.530   2.359 -0.9582  1.1295  3.2767
 6332TIP3   OH218959   2.493   0.773   2.086  0.0931 -0.0608  0.0672
 6332TIP3    H118960   2.480   0.859   2.126  0.3784 -0.3734  0.8529
 6332TIP3    H218961   2.458   0.711   2.150  1.5691 -0.6450  0.3511
 6333TIP3   OH218962   4.030   4.765   5.113 -0.1261  0.1042 -0.1029
 6333TIP3    H118963   4.008   4.762   5.020 -0.6192  2.7130 -0.1589
 6333TIP3    H218964   4.108   4.821   5.117 -1.7972  2.5205  1.1979
 6334TIP3   OH218965   1.187   5.511   3.727 -0.1638  0.9798 -0.2265
 6334TIP3    H118966   1.246   5.480   3.657 -0.8648 -0.1305 -0.3433
 6334TIP3    H218967   1.189   5.441   3.792 -1.6672  0.7271 -0.4205
 6335TIP3   OH218968   5.895   4.582   5.403  0.1684  0.3172  0.4197
 6335TIP3    H118969   5.897   4.498   5.448  2.0455 -0.6010 -1.2273
 6335TIP3    H218970   5.827   4.571   5.336  1.3037 -0.3918 -0.6410
 6336TIP3   OH218971   0.603   0.229   4.834 -0.5018 -0.3506  0.2878
 6336TIP3    H118972   0.575   0.246   4.924  1.0344  1.4980  0.4849
 6336TIP3    H218973   0.609   0.316   4.794  0.0650 -1.0482 -1.2450
 6337TIP3   OH218974   0.075   1.083   5.521  0.0299 -0.5219 -0.1899
 6337TIP3    H118975   0.059   1.061   5.430 -0.2130  1.8761 -0.7792
 6337TIP3    H218976  -0.012   1.092   5.560  0.0948  0.3896 -0.2401
 6338TIP3   OH218977   0.917   3.383   4.779 -0.2850 -0.3248 -0.1362
 6338TIP3    H118978   0.971   3.377   4.859 -0.0326  0.2085 -0.2596
 6338TIP3    H218979   0.958   3.453   4.729 -1.3825  0.4149 -0.0243
 6339TIP3   OH218980   3.240   5.651   0.158  0.1377 -0.2859  0.3907
 6339TIP3    H118981   3.176   5.621   0.094  0.7584 -1.1162  0.1412
 6339TIP3    H218982   3.195   5.718   0.208 -1.4475 -1.9452  1.2748
 6340TIP3   OH218983   1.662   2.982   5.729  0.3913 -0.0452 -0.1973
 6340TIP3    H118984   1.681   3.075   5.715 -0.9657  0.3576  0.4499
 6340TIP3    H218985   1.588   2.963   5.671  0.1637 -0.5155  0.2345
 6341TIP3   OH218986   5.763   2.556   1.495 -0.6238  0.2480 -0.4149
 6341TIP3    H118987   5.713   2.475   1.484 -0.6898  0.4143 -1.5130
 6341TIP3    H218988   5.703   2.616   1.539  0.7434 -1.5071  4.4143
 6342TIP3   OH218989   6.970   2.724   5.196  0.4964 -0.1920  0.0216
 6342TIP3    H118990   6.924   2.770   5.126 -0.4025 -0.4535  0.4373
 6342TIP3    H218991   6.965   2.632   5.172 -0.4173 -0.3479  0.7679
 6343TIP3   OH218992   5.157   4.489   5.521 -0.0150  0.0824 -0.3484
 6343TIP3    H118993   5.200   4.448   5.596 -0.5840 -0.8830 -0.5262
 6343TIP3    H218994   5.223   4.547   5.484  0.8780 -0.7862 -0.1695
 6344TIP3   OH218995   6.339   3.947   0.417 -0.4239 -0.0429  0.2316
 6344TIP3    H118996   6.329   3.927   0.510  0.0832  0.2862  0.3585
 6344TIP3    H218997   6.409   4.012   0.414 -1.3842  0.9976 -0.2602
 6345TIP3   OH218998   3.630   5.864   0.233 -0.0624 -0.8696  0.3346
 6345TIP3    H118999   3.696   5.826   0.175 -0.5649  0.7627 -1.4326
 6345TIP3    H219000   3.546   5.829   0.201 -0.3793  0.3436 -0.2222
 6346TIP3   OH219001   0.806   2.325   2.762  0.4110  0.5884 -1.3817
 6346TIP3    H119002   0.860   2.333   2.841 -0.8984 -0.4083 -0.3211
 6346TIP3    H219003   0.719   2.351   2.791 -1.0674 -3.6070 -1.2574
 6347TIP3   OH219004   0.970   1.677   3.563  0.0233 -0.0372  0.3246
 6347TIP3    H119005   0.955   1.755   3.616  0.7297  0.5081 -0.2575
 6347TIP3    H219006   0.884   1.635   3.557 -0.1685  0.1821  1.4425
 6348TIP3   OH219007   4.036   6.271   4.678  0.4183  0.3049  0.7625
 6348TIP3    H119008   4.006   6.272   4.587  0.9895 -0.2118  0.5661
 6348TIP3    H219009   3.974   6.329   4.724 -0.2858  0.0352  0.1788
 6349TIP3   OH219010   4.739   3.448   1.292 -0.3743 -0.3334  0.0183
 6349TIP3    H119011   4.766   3.365   1.332  2.6075 -0.0204 -1.0733
 6349TIP3    H219012   4.742   3.431   1.198 -0.7538  0.7192 -0.1936
 6350TIP3   OH219013   2.399   4.956   0.658  0.0765 -0.1004 -0.1755
 6350TIP3    H119014   2.468   4.940   0.723 -0.0342 -0.1371 -0.0661
 6350TIP3    H219015   2.349   5.029   0.694 -0.0962 -0.2411 -0.1299
 6351TIP3   OH219016   4.128   6.664   1.337  0.0090 -0.1433  0.2002
 6351TIP3    H119017   4.223   6.670   1.331  0.0008  1.4440  1.1189
 6351TIP3    H219018   4.109   6.571   1.322  1.6364 -0.3886 -0.5762
 6352TIP3   OH219019   6.063   3.922   3.355  0.0431 -0.3276 -0.2062
 6352TIP3    H119020   6.055   3.828   3.367  0.0250 -0.1530  1.3083
 6352TIP3    H219021   6.158   3.938   3.356  0.0654 -0.3590 -0.8890
 6353TIP3   OH219022   5.351   0.883   0.044  0.0389  0.0879  0.1594
 6353TIP3    H119023   5.263   0.910   0.018  0.1520  0.2881 -0.0114
 6353TIP3    H219024   5.340   0.848   0.132  0.0270  1.4058  0.6895
 6354TIP3   OH219025   4.460   3.516   2.687 -0.2360  0.2518 -0.5046
 6354TIP3    H119026   4.479   3.423   2.701 -2.4991 -0.0105  1.4865
 6354TIP3    H219027   4.531   3.562   2.731 -0.0827 -0.5631  0.1369
 6355TIP3   OH219028   4.404   0.108   5.105  0.0208 -0.2854  0.1441
 6355TIP3    H119029   4.328   0.052   5.120  0.1195 -1.2621 -2.4533
 6355TIP3    H219030   4.379   0.193   5.142 -1.7576 -0.9569  0.5989
 6356TIP3   OH219031   0.782   1.047   0.855 -0.6841 -0.7569  0.8548
 6356TIP3    H119032   0.851   1.036   0.920 -0.6603  1.1515  1.2019
 6356TIP3    H219033   0.781   0.964   0.807 -0.4903 -2.0940  3.0395
 6357TIP3   OH219034   6.758   0.268   0.837 -0.3868 -0.0080  0.3037
 6357TIP3    H119035   6.743   0.283   0.930 -0.5152  1.1591  0.1003
 6357TIP3    H219036   6.785   0.353   0.802  0.9923 -0.7211 -0.4720
 6358TIP3   OH219037   4.831   1.588   1.616  0.3673 -0.2194  0.1560
 6358TIP3    H119038   4.885   1.649   1.667  1.1985  0.6118 -1.6253
 6358TIP3    H219039   4.877   1.504   1.623  0.9476  0.0851  0.0926
 6359TIP3   OH219040   1.986   4.066   1.684  0.4037  0.5334  0.5626
 6359TIP3    H119041   2.019   4.130   1.622 -3.1719  0.5167 -1.6181
 6359TIP3    H219042   1.990   3.982   1.637 -0.7555  0.2288  0.9613
 6360TIP3   OH219043   2.821   5.575   5.014  0.3840  0.5203 -0.3997
 6360TIP3    H119044   2.849   5.571   5.105  0.5186 -0.1145 -0.4609
 6360TIP3    H219045   2.858   5.656   4.980  3.3344 -0.8638 -0.8543
 6361TIP3   OH219046   0.417   2.682   3.483  0.1750 -0.3529 -0.3649
 6361TIP3    H119047   0.383   2.645   3.402  1.4609 -0.1028 -1.0576
 6361TIP3    H219048   0.506   2.647   3.489 -0.1378 -0.9611  1.3458
 6362TIP3   OH219049   3.020   5.152   2.352  0.1514  0.7146  0.7701
 6362TIP3    H119050   2.931   5.164   2.386 -0.1218 -0.4307  0.4850
 6362TIP3    H219051   3.030   5.222   2.287 -0.9863  0.1183 -0.0727
 6363TIP3   OH219052   2.158   0.183   5.153 -0.0075 -0.0489 -0.1193
 6363TIP3    H119053   2.180   0.246   5.220 -1.6361 -0.4917  0.8964
 6363TIP3    H219054   2.083   0.222   5.107  0.6001 -0.0994 -1.1883
 6364TIP3   OH219055   3.380   6.716   5.596  0.2970 -0.1326  0.2561
 6364TIP3    H119056   3.376   6.730   5.501  1.2927 -1.2121  0.0326
 6364TIP3    H219057   3.293   6.683   5.619  0.5567 -1.4661 -0.5749
 6365TIP3   OH219058   3.888   3.939   0.904  0.0787  0.5260 -0.4455
 6365TIP3    H119059   3.957   4.006   0.909  1.8651 -1.1606 -1.2037
 6365TIP3    H219060   3.876   3.925   0.810  0.9087 -1.2945 -0.3268
 6366TIP3   OH219061   4.414   0.128   3.651  0.1161  0.3841 -0.0807
 6366TIP3    H119062   4.410   0.200   3.589 -0.0785  1.3051  0.9712
 6366TIP3    H219063   4.328   0.085   3.642  0.5641 -0.2947 -1.3481
 6367TIP3   OH219064   4.395   2.885   2.528  0.1872 -0.0633 -0.2027
 6367TIP3    H119065   4.441   2.810   2.566  0.8660  0.3171 -0.2667
 6367TIP3    H219066   4.307   2.852   2.510  0.2425 -0.6157  0.5012
 6368TIP3   OH219067   2.854   6.684   3.622 -0.2065  0.4735  0.4042
 6368TIP3    H119068   2.809   6.600   3.635  0.0486  0.4794  1.3943
 6368TIP3    H219069   2.805   6.746   3.676  0.4949  0.6433  0.8657
 6369TIP3   OH219070   2.184   4.416   5.812 -0.4249  0.1764  0.5459
 6369TIP3    H119071   2.166   4.507   5.837 -0.7785  1.1126 -2.6115
 6369TIP3    H219072   2.257   4.423   5.750  1.3019 -2.0426  2.1577
 6370TIP3   OH219073   5.469   5.485   3.553 -0.0772 -0.0233  0.1566
 6370TIP3    H119074   5.555   5.524   3.539  0.1859  0.2798  2.2750
 6370TIP3    H219075   5.411   5.534   3.495  0.9059  0.9313 -0.0540
 6371TIP3   OH219076   2.885   0.452   1.640 -0.5920  0.1566  0.3094
 6371TIP3    H119077   2.795   0.419   1.641 -0.0653 -1.4647 -1.2787
 6371TIP3    H219078   2.911   0.452   1.732 -1.6769 -0.9529  0.6432
 6372TIP3   OH219079   6.676   6.290   2.508 -0.4682 -0.0535  0.3904
 6372TIP3    H119080   6.697   6.273   2.416  1.0507  0.6238  0.5825
 6372TIP3    H219081   6.761   6.307   2.549 -1.1507 -0.0785  1.8680
 6373TIP3   OH219082   2.322   5.276   3.110 -0.2757  0.4125  0.1075
 6373TIP3    H119083   2.398   5.236   3.068  0.2970  2.2252 -0.7039
 6373TIP3    H219084   2.253   5.210   3.104  0.9957 -0.9688  0.1482
 6374TIP3   OH219085   6.150   1.738   3.061 -0.5180  0.3268  0.0339
 6374TIP3    H119086   6.059   1.726   3.086 -0.7232  3.1121  1.0247
 6374TIP3    H219087   6.200   1.719   3.140 -0.4259  0.6062  0.0472
 6375TIP3   OH219088   0.772   0.271   1.652  0.1096  0.1934 -0.1725
 6375TIP3    H119089   0.770   0.190   1.703  0.7461 -0.3769 -1.0256
 6375TIP3    H219090   0.811   0.245   1.569  0.1941  1.3571 -0.5012
 6376TIP3   OH219091   7.059   1.768   4.143  0.5086  0.2355  0.5807
 6376TIP3    H119092   7.058   1.682   4.184 -0.2668 -1.0060 -1.8417
 6376TIP3    H219093   7.083   1.751   4.051 -0.5795  2.4873 -0.2055
 6377TIP3   OH219094   1.595   1.115   5.504 -0.5964  0.4166 -0.6280
 6377TIP3    H119095   1.631   1.181   5.444  0.2159  0.7875  0.2363
 6377TIP3    H219096   1.500   1.128   5.499 -0.4149  2.4748  0.4025
 6378TIP3   OH219097   1.653   5.212   4.230  0.3770  0.4275  0.3283
 6378TIP3    H119098   1.618   5.155   4.162  1.3896 -0.2425  0.3528
 6378TIP3    H219099   1.745   5.188   4.237  1.3887  3.4343 -1.0556
 6379TIP3   OH219100   5.267   4.493   1.391  0.0025  0.3995 -0.1438
 6379TIP3    H119101   5.277   4.453   1.477  0.5939 -0.2915 -0.5186
 6379TIP3    H219102   5.338   4.557   1.386  0.8797 -0.5839 -0.6610
 6380TIP3   OH219103   2.751   0.684   2.066 -0.0054 -0.2360  0.3237
 6380TIP3    H119104   2.777   0.677   2.158  1.4166  1.3926  0.0963
 6380TIP3    H219105   2.665   0.726   2.069  0.9276  1.7268  0.8926
 6381TIP3   OH219106   2.049   0.672   3.115  0.6953 -0.2985  0.4506
 6381TIP3    H119107   2.022   0.601   3.173  1.1807  1.0560  2.4491
 6381TIP3    H219108   1.967   0.710   3.083  0.2966  0.3893  2.1695
 6382TIP3   OH219109   1.383   5.225   5.248 -0.1694  0.1739  0.3827
 6382TIP3    H119110   1.394   5.173   5.327 -0.0725 -3.4376 -1.7506
 6382TIP3    H219111   1.467   5.268   5.235  0.1813 -0.1015  1.6446
 6383TIP3   OH219112   3.178   1.956   3.468 -0.1568 -0.3506  0.2145
 6383TIP3    H119113   3.124   1.900   3.412  0.1136 -0.6651  0.2636
 6383TIP3    H219114   3.268   1.926   3.452 -0.1502 -1.1900  1.6178
 6384TIP3   OH219115   4.651   3.991   4.506 -0.1487  0.0426 -0.4234
 6384TIP3    H119116   4.590   4.032   4.568 -0.9128 -2.9373  0.9739
 6384TIP3    H219117   4.595   3.953   4.438  0.4991  0.8517 -1.4358
 6385TIP3   OH219118   4.089   5.866   5.336  0.3741 -0.2777  0.4096
 6385TIP3    H119119   4.155   5.922   5.376  0.6549 -0.5980  0.3961
 6385TIP3    H219120   4.063   5.806   5.406 -1.1315  0.9160  0.9253
 6386TIP3   OH219121   0.476   4.514   2.211  0.4274  0.2081  0.6729
 6386TIP3    H119122   0.562   4.493   2.247  1.3291  2.0371 -0.2931
 6386TIP3    H219123   0.485   4.603   2.177 -1.7440  0.3008  0.1938
 6387TIP3   OH219124   5.013   4.325   3.776 -0.5193 -0.6975 -0.1859
 6387TIP3    H119125   4.974   4.334   3.864  3.3270  0.4762  1.6378
 6387TIP3    H219126   5.072   4.250   3.783 -1.1755 -1.4865 -2.3125
 6388TIP3   OH219127   4.180   3.795   3.748  0.9873  0.2007  0.0557
 6388TIP3    H119128   4.253   3.739   3.773 -0.9099 -1.6092  1.9616
 6388TIP3    H219129   4.138   3.817   3.830 -0.5052  1.3421 -0.9695
 6389TIP3   OH219130   4.018   2.226   1.016 -0.0326 -0.1288  0.5890
 6389TIP3    H119131   4.035   2.225   0.922 -0.4672 -0.0437  0.5073
 6389TIP3    H219132   4.100   2.198   1.056  1.2038  2.6987  0.3297
 6390TIP3   OH219133   5.187   1.113   3.512  0.3069 -0.2308  0.2904
 6390TIP3    H119134   5.092   1.110   3.515  0.3301 -0.5692  0.8721
 6390TIP3    H219135   5.208   1.140   3.423 -0.3274 -0.4380  0.0776
 6391TIP3   OH219136   1.860   3.819   5.588 -0.5873  0.1793 -0.4006
 6391TIP3    H119137   1.767   3.796   5.592 -0.2529 -1.1008  0.9369
 6391TIP3    H219138   1.866   3.901   5.636 -0.9331 -0.1016  0.1311
 6392TIP3   OH219139   3.531   0.777   0.695 -0.1174  0.2608  0.3343
 6392TIP3    H119140   3.600   0.828   0.652 -0.8185  1.5041  0.6194
 6392TIP3    H219141   3.465   0.765   0.626  0.2845 -0.7541  0.1163
 6393TIP3   OH219142   0.694   2.832   5.090 -0.2179  0.0529  0.0411
 6393TIP3    H119143   0.758   2.897   5.120  3.6051 -3.6898  1.0354
 6393TIP3    H219144   0.639   2.816   5.166  0.9036 -0.0699  0.8638
 6394TIP3   OH219145   5.467   0.332   5.484 -0.1866  0.4671  0.4236
 6394TIP3    H119146   5.454   0.426   5.500 -2.4845  0.4487 -0.8462
 6394TIP3    H219147   5.393   0.290   5.528  0.0202 -0.5953 -0.2095
 6395TIP3   OH219148   4.745   5.673   2.048  0.5587  0.2370 -0.1182
 6395TIP3    H119149   4.794   5.754   2.063  1.8766 -0.8790  2.2365
 6395TIP3    H219150   4.724   5.642   2.136  0.1123 -1.9775 -0.9570
 6396TIP3   OH219151   1.600   3.484   5.454 -0.1865 -0.5161 -0.2619
 6396TIP3    H119152   1.628   3.415   5.515 -1.1893  1.1791  2.2683
 6396TIP3    H219153   1.682   3.515   5.414  0.4208 -2.1636 -0.3874
 6397TIP3   OH219154   4.512   6.116   5.623 -0.1236  0.6713  0.1987
 6397TIP3    H119155   4.543   6.144   5.709  0.9914  0.7946 -0.2306
 6397TIP3    H219156   4.570   6.160   5.561  0.4948 -1.0751 -0.5391
 6398TIP3   OH219157   3.902   1.346   4.469  0.4787  0.7234  0.7800
 6398TIP3    H119158   3.868   1.412   4.530 -1.2425 -0.6081  1.3622
 6398TIP3    H219159   3.823   1.310   4.429  1.2445 -1.8302  1.4074
 6399TIP3   OH219160   5.197   3.036   5.802 -0.6178 -0.1961  0.1209
 6399TIP3    H119161   5.262   2.966   5.811 -0.3010 -0.0422 -0.8536
 6399TIP3    H219162   5.127   2.998   5.750 -0.1607  0.3722 -0.9518
 6400TIP3   OH219163   2.992   5.886   4.016  0.1993 -0.1078  0.3398
 6400TIP3    H119164   3.056   5.817   4.031 -0.2370 -0.5526  0.1997
 6400TIP3    H219165   3.044   5.962   3.989  0.6294 -0.5959 -0.2352
 6401TIP3   OH219166   0.862   5.872   4.033  0.0635 -0.1913 -0.4033
 6401TIP3    H119167   0.769   5.886   4.048  0.4609  1.2279  1.0831
 6401TIP3    H219168   0.904   5.899   4.115  1.8616  0.3452 -1.4255
 6402TIP3   OH219169   2.281   0.619   3.977  0.3276  0.1756  0.2548
 6402TIP3    H119170   2.353   0.563   4.008  0.9692  1.3076  0.8490
 6402TIP3    H219171   2.284   0.610   3.882  1.5870  0.5969  0.2361
 6403TIP3   OH219172   3.537   3.088   5.790 -0.4691  0.1036  0.0326
 6403TIP3    H119173   3.585   3.008   5.769  1.2351  0.8827  0.7615
 6403TIP3    H219174   3.447   3.058   5.808  0.2928 -1.7519  1.0301
 6404TIP3   OH219175   3.556   3.540   5.532 -0.0424 -0.0317 -0.0608
 6404TIP3    H119176   3.617   3.484   5.483 -1.6655 -0.7992 -1.2930
 6404TIP3    H219177   3.496   3.480   5.574  0.6516  0.6727  2.0930
 6405TIP3   OH219178   0.227   2.590   0.124 -0.5875  0.8483 -0.1568
 6405TIP3    H119179   0.265   2.619   0.042 -0.2072  0.6245 -0.0602
 6405TIP3    H219180   0.248   2.660   0.186  0.5121  0.2816  0.1264
 6406TIP3   OH219181   6.384   0.326   0.861  0.3277  0.9939 -0.3117
 6406TIP3    H119182   6.289   0.321   0.874  0.1169  1.5070 -1.4434
 6406TIP3    H219183   6.417   0.241   0.890 -0.5877  0.5123 -0.6276
 6407TIP3   OH219184   4.712   0.034   5.319  0.2039 -0.1843  1.0068
 6407TIP3    H119185   4.696   0.113   5.267 -1.5968  0.0239  1.8105
 6407TIP3    H219186   4.625  -0.004   5.333  1.0034 -2.2245  0.8037
 6408TIP3   OH219187   3.281   6.762   3.271  0.1093  0.1706 -0.1436
 6408TIP3    H119188   3.260   6.677   3.308  0.7515  0.3891  0.7360
 6408TIP3    H219189   3.270   6.824   3.343  0.4581  0.7304 -0.5589
 6409TIP3   OH219190   4.289   5.276   4.379 -0.0679  0.7333 -0.4060
 6409TIP3    H119191   4.327   5.284   4.291 -0.4102  0.8289 -0.5441
 6409TIP3    H219192   4.307   5.360   4.421  0.3269  0.5940 -0.2930
 6410TIP3   OH219193   2.456   6.156   5.615  0.2289 -0.4313 -0.2837
 6410TIP3    H119194   2.405   6.151   5.534  0.1382 -2.3307 -0.1627
 6410TIP3    H219195   2.460   6.065   5.646 -0.1966  0.3033  2.1378
 6411TIP3   OH219196   3.156   3.036   0.034 -0.0178  0.5967  0.0260
 6411TIP3    H119197   3.100   2.989   0.096 -0.3523  1.2941  0.2636
 6411TIP3    H219198   3.244   3.003   0.051 -0.1802  0.4239  0.5402
 6412TIP3   OH219199   0.379   5.938   5.152 -0.5210 -0.1452  0.1250
 6412TIP3    H119200   0.320   6.002   5.113 -2.0388 -1.7757 -0.4034
 6412TIP3    H219201   0.328   5.898   5.223 -0.7914 -2.8073 -1.4308
 6413TIP3   OH219202   6.900   0.730   5.065 -0.2100  0.4503  0.5721
 6413TIP3    H119203   6.830   0.728   5.000 -0.5597 -0.6528  0.9681
 6413TIP3    H219204   6.915   0.639   5.088  0.9744  0.7142  0.9162
 6414TIP3   OH219205   2.382   2.820   5.298  0.2610 -0.3423  0.1306
 6414TIP3    H119206   2.447   2.844   5.232  1.3648  1.8162  1.8762
 6414TIP3    H219207   2.434   2.796   5.375 -0.9952 -0.8071  0.8643
 6415TIP3   OH219208   7.079   4.565   3.944  0.2192 -0.0663  0.1160
 6415TIP3    H119209   7.153   4.626   3.935  0.7146 -0.5172  0.9942
 6415TIP3    H219210   7.002   4.616   3.919  0.6976  0.7458  0.2677
 6416TIP3   OH219211   2.731   2.388   3.865  0.1287  0.6399  0.1533
 6416TIP3    H119212   2.750   2.465   3.813  2.3989  0.8985  1.2452
 6416TIP3    H219213   2.803   2.327   3.847 -3.0049 -2.6405 -2.9719
 6417TIP3   OH219214   1.174   0.790   0.048 -0.1121  0.2279  0.1861
 6417TIP3    H119215   1.223   0.799  -0.033  0.9014 -0.0245  0.7431
 6417TIP3    H219216   1.128   0.873   0.059  0.1968  0.4712 -0.3606
 6418TIP3   OH219217   2.560   3.105   2.049  0.1776 -0.7471  0.2881
 6418TIP3    H119218   2.555   3.028   2.107 -0.1396 -1.1721 -0.2992
 6418TIP3    H219219   2.536   3.178   2.106  1.4988 -0.9341  1.1218
 6419TIP3   OH219220   4.195   1.308   1.252 -0.1748 -0.0741 -0.7894
 6419TIP3    H119221   4.235   1.221   1.255  0.9181  0.3751 -1.7441
 6419TIP3    H219222   4.250   1.362   1.308 -0.3277  0.2143 -0.9145
 6420TIP3   OH219223   5.680   3.893   2.459 -0.0295 -0.2753  0.1150
 6420TIP3    H119224   5.585   3.901   2.465  0.0013 -0.6723  1.5927
 6420TIP3    H219225   5.705   3.952   2.388 -1.2491  0.9223  0.6318
 6421TIP3   OH219226   0.367   4.016   5.193 -0.2815  0.1727 -0.8048
 6421TIP3    H119227   0.326   4.096   5.160 -1.6271 -0.4471 -0.6918
 6421TIP3    H219228   0.324   3.945   5.146  1.7030 -0.4852 -1.7495
 6422TIP3   OH219229   3.751   3.202   2.346  0.3999 -0.0318  0.6260
 6422TIP3    H119230   3.719   3.204   2.437  0.9314 -1.7812  0.8893
 6422TIP3    H219231   3.841   3.233   2.352  0.3903 -0.0115  0.6706
 6423TIP3   OH219232   5.310   2.209   5.539  0.6512  0.1529 -0.1078
 6423TIP3    H119233   5.315   2.234   5.447  0.4554 -0.3218 -0.2487
 6423TIP3    H219234   5.376   2.141   5.549  1.6159  1.1265  0.4153
 6424TIP3   OH219235   0.107   0.708   1.291 -0.1107  0.6453 -0.0543
 6424TIP3    H119236   0.013   0.704   1.304 -0.1689  0.5632 -0.4957
 6424TIP3    H219237   0.137   0.618   1.299  0.1397  0.8325  1.5561
 6425TIP3   OH219238   2.706   2.406   2.014 -0.0973 -0.0666 -0.8379
 6425TIP3    H119239   2.786   2.376   1.971  1.7633  0.7339  1.8054
 6425TIP3    H219240   2.710   2.502   2.009  1.0937  0.1551  2.4008
 6426TIP3   OH219241   6.646   1.571   4.215  0.1739  0.1102  0.0723
 6426TIP3    H119242   6.673   1.480   4.204  0.0792  0.2634 -1.6514
 6426TIP3    H219243   6.723   1.614   4.252  0.6514 -0.4127 -0.3053
 6427TIP3   OH219244   5.605   2.883   4.728  0.3199  0.3501 -0.3201
 6427TIP3    H119245   5.544   2.820   4.768  0.7585 -0.5353 -1.0377
 6427TIP3    H219246   5.596   2.962   4.783 -1.4025  0.2151 -0.3550
 6428TIP3   OH219247   5.288   6.001   3.177  0.2435 -0.6125 -0.2567
 6428TIP3    H119248   5.214   5.978   3.121  0.5105 -0.8655 -0.5082
 6428TIP3    H219249   5.248   6.028   3.260 -0.1581 -0.1964 -0.5777
 6429TIP3   OH219250   0.215   1.009   2.952  0.6801 -0.0927  0.2551
 6429TIP3    H119251   0.228   0.988   3.044 -0.5072  0.5405  0.5920
 6429TIP3    H219252   0.303   1.020   2.917  1.1474  1.6230  1.8037
 6430TIP3   OH219253   1.272   4.691   5.386 -0.9152  0.4959 -0.2850
 6430TIP3    H119254   1.349   4.705   5.440 -0.2934  1.8183 -1.4369
 6430TIP3    H219255   1.218   4.629   5.435 -0.1762  1.2824  1.5984
 6431TIP3   OH219256   3.379   4.392   4.230 -0.3995 -0.2588  0.1030
 6431TIP3    H119257   3.387   4.381   4.135 -1.0348  3.2525 -0.4964
 6431TIP3    H219258   3.469   4.400   4.262 -0.1249 -2.4129  0.0510
 6432TIP3   OH219259   5.923   3.682   2.013  0.7055  0.6062 -0.6770
 6432TIP3    H119260   5.843   3.630   2.015  0.1471  1.4278 -1.0316
 6432TIP3    H219261   5.902   3.756   1.955  0.8376  2.2052  1.2109
 6433TIP3   OH219262   6.901   5.230   5.595 -0.2433  0.4974  0.0994
 6433TIP3    H119263   6.869   5.320   5.588  0.3652  0.6197 -1.3632
 6433TIP3    H219264   6.993   5.234   5.572 -0.3669 -0.5977 -0.6817
 6434TIP3   OH219265   3.939   4.058   2.552 -0.3478  0.4094  0.0918
 6434TIP3    H119266   3.879   4.078   2.624  0.4028 -0.8202  1.0925
 6434TIP3    H219267   3.928   4.131   2.491 -3.8668 -0.3723 -0.4543
 6435TIP3   OH219268   7.086   6.366   5.907 -0.0623  0.4933 -0.6745
 6435TIP3    H119269   7.156   6.329   5.854 -0.8897 -4.2263  1.0692
 6435TIP3    H219270   7.006   6.348   5.857 -0.7124 -2.6789  1.2697
 6436TIP3   OH219271   4.133   4.184   3.666 -0.1772 -0.7289  0.4605
 6436TIP3    H119272   4.155   4.259   3.611  0.4387 -1.5029 -0.3695
 6436TIP3    H219273   4.217   4.145   3.688 -0.3794 -0.2372  2.2760
 6437TIP3   OH219274   0.291   3.177   1.095 -0.0337 -0.3047 -0.2713
 6437TIP3    H119275   0.271   3.257   1.046 -1.5803 -0.5827 -0.1696
 6437TIP3    H219276   0.213   3.163   1.150  0.5485 -1.4412  0.2942
 6438TIP3   OH219277   0.355   3.780   5.839  0.1770  0.0173  0.1637
 6438TIP3    H119278   0.323   3.800   5.926  0.9252  1.8492  0.0688
 6438TIP3    H219279   0.327   3.854   5.785 -1.7103 -1.8410 -1.5850
 6439TIP3   OH219280   4.106   2.147   5.330 -0.3208 -0.1769  0.0796
 6439TIP3    H119281   4.045   2.121   5.261 -0.5422  1.4384 -0.3824
 6439TIP3    H219282   4.080   2.237   5.352  0.2673 -0.3784  1.7036
 6440TIP3   OH219283   1.621   1.856   5.117  0.0899 -0.2547  0.2279
 6440TIP3    H119284   1.546   1.809   5.081 -0.6774  1.0472  0.0928
 6440TIP3    H219285   1.684   1.858   5.045 -0.6793  0.6647 -0.4374
 6441TIP3   OH219286   2.581   6.206   4.855  0.3532 -0.1580 -0.6939
 6441TIP3    H119287   2.583   6.195   4.760 -0.2541  0.6822 -0.8231
 6441TIP3    H219288   2.517   6.276   4.869  0.9269  0.1960  0.2853
 6442TIP3   OH219289   3.916   4.616   3.157  0.1393 -0.1329  0.1603
 6442TIP3    H119290   3.897   4.523   3.154  0.7401 -0.2621  0.1496
 6442TIP3    H219291   4.011   4.621   3.169  0.1921  0.4760 -0.4130
 6443TIP3   OH219292   6.928   1.481   2.151 -0.2595  0.9752  0.8261
 6443TIP3    H119293   6.882   1.399   2.133 -0.2660  0.7908  1.6398
 6443TIP3    H219294   6.902   1.504   2.240 -0.8035  2.2315  0.3686
 6444TIP3   OH219295   0.077   2.564   1.552 -0.2301  0.4185 -0.6975
 6444TIP3    H119296   0.168   2.569   1.580 -0.1571  1.4177 -1.0700
 6444TIP3    H219297   0.026   2.589   1.629 -0.2309 -0.6216 -0.3407
 6445TIP3   OH219298   2.162   0.695   5.710 -0.0119  0.1925  0.3712
 6445TIP3    H119299   2.215   0.617   5.691  0.2820  0.1175  1.4066
 6445TIP3    H219300   2.175   0.710   5.804 -1.5064  0.4290  0.5583
 6446TIP3   OH219301   4.410   2.725   1.443 -0.8735 -0.3600 -0.2824
 6446TIP3    H119302   4.444   2.698   1.358  2.9494  1.4255  0.4591
 6446TIP3    H219303   4.327   2.678   1.452 -0.4543 -2.1799 -4.0574
 6447TIP3   OH219304   1.194   6.348   1.355  0.3368 -0.1173  0.1142
 6447TIP3    H119305   1.154   6.367   1.270 -1.0600 -1.9359  0.3092
 6447TIP3    H219306   1.189   6.430   1.404  0.5486  0.7689 -1.2984
 6448TIP3   OH219307   0.713   5.809   4.658  0.0636  0.2223 -0.4427
 6448TIP3    H119308   0.723   5.894   4.616 -0.4359  0.7691  0.5109
 6448TIP3    H219309   0.620   5.790   4.652  0.2723 -0.6073 -1.2816
 6449TIP3   OH219310   6.263   0.337   0.301 -0.2406 -0.2630  0.7408
 6449TIP3    H119311   6.313   0.355   0.381  0.7465 -1.7255  0.4862
 6449TIP3    H219312   6.299   0.255   0.268 -1.4503 -0.3007 -0.5723
 6450TIP3   OH219313   6.601   1.353   3.214 -0.2428  0.2567 -0.2363
 6450TIP3    H119314   6.672   1.314   3.163 -0.3268  0.3892 -0.4552
 6450TIP3    H219315   6.570   1.427   3.161 -0.3543  0.3740 -0.0114
 6451TIP3   OH219316   2.352   4.445   5.620  0.0314  0.4277 -0.4528
 6451TIP3    H119317   2.354   4.450   5.525  0.4787 -1.5548 -0.5999
 6451TIP3    H219318   2.426   4.387   5.642 -2.2479 -2.2348  0.7871
 6452TIP3   OH219319   5.420   4.778   3.852 -0.2940  0.4756 -0.5291
 6452TIP3    H119320   5.419   4.822   3.767  3.3506 -0.3266 -1.1930
 6452TIP3    H219321   5.471   4.699   3.836  0.2256  0.1456  2.3414
 6453TIP3   OH219322   0.612   6.277   3.751 -0.2768  0.4967  0.0394
 6453TIP3    H119323   0.677   6.339   3.717  0.0159 -0.8721 -2.0238
 6453TIP3    H219324   0.576   6.234   3.674  0.1361 -2.5005  1.3938
 6454TIP3   OH219325   4.119   1.784   3.397 -0.3485 -0.6120  0.3106
 6454TIP3    H119326   4.191   1.841   3.370 -0.6973 -0.3678 -0.1236
 6454TIP3    H219327   4.158   1.722   3.458  0.1377 -0.2133  0.4031
 6455TIP3   OH219328   4.923   5.343   4.342  0.0268 -0.0293 -0.0089
 6455TIP3    H119329   4.977   5.357   4.264 -0.0026  0.7136  0.0986
 6455TIP3    H219330   4.932   5.249   4.361  1.4020  0.1126  0.0987
 6456TIP3   OH219331   5.748   2.035   1.780  0.8244 -0.5399 -0.4510
 6456TIP3    H119332   5.712   1.984   1.853  1.0688 -0.1017 -0.0180
 6456TIP3    H219333   5.814   1.977   1.742  0.6036 -0.8231 -0.4109
 6457TIP3   OH219334   3.382   4.703   1.481 -1.0394  0.2302  0.0117
 6457TIP3    H119335   3.470   4.699   1.517 -0.9144  0.8129 -0.2228
 6457TIP3    H219336   3.377   4.628   1.421 -0.8896 -0.1154  0.4247
 6458TIP3   OH219337   1.958   1.914   5.207  0.1411 -0.5994  0.0788
 6458TIP3    H119338   2.023   1.935   5.141 -0.1958  3.4050  0.7530
 6458TIP3    H219339   1.902   1.848   5.166  2.6963 -1.8170 -1.6888
 6459TIP3   OH219340   4.715   5.761   3.111  0.2804 -0.6488 -0.1990
 6459TIP3    H119341   4.625   5.791   3.104  0.6503  0.3147 -1.0772
 6459TIP3    H219342   4.721   5.720   3.197 -0.8489 -0.2571  0.0731
 6460TIP3   OH219343   1.577   0.689   2.639  0.0351 -0.1908  0.0352
 6460TIP3    H119344   1.588   0.707   2.546 -0.4733 -0.3993 -0.0708
 6460TIP3    H219345   1.549   0.772   2.677  0.0220 -0.1634 -0.0350
 6461TIP3   OH219346   6.761   6.723   1.343 -0.2375  0.1465 -0.3572
 6461TIP3    H119347   6.768   6.629   1.329 -1.2360  0.3858 -2.8313
 6461TIP3    H219348   6.718   6.732   1.428 -2.3779 -1.6997 -1.1713
 6462TIP3   OH219349   3.703   6.239   3.581  0.2881 -0.4018  0.4039
 6462TIP3    H119350   3.763   6.213   3.511 -0.7527 -3.9451  0.6287
 6462TIP3    H219351   3.754   6.231   3.661  0.3976 -0.3032  0.3432
 6463TIP3   OH219352   3.592   5.166   2.250 -0.0823  0.0161  1.1909
 6463TIP3    H119353   3.608   5.072   2.239 -2.5994 -0.3918  0.5299
 6463TIP3    H219354   3.662   5.195   2.309  1.0404 -2.1481  1.0189
 6464TIP3   OH219355   3.467   0.712   5.376  0.1991 -0.2633  0.2834
 6464TIP3    H119356   3.457   0.714   5.281  1.9215 -1.0995  0.0612
 6464TIP3    H219357   3.378   0.697   5.409 -0.3281 -0.5603 -1.2036
 6465TIP3   OH219358   3.882   2.557   2.088 -0.3598 -0.0460  0.7614
 6465TIP3    H119359   3.857   2.473   2.051 -1.3428  1.0991 -1.3445
 6465TIP3    H219360   3.976   2.549   2.103 -0.2932 -1.2686 -0.1236
 6466TIP3   OH219361   4.138   1.298   4.347  0.2272  0.0176 -0.3688
 6466TIP3    H119362   4.049   1.305   4.381  0.1224 -0.3982 -0.5553
 6466TIP3    H219363   4.193   1.328   4.419 -0.0314 -0.2443 -0.0586
 6467TIP3   OH219364   3.379   3.687   0.878  0.7059  0.3851  0.4879
 6467TIP3    H119365   3.443   3.707   0.946  2.0478 -0.4105 -0.4924
 6467TIP3    H219366   3.424   3.706   0.796 -0.6351  0.6383 -0.2203
 6468TIP3   OH219367   6.649   0.577   5.586  0.0126 -0.1590  0.1418
 6468TIP3    H119368   6.712   0.604   5.518 -0.3393 -0.7363 -0.4220
 6468TIP3    H219369   6.622   0.660   5.626  2.3453  0.0100  1.5317
 6469TIP3   OH219370   3.081   3.810   0.091  0.2811 -0.2607  0.4376
 6469TIP3    H119371   3.081   3.858   0.009  0.9929 -0.7422  0.1376
 6469TIP3    H219372   3.087   3.877   0.159  2.9386  0.0764 -0.0145
 6470TIP3   OH219373   6.657   4.292   3.646 -0.2585  0.1299 -0.2674
 6470TIP3    H119374   6.600   4.341   3.587 -0.3486 -0.1699 -0.4310
 6470TIP3    H219375   6.609   4.290   3.729 -0.0845  0.6418 -0.1498
 6471TIP3   OH219376   4.308   4.721   4.106  0.4682 -0.3773 -0.2385
 6471TIP3    H119377   4.250   4.660   4.060  0.4180 -0.2067 -0.4038
 6471TIP3    H219378   4.397   4.693   4.082  0.4352  0.1384 -1.0081
 6472TIP3   OH219379   5.459   3.054   4.925 -0.3799 -0.2106 -0.3626
 6472TIP3    H119380   5.491   3.143   4.913 -1.5760  0.3571  0.3989
 6472TIP3    H219381   5.371   3.055   4.887  0.1221 -1.4721 -1.6245
 6473TIP3   OH219382   4.381   4.149   0.364  0.1811 -0.2361  0.2043
 6473TIP3    H119383   4.454   4.087   0.368  0.5683  0.0975 -1.0757
 6473TIP3    H219384   4.413   4.219   0.306 -1.0563  0.0537 -0.1541
 6474TIP3   OH219385   4.497   6.387   4.243  0.1648  0.0027  0.1832
 6474TIP3    H119386   4.486   6.415   4.153  0.3185 -1.6249 -0.3682
 6474TIP3    H219387   4.547   6.458   4.285  1.2134  0.1830 -1.3225
 6475TIP3   OH219388   5.603   1.162   5.832  0.1012 -0.3201  0.6157
 6475TIP3    H119389   5.628   1.070   5.823 -1.2498 -0.6659  0.0494
 6475TIP3    H219390   5.537   1.175   5.764 -0.6344  0.7226  1.4971
 6476TIP3   OH219391   3.786   3.562   0.831  0.8408 -0.3070  0.3305
 6476TIP3    H119392   3.835   3.595   0.907  0.4549  1.4291 -0.1503
 6476TIP3    H219393   3.763   3.640   0.781  0.9567 -1.4102 -1.5188
 6477TIP3   OH219394   3.023   4.250   2.976 -0.9358 -0.1749 -0.2362
 6477TIP3    H119395   2.941   4.216   2.941 -1.0269  0.8906 -1.1248
 6477TIP3    H219396   3.073   4.277   2.898  0.1088 -0.4658  0.3086
 6478TIP3   OH219397   4.392   6.479   2.876  0.4933  0.1196  0.2769
 6478TIP3    H119398   4.359   6.556   2.921 -1.3750 -0.1742 -0.4855
 6478TIP3    H219399   4.367   6.492   2.785  1.3827 -0.7485 -0.1039
 6479TIP3   OH219400   1.336   1.480   5.146 -0.3202 -0.3501 -0.3234
 6479TIP3    H119401   1.328   1.563   5.099  0.2287 -0.3040 -0.3414
 6479TIP3    H219402   1.302   1.499   5.233 -1.6829 -0.5301 -0.7868
 6480TIP3   OH219403   4.192   1.674   4.977  0.2464 -0.2883 -0.0588
 6480TIP3    H119404   4.181   1.678   5.072 -2.1413  0.1386 -0.2941
 6480TIP3    H219405   4.161   1.587   4.953  1.0597 -0.4798 -0.4294
 6481TIP3   OH219406   5.264   0.448   1.408 -0.3329  0.1288  0.1720
 6481TIP3    H119407   5.298   0.359   1.420 -0.0348  0.0791 -0.9682
 6481TIP3    H219408   5.236   0.475   1.496  1.5751 -0.2674  0.9554
 6482TIP3   OH219409   5.350   2.427   3.630 -0.6617  0.0829 -0.4950
 6482TIP3    H119410   5.364   2.516   3.599 -0.6773 -0.3229 -1.7134
 6482TIP3    H219411   5.270   2.398   3.586 -1.3801 -0.1107  0.8686
 6483TIP3   OH219412   5.328   6.280   0.387  0.5131 -0.6312  0.5926
 6483TIP3    H119413   5.392   6.305   0.453 -1.2378  0.2538  2.0488
 6483TIP3    H219414   5.287   6.362   0.360  0.4900 -1.0908 -0.8774
 6484TIP3   OH219415   3.592   1.676   2.676  0.3167  0.2753 -0.1670
 6484TIP3    H119416   3.538   1.640   2.605  0.8089 -1.2349  0.1830
 6484TIP3    H219417   3.558   1.635   2.755  1.4030 -0.0260  0.1596
 6485TIP3   OH219418   5.196   2.269   5.032  0.0085 -0.0206 -0.0765
 6485TIP3    H119419   5.123   2.230   5.080 -0.4900  2.1397  1.0544
 6485TIP3    H219420   5.273   2.223   5.064 -0.6445 -0.8551  0.3382
 6486TIP3   OH219421   3.986   2.659   0.391  0.0208  0.0965 -0.6676
 6486TIP3    H119422   3.973   2.595   0.320  1.7916 -0.9799 -0.1047
 6486TIP3    H219423   4.081   2.666   0.398 -0.1269  2.5483 -0.4283
 6487TIP3   OH219424   1.711   6.431   4.488 -0.4761 -0.4023  0.4836
 6487TIP3    H119425   1.784   6.370   4.481  0.5847  0.5205  2.5246
 6487TIP3    H219426   1.641   6.381   4.529 -1.4596 -1.5774 -2.3679
 6488TIP3   OH219427   4.547   0.577   3.984 -0.1384 -0.5613  0.8431
 6488TIP3    H119428   4.461   0.598   4.022  0.3769  0.9760  1.2426
 6488TIP3    H219429   4.591   0.525   4.052  0.1857  0.8372  1.7445
 6489TIP3   OH219430   1.487   6.500   2.695 -0.1645 -0.1809  0.5360
 6489TIP3    H119431   1.507   6.587   2.729  2.9821 -0.5010 -0.1234
 6489TIP3    H219432   1.505   6.507   2.601 -1.3609 -1.1807  0.2063
 6490TIP3   OH219433   6.680   4.197   2.440  0.7847 -0.4905  0.0759
 6490TIP3    H119434   6.679   4.204   2.535 -1.4739  1.0043  0.0278
 6490TIP3    H219435   6.589   4.177   2.416  0.9292  0.7912 -1.8192
 6491TIP3   OH219436   6.801   4.193   1.321  0.1374  0.1370 -0.2923
 6491TIP3    H119437   6.797   4.134   1.396 -1.1593  0.7378  0.1401
 6491TIP3    H219438   6.891   4.185   1.288  0.6555 -0.3005  1.1805
 6492TIP3   OH219439   6.135   5.297   5.495 -0.3676  0.0038 -0.1262
 6492TIP3    H119440   6.065   5.287   5.431  0.3046 -1.0797 -0.7250
 6492TIP3    H219441   6.216   5.296   5.443  0.1188  0.7956  0.5866
 6493TIP3   OH219442   6.983   0.962   0.675  0.2902 -0.2285 -0.1627
 6493TIP3    H119443   7.053   1.013   0.635 -1.3794  3.0247  0.7664
 6493TIP3    H219444   7.020   0.933   0.759  1.1702 -0.3056 -0.5666
 6494TIP3   OH219445   3.575   5.572   0.586  0.3712  0.6103 -0.9187
 6494TIP3    H119446   3.657   5.533   0.555  0.9610  0.1104  1.0574
 6494TIP3    H219447   3.587   5.666   0.574  0.0674  0.3965 -3.2046
 6495TIP3   OH219448   0.499   1.225   1.192 -0.4755 -0.2673 -0.0740
 6495TIP3    H119449   0.583   1.203   1.232  1.0207  1.7920 -1.8498
 6495TIP3    H219450   0.468   1.302   1.239 -0.5454 -0.0446 -0.4752
 6496TIP3   OH219451   6.530   2.981   4.268  0.5484 -0.4904 -0.4968
 6496TIP3    H119452   6.447   3.016   4.301  1.0120 -0.4251  0.6467
 6496TIP3    H219453   6.563   2.927   4.339  1.9415  0.2305 -0.5648
 6497TIP3   OH219454   5.262   5.242   1.211  0.1480 -0.1172  0.1745
 6497TIP3    H119455   5.243   5.227   1.304  0.1778 -0.0490  0.1914
 6497TIP3    H219456   5.347   5.286   1.211 -0.1806  0.5228  0.1483
 6498TIP3   OH219457   0.830   3.645   0.065  0.4794 -0.3760  0.0548
 6498TIP3    H119458   0.871   3.703   0.002  1.8403 -0.5912  0.7155
 6498TIP3    H219459   0.882   3.654   0.145 -0.1477 -1.4184  0.6171
 6499TIP3   OH219460   0.948   0.874   4.699 -1.0442  0.0086  0.5936
 6499TIP3    H119461   0.987   0.850   4.615  0.5977 -1.6578  1.7463
 6499TIP3    H219462   0.855   0.853   4.690 -1.1529  1.0645 -1.1784
 6500TIP3   OH219463   0.449   4.308   1.016  0.3257 -0.1875 -0.0919
 6500TIP3    H119464   0.422   4.227   1.060 -2.9249  1.4135  1.1071
 6500TIP3    H219465   0.471   4.368   1.087  1.4031  0.4625 -0.9359
 6501TIP3   OH219466   6.622   1.196   4.233 -0.1044 -0.0776 -0.3892
 6501TIP3    H119467   6.639   1.105   4.254  1.4635  0.7236  2.2562
 6501TIP3    H219468   6.584   1.194   4.145 -0.0242 -3.2245 -0.4494
 6502TIP3   OH219469   0.116   5.125   2.724 -0.2435 -0.5993 -0.4912
 6502TIP3    H119470   0.169   5.139   2.802 -0.6256  0.4584 -0.4085
 6502TIP3    H219471   0.062   5.048   2.745 -0.4562 -0.2281  0.3513
 6503TIP3   OH219472   0.161   5.565   3.861  0.1316  0.7119 -0.6177
 6503TIP3    H119473   0.124   5.593   3.945  0.0180 -0.3542 -0.2979
 6503TIP3    H219474   0.145   5.470   3.858  1.2657  0.5199 -1.2657
 6504TIP3   OH219475   2.535   0.814   3.312  0.0867 -0.2309  0.2634
 6504TIP3    H119476   2.572   0.899   3.290  0.1614  0.6921  3.5459
 6504TIP3    H219477   2.455   0.809   3.260  0.8052  1.1517 -1.0716
 6505TIP3   OH219478   4.403   1.431   5.109  0.1301  0.1195 -0.4136
 6505TIP3    H119479   4.457   1.478   5.172 -0.4450  1.7442 -1.0729
 6505TIP3    H219480   4.365   1.359   5.159 -1.0259  1.8640  1.3662
 6506TIP3   OH219481   1.939   3.798   0.852 -0.2881 -0.6202 -0.1795
 6506TIP3    H119482   1.996   3.841   0.915  0.8230 -2.2136 -0.0517
 6506TIP3    H219483   1.980   3.713   0.836 -3.2938 -2.4650  0.9741
 6507TIP3   OH219484   6.422   4.988   2.265 -0.1952  0.1805  0.0537
 6507TIP3    H119485   6.449   4.898   2.246  0.1621 -0.0743  1.6012
 6507TIP3    H219486   6.328   4.981   2.281 -0.2667  0.1798 -0.3570
 6508TIP3   OH219487   4.727   5.211   1.875 -0.2693  0.1000  0.4590
 6508TIP3    H119488   4.793   5.268   1.835 -0.3091 -1.0694 -1.3883
 6508TIP3    H219489   4.770   5.126   1.882 -1.6334 -0.7800 -1.1166
 6509TIP3   OH219490   4.355   6.667   5.457 -0.4166  0.1029 -0.3883
 6509TIP3    H119491   4.384   6.702   5.542  3.3947  1.2385 -1.9682
 6509TIP3    H219492   4.284   6.727   5.430  0.3130  1.5213  0.7133
 6510TIP3   OH219493   5.334   1.678   2.881 -0.1028 -0.3725  0.3729
 6510TIP3    H119494   5.241   1.672   2.862  0.0802 -2.8687 -0.1490
 6510TIP3    H219495   5.343   1.644   2.970  0.2477  0.6405  0.7392
 6511TIP3   OH219496   0.423   2.100   2.552  0.2108 -0.4688  0.1000
 6511TIP3    H119497   0.425   2.127   2.644 -1.5816  0.8414 -0.2029
 6511TIP3    H219498   0.342   2.051   2.543 -0.0128  0.0785 -0.9518
 6512TIP3   OH219499   3.474   5.138   0.297  0.1771  0.2113 -0.6060
 6512TIP3    H119500   3.382   5.159   0.283 -0.0721 -0.9375 -0.7218
 6512TIP3    H219501   3.505   5.107   0.211  1.2013  2.4149 -1.1149
 6513TIP3   OH219502   3.732   4.547   1.055  0.2227 -0.2020  0.0863
 6513TIP3    H119503   3.681   4.599   1.117  0.0272  0.1051 -0.3280
 6513TIP3    H219504   3.689   4.561   0.971  0.1352 -1.0868 -0.0197
 6514TIP3   OH219505   2.214   5.818   3.433 -0.5311  0.7819 -0.4113
 6514TIP3    H119506   2.163   5.814   3.514 -2.0717 -1.2584 -1.3683
 6514TIP3    H219507   2.149   5.807   3.363  0.9849  0.0797 -1.8038
 6515TIP3   OH219508   4.471   3.317   2.985 -0.1879 -0.8432  0.0072
 6515TIP3    H119509   4.514   3.276   2.910 -0.1697 -0.9374  0.0690
 6515TIP3    H219510   4.521   3.397   3.001 -1.2818  0.1492 -1.2420
 6516TIP3   OH219511   5.194   6.405   2.087  0.3569  0.8299  0.2765
 6516TIP3    H119512   5.270   6.455   2.059  0.7436 -0.3302 -0.8200
 6516TIP3    H219513   5.126   6.426   2.023  0.7171 -0.5079 -0.5751
 6517TIP3   OH219514   5.474   3.483   5.429 -0.0031  0.4783  0.2875
 6517TIP3    H119515   5.569   3.481   5.414 -0.1821  1.2309 -1.2110
 6517TIP3    H219516   5.438   3.428   5.359 -0.6689  0.2737  0.7874
 6518TIP3   OH219517   1.697   6.723   2.957 -0.7933 -0.5756  0.8925
 6518TIP3    H119518   1.612   6.746   2.994 -0.9201 -0.2560  0.4031
 6518TIP3    H219519   1.761   6.758   3.020 -1.0012  0.2665  0.6393
 6519TIP3   OH219520   5.339   1.156   0.508  0.0630  0.0506 -0.1781
 6519TIP3    H119521   5.395   1.218   0.463  1.8588 -1.5290 -0.2482
 6519TIP3    H219522   5.250   1.187   0.491  0.8220  1.5368 -1.7271
 6520TIP3   OH219523   0.511   6.041   2.322  0.3030  0.1575 -0.2502
 6520TIP3    H119524   0.449   6.104   2.359  1.5182  1.2488  0.0368
 6520TIP3    H219525   0.583   6.040   2.385  1.4340  0.3847 -1.4898
 6521TIP3   OH219526   4.974   4.410   4.858 -0.3701  0.0306 -0.1933
 6521TIP3    H119527   4.900   4.391   4.916  0.4259  1.4125  1.3717
 6521TIP3    H219528   4.945   4.485   4.806 -0.0622  0.6421  0.4970
 6522TIP3   OH219529   1.228   4.610   1.455  0.4212 -0.5258  0.2168
 6522TIP3    H119530   1.209   4.679   1.518  0.3810  0.2128 -0.5962
 6522TIP3    H219531   1.323   4.598   1.460  0.2854 -1.3128  1.2687
 6523TIP3   OH219532   1.887   1.076   3.601  0.3163 -0.0352 -0.5332
 6523TIP3    H119533   1.861   1.054   3.690  1.6079 -0.1811 -0.1687
 6523TIP3    H219534   1.819   1.136   3.570 -1.2060 -1.4868 -0.1689
 6524TIP3   OH219535   4.445   0.220   2.796 -0.4491 -0.1170  0.4049
 6524TIP3    H119536   4.376   0.164   2.760 -1.0778  0.8556  0.0455
 6524TIP3    H219537   4.441   0.206   2.891 -0.4665 -0.8174  0.3045
 6525TIP3   OH219538   4.674   6.570   2.597  0.1941 -0.8212  0.3458
 6525TIP3    H119539   4.714   6.635   2.539 -1.7150  1.2165  1.1919
 6525TIP3    H219540   4.706   6.593   2.684  0.1862 -1.5862  0.5565
 6526TIP3   OH219541   4.021   3.857   2.742  0.0114 -0.0406 -0.5040
 6526TIP3    H119542   3.954   3.790   2.727 -0.0275 -0.8085  2.4691
 6526TIP3    H219543   4.007   3.921   2.673 -4.2166  0.1586  0.2946
 6527TIP3   OH219544   2.925   0.179   4.462 -0.4269  0.3406  0.3274
 6527TIP3    H119545   2.928   0.177   4.366 -1.6565  0.5073  0.2710
 6527TIP3    H219546   2.895   0.092   4.487  0.3205  0.1541  0.5910
 6528TIP3   OH219547   5.415   5.256   2.773  0.6049 -0.9007 -0.5470
 6528TIP3    H119548   5.477   5.327   2.756 -0.6844  0.2791 -0.4320
 6528TIP3    H219549   5.432   5.231   2.864  0.5820 -0.2497 -0.3597
 6529TIP3   OH219550   3.873   0.274   4.469  0.3231  0.0982  0.6245
 6529TIP3    H119551   3.868   0.357   4.423  1.0152  0.3444  0.9834
 6529TIP3    H219552   3.787   0.234   4.456 -0.8740  1.8973  2.4039
 6530TIP3   OH219553   6.873   6.543   3.490 -0.6005 -0.0198  0.1575
 6530TIP3    H119554   6.910   6.543   3.402  0.4864 -0.8782  0.5940
 6530TIP3    H219555   6.788   6.500   3.480 -1.1480  1.1828 -0.6977
 6531TIP3   OH219556   4.692   2.783   0.196 -0.1204  0.3418 -0.2525
 6531TIP3    H119557   4.678   2.866   0.150 -0.2333 -0.6041 -2.0428
 6531TIP3    H219558   4.642   2.720   0.145  2.3489 -1.3587 -0.7260
 6532TIP3   OH219559   4.835   3.135   2.124  0.3245 -0.2677 -0.2891
 6532TIP3    H119560   4.794   3.063   2.173 -0.9194  0.4145 -0.2709
 6532TIP3    H219561   4.878   3.188   2.190 -3.7112  2.2524  0.6917
 6533TIP3   OH219562   3.074   4.293   3.590 -0.2856 -0.0282  0.7334
 6533TIP3    H119563   3.144   4.294   3.525 -0.0358 -0.1724  1.0005
 6533TIP3    H219564   2.994   4.296   3.538 -0.0900 -0.3393  0.4062
 6534TIP3   OH219565   1.958   0.950   1.289  0.1211  0.1138 -0.4316
 6534TIP3    H119566   2.048   0.982   1.288 -0.4995  1.9746 -1.7004
 6534TIP3    H219567   1.912   1.008   1.350 -0.4152 -0.2593 -0.4722
 6535TIP3   OH219568   6.891   0.984   2.687 -0.1775 -0.0665  0.4043
 6535TIP3    H119569   6.914   0.960   2.597 -1.8855  0.2206 -0.1519
 6535TIP3    H219570   6.963   0.949   2.740  0.8297 -0.3102 -1.0534
 6536TIP3   OH219571   2.562   5.933   0.611  0.7106  0.0923 -0.5510
 6536TIP3    H119572   2.524   5.869   0.671  0.3605 -0.5243 -1.4123
 6536TIP3    H219573   2.635   5.886   0.570  0.8416  0.4550 -0.7323
 6537TIP3   OH219574   2.773   5.799   0.049 -0.7118  0.3704 -0.3773
 6537TIP3    H119575   2.839   5.791  -0.020 -1.3019  1.6614 -1.1437
 6537TIP3    H219576   2.698   5.750   0.015 -0.4637 -0.3257  0.0752
 6538TIP3   OH219577   0.956   4.963   2.951 -0.0991  0.1589 -0.0569
 6538TIP3    H119578   0.918   5.046   2.979 -2.0231 -0.5675 -0.3521
 6538TIP3    H219579   0.961   4.911   3.031  0.0474  0.1615 -0.0637
 6539TIP3   OH219580   2.106   1.595   4.944 -0.7446 -0.0038  0.2177
 6539TIP3    H119581   2.095   1.644   4.863  1.1772  0.7388  0.3541
 6539TIP3    H219582   2.021   1.553   4.958 -1.6567  1.2257 -1.2537
 6540TIP3   OH219583   0.443   0.117   4.630 -0.0378  0.6356 -0.5652
 6540TIP3    H119584   0.356   0.134   4.666 -0.2520 -0.7651 -0.3574
 6540TIP3    H219585   0.503   0.146   4.699 -0.4442 -1.8061  0.9366
 6541TIP3   OH219586   6.814   2.481   2.403  0.6997 -0.2976  0.0449
 6541TIP3    H119587   6.853   2.451   2.485 -0.0027 -0.8237  0.2025
 6541TIP3    H219588   6.831   2.410   2.341  0.0748 -0.5013  0.0990
 6542TIP3   OH219589   2.317   2.755   2.634  0.6341  0.3969  0.7724
 6542TIP3    H119590   2.290   2.668   2.603 -0.2042  0.3348  1.6320
 6542TIP3    H219591   2.365   2.793   2.560  0.9722 -0.7766  0.3710
 6543TIP3   OH219592   2.632   1.485   5.900 -0.1823 -0.5120 -0.6894
 6543TIP3    H119593   2.577   1.461   5.826 -0.3301 -1.6073 -0.2453
 6543TIP3    H219594   2.711   1.433   5.889 -0.1247 -0.5351 -0.1893
 6544TIP3   OH219595   3.084   1.466   0.994  1.2318  0.3434 -0.2044
 6544TIP3    H119596   3.170   1.489   1.030  1.8275 -0.4031 -1.1209
 6544TIP3    H219597   3.076   1.372   1.008  1.5133  0.0127 -2.0329
 6545TIP3   OH219598   2.477   5.123   4.795  0.6073 -0.4897  0.5199
 6545TIP3    H119599   2.385   5.103   4.813  0.4703 -1.4895 -1.0559
 6545TIP3    H219600   2.475   5.215   4.765  0.5923  0.5194  3.3579
 6546TIP3   OH219601   5.407   3.511   4.448  0.0192  0.1084  0.2474
 6546TIP3    H119602   5.365   3.555   4.374  1.8936 -0.5415 -1.2902
 6546TIP3    H219603   5.406   3.418   4.424  0.8540 -0.0905  0.9296
 6547TIP3   OH219604   6.032   0.411   1.410  0.0180  0.0473 -0.4030
 6547TIP3    H119605   6.010   0.338   1.468 -1.8315  0.7192 -0.1871
 6547TIP3    H219606   6.124   0.429   1.427 -0.2609 -0.3303  1.7070
 6548TIP3   OH219607   6.136   3.716   2.186 -0.1347 -0.5265  0.6089
 6548TIP3    H119608   6.096   3.710   2.099  0.2074 -0.9992  0.4825
 6548TIP3    H219609   6.069   3.680   2.245  0.2292 -1.6912  0.3499
 6549TIP3   OH219610   0.720   0.526   1.109  0.0469 -0.3783  0.2299
 6549TIP3    H119611   0.673   0.605   1.134 -0.5220 -0.4817 -0.5126
 6549TIP3    H219612   0.703   0.515   1.016  1.3553 -0.5458 -0.0127
 6550TIP3   OH219613   7.118   1.600   2.766 -0.5134 -0.2055 -0.9906
 6550TIP3    H119614   7.151   1.690   2.776  0.4479 -0.5937 -0.6051
 6550TIP3    H219615   7.089   1.576   2.853  1.6064 -1.1661 -0.4910
 6551TIP3   OH219616   0.731   6.025   4.463 -0.4036  0.1225  0.5098
 6551TIP3    H119617   0.814   6.052   4.503  0.0924 -0.0362 -0.3790
 6551TIP3    H219618   0.757   5.972   4.387 -1.3151  0.3289  0.0337
 6552TIP3   OH219619   3.755   0.417   1.581  0.5065 -0.4924 -0.2535
 6552TIP3    H119620   3.834   0.471   1.577  1.7561 -1.9980  1.8347
 6552TIP3    H219621   3.683   0.477   1.561  2.0522  1.2634 -0.7736
 6553TIP3   OH219622   3.582   6.335   5.597  0.0965  0.2135  0.5651
 6553TIP3    H119623   3.497   6.323   5.555  0.0631 -0.7115  0.8707
 6553TIP3    H219624   3.646   6.320   5.526  0.0209  0.1290  0.5152
 6554TIP3   OH219625   1.097   5.078   4.205  0.6126 -0.1285 -0.6028
 6554TIP3    H119626   1.188   5.106   4.210 -0.1559  2.5122 -0.1339
 6554TIP3    H219627   1.088   5.043   4.116  1.9435  0.0342 -0.8296
 6555TIP3   OH219628   6.818   5.825   4.566  0.1750  0.6040  0.0924
 6555TIP3    H119629   6.760   5.873   4.625  0.0949 -1.5767  1.9323
 6555TIP3    H219630   6.833   5.741   4.610  0.3501 -1.0578 -2.8530
 6556TIP3   OH219631   4.979   3.594   1.914  0.3632  0.3797  0.3575
 6556TIP3    H119632   4.889   3.620   1.935 -0.0849  0.5660 -1.6052
 6556TIP3    H219633   5.033   3.661   1.955 -0.3663  0.1738  1.7154
 6557TIP3   OH219634   1.434   2.243   5.124 -0.4832  0.2804 -0.4866
 6557TIP3    H119635   1.526   2.219   5.134 -0.5914 -0.1213 -0.4178
 6557TIP3    H219636   1.435   2.324   5.074 -0.0920  0.2873 -0.4700
 6558TIP3   OH219637   6.303   2.562   2.099 -0.6480 -0.0187 -0.1262
 6558TIP3    H119638   6.368   2.492   2.104 -1.4453 -0.7133  1.0461
 6558TIP3    H219639   6.292   2.590   2.190  0.3662  2.3435 -0.6637
 6559TIP3   OH219640   6.043   2.441   5.266  0.0774 -0.1812  0.6305
 6559TIP3    H119641   6.121   2.457   5.320  0.0940 -0.5044  0.7070
 6559TIP3    H219642   6.069   2.371   5.207 -0.0036  0.0402  0.3291
 6560TIP3   OH219643   5.131   1.551   0.508  0.7396  0.0608  0.0565
 6560TIP3    H119644   5.207   1.572   0.563 -0.4349 -0.7942  2.1380
 6560TIP3    H219645   5.151   1.591   0.423  2.1404  2.5209  1.4128
 6561TIP3   OH219646   6.003   0.520   3.114 -0.1922  0.4501 -0.5154
 6561TIP3    H119647   5.975   0.607   3.142 -0.1287  0.8023 -1.5030
 6561TIP3    H219648   6.027   0.475   3.195  0.4302  1.5844 -0.0507
 6562TIP3   OH219649   6.818   3.414   2.239 -0.2629 -0.1337  0.2092
 6562TIP3    H119650   6.895   3.468   2.255 -0.0357 -0.1379 -0.8139
 6562TIP3    H219651   6.768   3.462   2.173 -0.2468 -0.9763 -0.4411
 6563TIP3   OH219652   2.019   0.287   2.408  0.3168 -0.4477  0.6866
 6563TIP3    H119653   2.088   0.299   2.474 -0.2210  1.0218  1.0228
 6563TIP3    H219654   2.013   0.192   2.397  3.0346 -0.6064 -0.0795
 6564TIP3   OH219655   4.865   6.190   4.391 -0.5325  0.3269 -0.5397
 6564TIP3    H119656   4.834   6.124   4.330 -0.6888  0.4272 -0.5692
 6564TIP3    H219657   4.838   6.273   4.353 -2.0324  0.3288  0.4264
 6565TIP3   OH219658   1.615   1.577   5.248 -0.1902 -0.1378 -0.2808
 6565TIP3    H119659   1.541   1.629   5.218  0.5073  1.0124 -0.0885
 6565TIP3    H219660   1.622   1.596   5.342 -0.2096 -0.9518 -0.1085
 6566TIP3   OH219661   4.496   4.443   2.995  0.5785 -0.3483 -0.1555
 6566TIP3    H119662   4.505   4.538   3.002 -1.6800 -0.0690 -0.0998
 6566TIP3    H219663   4.447   4.431   2.913  2.9418 -1.6765 -1.4811
 6567TIP3   OH219664   2.044   6.294   2.723 -0.0849  0.1786  0.1032
 6567TIP3    H119665   2.045   6.274   2.630  2.0376  0.4765  0.0050
 6567TIP3    H219666   2.019   6.386   2.728 -0.8209 -0.0031 -0.1064
 6568TIP3   OH219667   6.869   1.813   3.465 -0.0132  0.2118  0.5461
 6568TIP3    H119668   6.952   1.772   3.489 -0.5199 -0.3683  1.3422
 6568TIP3    H219669   6.892   1.871   3.392  1.0269 -0.1892  0.5300
 6569TIP3   OH219670   5.103   2.208   2.339  0.1675 -0.4171  0.0261
 6569TIP3    H119671   5.083   2.242   2.252  1.7974 -1.8758 -0.9714
 6569TIP3    H219672   5.110   2.286   2.394 -1.0597  0.5140 -1.0768
 6570TIP3   OH219673   1.531   0.805   0.750 -0.3800 -0.5648  0.6548
 6570TIP3    H119674   1.618   0.817   0.789  0.2463  2.0302 -1.2639
 6570TIP3    H219675   1.546   0.803   0.656 -2.3833  0.2389  0.2566
 6571TIP3   OH219676   3.204   4.827   1.023 -0.0278  0.1339  0.4158
 6571TIP3    H119677   3.277   4.815   0.962 -0.5446  0.0018 -0.1845
 6571TIP3    H219678   3.194   4.741   1.064  1.3988  0.6285  1.9537
 6572TIP3   OH219679   2.821   6.021   2.531  0.2108  0.0248 -0.2117
 6572TIP3    H119680   2.916   6.030   2.521 -0.0154  2.8238 -0.8095
 6572TIP3    H219681   2.788   6.017   2.441 -0.2638 -1.2740 -0.0078
 6573TIP3   OH219682   3.443   6.663   0.522 -0.0803  0.3977 -0.0533
 6573TIP3    H119683   3.374   6.630   0.464 -0.0117 -1.7227  0.9393
 6573TIP3    H219684   3.469   6.746   0.484  0.6917 -1.2826 -3.6768
 6574TIP3   OH219685   1.279   3.674   2.087 -0.5509 -0.0672 -0.2201
 6574TIP3    H119686   1.276   3.687   1.992 -3.1034 -1.8108 -0.4790
 6574TIP3    H219687   1.250   3.584   2.100 -1.5041  0.5128  2.2929
 6575TIP3   OH219688   2.318   3.231   5.715 -0.0512  0.4775 -0.4176
 6575TIP3    H119689   2.283   3.155   5.667  1.1647 -0.5452  0.2547
 6575TIP3    H219690   2.274   3.306   5.676 -2.2007 -0.6427 -0.3156
 6576TIP3   OH219691   6.241   5.075   5.011 -0.3088  0.1714  0.3924
 6576TIP3    H119692   6.204   5.008   5.069 -0.6886  1.3061  1.5155
 6576TIP3    H219693   6.328   5.093   5.047  0.4739 -0.8725 -0.8994
 6577TIP3   OH219694   5.711   5.898   3.963 -0.1674 -0.3855 -0.6281
 6577TIP3    H119695   5.744   5.988   3.952  0.3503 -0.5416 -0.3765
 6577TIP3    H219696   5.736   5.874   4.052  0.9925 -1.3089 -1.1797
 6578TIP3   OH219697   6.847   1.005   1.416 -0.6281 -0.3333  0.1443
 6578TIP3    H119698   6.924   1.000   1.360 -0.4783  1.6083  0.1070
 6578TIP3    H219699   6.790   1.069   1.373 -2.2822 -1.7040  0.1838
 6579TIP3   OH219700   6.125   5.017   2.292 -0.2054 -0.5812  0.1091
 6579TIP3    H119701   6.088   4.940   2.334  0.9095 -0.5899  1.1463
 6579TIP3    H219702   6.083   5.091   2.336  0.5689 -0.5950  0.8928
 6580TIP3   OH219703   3.851   6.107   1.806 -0.6815 -0.3841  0.2749
 6580TIP3    H119704   3.827   6.195   1.837 -0.7529 -0.1283 -0.4868
 6580TIP3    H219705   3.780   6.083   1.746 -1.0886 -1.3118  1.1034
 6581TIP3   OH219706   6.597   1.025   2.621  0.1771 -0.3047  0.3078
 6581TIP3    H119707   6.560   1.094   2.677  0.2473  0.4271 -0.5193
 6581TIP3    H219708   6.689   1.019   2.648  0.2069  0.0312  0.2878
 6582TIP3   OH219709   2.068   4.034   3.360  0.4498 -0.2061  0.2813
 6582TIP3    H119710   2.053   4.065   3.271  2.4955  0.7321  0.2162
 6582TIP3    H219711   2.084   3.940   3.350  1.7090  0.0659 -0.5129
 6583TIP3   OH219712   3.785   6.471   4.463 -0.3166  0.1047 -0.3463
 6583TIP3    H119713   3.868   6.518   4.458  0.1341 -0.7162 -0.9501
 6583TIP3    H219714   3.728   6.527   4.516  0.6520  0.6348  0.1659
 6584TIP3   OH219715   2.385   6.620   1.335  0.0778 -0.5618  0.5407
 6584TIP3    H119716   2.449   6.670   1.386  1.7055 -1.4542 -0.5373
 6584TIP3    H219717   2.352   6.682   1.270 -0.1518 -0.0990  1.0916
 6585TIP3   OH219718   5.561   2.339   4.620  0.1285  0.5417 -0.7192
 6585TIP3    H119719   5.508   2.283   4.678  0.5438  0.2358 -0.6314
 6585TIP3    H219720   5.513   2.422   4.617  0.2215  0.6438  0.2584
 6586TIP3   OH219721   1.993   0.411   3.868 -0.9702  0.2105  0.6092
 6586TIP3    H119722   2.059   0.366   3.921 -0.2047 -0.1559 -0.6172
 6586TIP3    H219723   1.917   0.353   3.869 -0.4416 -0.5049  0.0973
 6587TIP3   OH219724   6.016   5.444   0.894 -0.3422  0.3849 -0.7337
 6587TIP3    H119725   5.922   5.458   0.894 -0.3871  0.1893 -1.8328
 6587TIP3    H219726   6.026   5.349   0.908 -0.1905  0.7602  2.1736
 6588TIP3   OH219727   4.120   4.539   5.284 -0.5706  0.0804  0.0634
 6588TIP3    H119728   4.086   4.609   5.228  1.2890  2.4851  1.7514
 6588TIP3    H219729   4.167   4.481   5.224  0.3099  1.8925 -1.0848
 6589TIP3   OH219730   3.717   0.076   4.778  0.1581 -0.5263  0.5376
 6589TIP3    H119731   3.730   0.040   4.690 -0.9500  0.8614 -0.2345
 6589TIP3    H219732   3.773   0.154   4.781  0.0011 -0.4277  0.9749
 6590TIP3   OH219733   0.816   2.328   0.383  0.1154  0.1743  0.6724
 6590TIP3    H119734   0.821   2.233   0.395  0.4891  0.1315  0.2144
 6590TIP3    H219735   0.726   2.344   0.354  0.7660 -0.3934 -2.0260
 6591TIP3   OH219736   6.845   6.380   0.728  0.4281 -0.0946 -0.9074
 6591TIP3    H119737   6.769   6.348   0.679  0.1599 -0.3987 -0.3074
 6591TIP3    H219738   6.884   6.301   0.765 -2.0699  0.3517  3.2842
 6592TIP3   OH219739   0.162   3.220   3.740  0.2995 -0.2076  0.2878
 6592TIP3    H119740   0.211   3.299   3.717  1.6318 -1.3438 -0.9937
 6592TIP3    H219741   0.070   3.247   3.736  0.7161  1.2822 -0.0486
 6593TIP3   OH219742   7.004   5.417   2.880  0.0670  0.4763 -0.3805
 6593TIP3    H119743   6.985   5.491   2.938 -0.4316 -1.1301  1.5818
 6593TIP3    H219744   7.097   5.427   2.859  0.0620  1.5211  0.0291
 6594TIP3   OH219745   2.674   5.830   1.395  0.0155  0.0246 -0.2016
 6594TIP3    H119746   2.629   5.892   1.453 -0.2910  0.6465 -1.0915
 6594TIP3    H219747   2.730   5.885   1.341  1.2958 -0.6801  0.3754
 6595TIP3   OH219748   4.976   3.380   1.671 -0.3779  0.0165  0.5630
 6595TIP3    H119749   5.008   3.388   1.581 -0.2003  2.6794  0.7892
 6595TIP3    H219750   4.880   3.378   1.662 -0.3593 -2.0500  0.2461
 6596TIP3   OH219751   5.457   2.746   2.135  0.3301  0.0137  0.1952
 6596TIP3    H119752   5.532   2.804   2.126 -0.6848  1.2416 -0.7580
 6596TIP3    H219753   5.418   2.768   2.220  1.0073 -0.5959  0.6708
 6597TIP3   OH219754   7.055   3.722   4.553  0.5226 -0.4445  0.1496
 6597TIP3    H119755   7.092   3.808   4.573  0.6064 -0.8139  1.6219
 6597TIP3    H219756   6.970   3.722   4.597  0.1755 -0.8289 -0.5074
 6598TIP3   OH219757   4.041   4.007   2.009 -0.1312 -0.0276 -0.0634
 6598TIP3    H119758   3.992   4.009   2.092  0.7396  1.4143  0.4651
 6598TIP3    H219759   3.973   4.013   1.942 -0.7486  1.7329  0.6436
 6599TIP3   OH219760   2.798   4.820   3.208 -0.2295 -0.2922 -0.3944
 6599TIP3    H119761   2.728   4.754   3.203 -0.6274  0.2023 -1.8192
 6599TIP3    H219762   2.778   4.869   3.288 -0.1228 -1.6536  0.5032
 6600TIP3   OH219763   4.401   5.917   0.738 -0.2972  0.1777  0.0150
 6600TIP3    H119764   4.433   5.874   0.658 -1.1441  2.2679 -1.5341
 6600TIP3    H219765   4.469   5.901   0.803  0.0715 -2.2411 -0.8612
 6601TIP3   OH219766   1.733   2.096   4.636  0.5158 -0.7059 -0.6779
 6601TIP3    H119767   1.700   2.007   4.654  0.6575 -0.6991 -0.3633
 6601TIP3    H219768   1.828   2.088   4.644  0.6541 -0.8817 -2.2926
 6602TIP3   OH219769   2.255   0.904   1.079  0.6915 -0.1674  0.5552
 6602TIP3    H119770   2.242   0.995   1.107 -0.1014  0.1763 -0.8098
 6602TIP3    H219771   2.260   0.854   1.160 -0.4515  0.8991  1.3217
 6603TIP3   OH219772   2.172   1.889   3.870 -0.3101  0.1351 -0.2189
 6603TIP3    H119773   2.094   1.849   3.832 -1.0808  1.1273  0.2708
 6603TIP3    H219774   2.139   1.967   3.916  1.0783  1.1605 -0.8827
 6604TIP3   OH219775   1.441   2.445   4.426  0.4878 -0.1875 -0.0288
 6604TIP3    H119776   1.371   2.386   4.400  1.1709 -0.1702 -2.1426
 6604TIP3    H219777   1.518   2.389   4.435  0.6740  0.0808  0.0862
 6605TIP3   OH219778   7.006   0.932   3.131  0.0650 -0.4798  0.3749
 6605TIP3    H119779   7.053   0.977   3.061 -0.0845  0.8956  1.1335
 6605TIP3    H219780   6.975   0.850   3.090 -0.0159  0.2797 -1.1615
 6606TIP3   OH219781   3.334   1.353   5.218  0.7211 -0.0994  0.2180
 6606TIP3    H119782   3.312   1.445   5.202 -0.9480 -0.4097  0.5458
 6606TIP3    H219783   3.271   1.303   5.167  2.8851 -1.1420 -1.6189
 6607TIP3   OH219784   2.751   2.560   4.370  0.4284  0.3729 -0.2758
 6607TIP3    H119785   2.733   2.517   4.454 -0.0233  0.4459 -0.3341
 6607TIP3    H219786   2.757   2.489   4.307 -1.9381  0.4544 -0.6756
 6608TIP3   OH219787   5.477   5.206   3.497  0.3693 -0.2140  0.1617
 6608TIP3    H119788   5.421   5.217   3.573 -0.9161 -0.6350 -0.6954
 6608TIP3    H219789   5.511   5.293   3.479 -3.2043  1.0195 -1.6618
 6609TIP3   OH219790   4.738   2.460   4.348 -0.1553  0.1108  0.8671
 6609TIP3    H119791   4.649   2.483   4.322  0.5745  0.9885 -1.0325
 6609TIP3    H219792   4.749   2.499   4.434 -2.1948 -1.6255  2.0236
 6610TIP3   OH219793   2.444   0.261   0.074 -0.5192 -0.0524 -0.3079
 6610TIP3    H119794   2.372   0.298   0.125  1.1523  0.5082  1.7663
 6610TIP3    H219795   2.421   0.169   0.064 -1.5254  0.1192  0.3056
 6611TIP3   OH219796   5.442   6.036   2.220  0.8329  0.4153  0.0073
 6611TIP3    H119797   5.512   5.990   2.174  0.1152 -0.1632 -0.5242
 6611TIP3    H219798   5.397   5.968   2.270  0.9914  0.8777  0.7944
 6612TIP3   OH219799   7.119   2.495   1.887  0.0229  0.4918 -0.3508
 6612TIP3    H119800   7.098   2.589   1.883  0.0793  0.4751 -1.3297
 6612TIP3    H219801   7.163   2.484   1.971 -0.1085  1.3205 -0.1637
 6613TIP3   OH219802   5.881   0.651   3.476 -0.3615  0.2333  0.2316
 6613TIP3    H119803   5.829   0.728   3.500 -0.0089 -0.0055  1.8347
 6613TIP3    H219804   5.966   0.686   3.451 -0.5549  0.4384 -0.1571
 6614TIP3   OH219805   2.974   4.497   3.157 -0.2651  0.4856  0.5582
 6614TIP3    H119806   2.882   4.474   3.143 -0.8770  3.5200 -1.1389
 6614TIP3    H219807   3.019   4.464   3.079 -0.4869  1.6896 -0.0918
 6615TIP3   OH219808   2.090   0.944   3.226  0.4801 -0.0614 -0.5270
 6615TIP3    H119809   2.024   0.901   3.281 -0.5715  1.0930 -0.8448
 6615TIP3    H219810   2.108   0.881   3.156 -0.0884 -0.5058 -0.2842
 6616TIP3   OH219811   2.776   0.850   5.036  0.6638  0.1708  0.0679
 6616TIP3    H119812   2.845   0.863   4.971  0.8170  0.1604  0.2274
 6616TIP3    H219813   2.698   0.829   4.984  0.7805  0.1769 -0.1122
 6617TIP3   OH219814   0.756   4.889   2.283 -0.5627 -0.3977 -0.2429
 6617TIP3    H119815   0.833   4.885   2.340 -0.9341 -2.8622  0.1855
 6617TIP3    H219816   0.765   4.815   2.224 -2.5077 -0.6495 -0.3021
 6618TIP3   OH219817   2.268   3.165   1.680  0.1797  0.8299 -0.4443
 6618TIP3    H119818   2.345   3.196   1.727  0.3428 -0.3519  0.0909
 6618TIP3    H219819   2.194   3.198   1.733  0.3619 -0.8151  0.9118
 6619TIP3   OH219820   4.507   1.469   5.669  0.4317 -0.7086  0.1541
 6619TIP3    H119821   4.541   1.399   5.613  0.9054 -1.6942  1.5974
 6619TIP3    H219822   4.586   1.507   5.709  0.0910 -0.1873  0.3364
 6620TIP3   OH219823   6.845   3.733   5.277 -0.1601  0.4602 -0.1411
 6620TIP3    H119824   6.770   3.792   5.269 -0.2433  0.4167  0.3081
 6620TIP3    H219825   6.820   3.657   5.224  0.6562  1.5012 -2.1414
 6621TIP3   OH219826   2.032   2.706   3.875 -0.6129  0.1301  0.3682
 6621TIP3    H119827   2.048   2.646   3.802 -0.2026 -0.0672  0.6199
 6621TIP3    H219828   2.112   2.704   3.926  0.7115  3.2864 -1.2896
 6622TIP3   OH219829   3.171   1.642   2.751 -0.5874  0.1742 -0.9382
 6622TIP3    H119830   3.158   1.700   2.826  1.1848 -1.2525  0.5760
 6622TIP3    H219831   3.107   1.572   2.763  0.7060 -0.8845  0.2131
 6623TIP3   OH219832   2.840   4.536   5.276 -0.2604 -0.0626  0.6467
 6623TIP3    H119833   2.929   4.557   5.303 -0.1227 -0.0605  0.1977
 6623TIP3    H219834   2.819   4.455   5.323  0.5084 -0.8548 -0.3357
 6624TIP3   OH219835   5.828   0.472   4.331 -0.2166 -0.0118 -0.3352
 6624TIP3    H119836   5.862   0.550   4.375  0.1111 -0.5594  0.3932
 6624TIP3    H219837   5.819   0.407   4.401  0.2914 -0.8928 -1.0746
 6625TIP3   OH219838   0.140   5.145   5.277  0.0278 -0.1211  0.7708
 6625TIP3    H119839   0.231   5.161   5.301  0.6672  0.1545 -1.6200
 6625TIP3    H219840   0.140   5.056   5.240 -0.6903 -0.1322  0.7692
 6626TIP3   OH219841   4.964   0.002   1.687  0.0206  0.2475  0.1874
 6626TIP3    H119842   4.901   0.068   1.657 -0.9914 -0.6826  0.2392
 6626TIP3    H219843   5.031   0.053   1.733  0.4788  1.4784 -1.7365
 6627TIP3   OH219844   1.006   6.123   2.742  0.1229  0.3288 -0.4502
 6627TIP3    H119845   1.033   6.149   2.654  0.8893  0.9610 -0.0374
 6627TIP3    H219846   1.076   6.066   2.773  0.5627  1.2384  0.2780
 6628TIP3   OH219847   6.453   0.352   3.911 -0.0314  0.4557 -0.0666
 6628TIP3    H119848   6.537   0.310   3.932  0.5748  1.8197  0.3257
 6628TIP3    H219849   6.398   0.280   3.880  1.0563 -0.5845  0.3250
 6629TIP3   OH219850   3.033   1.399   0.538 -0.1747 -0.2241  0.1343
 6629TIP3    H119851   2.938   1.389   0.530 -0.2170  0.8085 -1.0052
 6629TIP3    H219852   3.061   1.323   0.588 -1.6182 -0.4752  0.6107
 6630TIP3   OH219853   2.869   6.757   5.572  0.2486  0.2610 -0.3114
 6630TIP3    H119854   2.880   6.756   5.667 -1.7365  0.4332 -0.0281
 6630TIP3    H219855   2.775   6.744   5.559  0.7870 -2.6602 -2.3545
 6631TIP3   OH219856   6.017   2.321   2.903  0.7517  0.0947  0.4698
 6631TIP3    H119857   6.093   2.350   2.852  1.2371 -1.8207  0.0209
 6631TIP3    H219858   6.040   2.341   2.993  1.1557  0.8293  0.2172
 6632TIP3   OH219859   3.662   1.917   2.525  0.0722 -0.8131  0.0526
 6632TIP3    H119860   3.715   1.975   2.579  0.8840 -2.1330  0.6922
 6632TIP3    H219861   3.644   1.841   2.580 -1.7621 -0.8013 -0.4510
 6633TIP3   OH219862   0.823   1.967   4.232  0.6359 -0.4033  0.0185
 6633TIP3    H119863   0.890   1.944   4.168  0.6786 -2.8155  0.8469
 6633TIP3    H219864   0.850   1.925   4.313 -1.0957 -0.1699  0.7770
 6634TIP3   OH219865   3.646   5.122   5.145  0.4261 -0.5207 -0.4322
 6634TIP3    H119866   3.701   5.200   5.139  1.7561 -1.3714  0.2019
 6634TIP3    H219867   3.561   5.150   5.110  1.0244  1.0430 -0.7324
 6635TIP3   OH219868   0.866   0.716   5.240  0.0280  0.1572 -0.6025
 6635TIP3    H119869   0.857   0.664   5.160  0.3096  0.5178 -0.8737
 6635TIP3    H219870   0.953   0.695   5.272 -0.8898 -1.7133  0.8605
 6636TIP3   OH219871   4.705   2.085   4.782 -0.2175  0.3539 -0.1659
 6636TIP3    H119872   4.739   2.019   4.843 -0.9932 -0.5414 -0.6808
 6636TIP3    H219873   4.781   2.111   4.729  0.8619  2.2874  2.1174
 6637TIP3   OH219874   2.863   5.122   4.880  0.2701  0.0257 -0.0700
 6637TIP3    H119875   2.824   5.156   4.961  1.4383 -1.0122  0.9809
 6637TIP3    H219876   2.822   5.173   4.810 -0.0433  1.6621  1.2338
 6638TIP3   OH219877   4.441   2.478   4.589 -0.1273  0.5468  0.1971
 6638TIP3    H119878   4.527   2.517   4.572 -0.1312  1.0236  1.1875
 6638TIP3    H219879   4.457   2.414   4.659 -0.5094  0.3260  0.0880
 6639TIP3   OH219880   7.009   3.875   5.467 -0.2990 -0.7192 -0.3103
 6639TIP3    H119881   6.946   3.827   5.413  0.5602  0.7317 -2.8121
 6639TIP3    H219882   6.962   3.953   5.497 -0.4575 -0.9742  0.1078
 6640TIP3   OH219883   1.900   0.768   5.576  0.6625  0.0014  0.0987
 6640TIP3    H119884   1.828   0.706   5.587  0.1811  0.6908  1.0050
 6640TIP3    H219885   1.969   0.735   5.633  1.6181 -1.4034 -1.7722
 6641TIP3   OH219886   2.794   0.325   0.450  0.1763  0.6768 -0.1478
 6641TIP3    H119887   2.716   0.280   0.418 -0.1990  1.0157  0.2714
 6641TIP3    H219888   2.846   0.341   0.372 -0.3684  0.8158 -0.4870
 6642TIP3   OH219889   6.784   0.822   3.717  0.1386  0.2095 -0.1023
 6642TIP3    H119890   6.874   0.847   3.695  0.6672 -0.1755  1.4717
 6642TIP3    H219891   6.788   0.727   3.731 -0.2110  0.3600  1.2048
 6643TIP3   OH219892   2.490   1.937   3.621 -0.4510 -0.5606 -0.5246
 6643TIP3    H119893   2.528   1.882   3.689 -1.0512 -0.4533 -0.0896
 6643TIP3    H219894   2.495   2.026   3.656 -0.7545 -0.5028 -0.6218
 6644TIP3   OH219895   3.713   6.367   0.054  0.1429  0.4712 -0.1048
 6644TIP3    H119896   3.791   6.325   0.089  0.2925  0.6148 -0.2646
 6644TIP3    H219897   3.689   6.432   0.119 -0.3835 -0.2021  0.3859
 6645TIP3   OH219898   2.519   3.728   0.136 -0.0445  0.1270 -0.1270
 6645TIP3    H119899   2.483   3.673   0.066  1.7961 -0.0324 -1.0270
 6645TIP3    H219900   2.614   3.726   0.120  0.2286  1.8768  1.0844
 6646TIP3   OH219901   5.863   3.939   3.039  0.0954  0.3354 -0.5580
 6646TIP3    H119902   5.938   3.884   3.016  1.1095  1.0367  0.8847
 6646TIP3    H219903   5.800   3.925   2.968  0.2949 -2.6431 -0.2886
 6647TIP3   OH219904   4.339   4.531   2.427 -0.3464  0.1027  0.2041
 6647TIP3    H119905   4.344   4.593   2.354 -0.4698 -0.2218 -0.0829
 6647TIP3    H219906   4.430   4.511   2.448 -0.2856  1.1347  0.9459
 6648TIP3   OH219907   5.028   3.660   5.761 -0.1379  0.3230  0.6005
 6648TIP3    H119908   4.975   3.612   5.699 -0.1068  1.7773 -0.6183
 6648TIP3    H219909   4.975   3.664   5.841 -1.9768  1.8399 -0.6055
 6649TIP3   OH219910   7.230   6.716   2.304 -0.2303  0.6089  0.3083
 6649TIP3    H119911   7.172   6.790   2.286 -1.5277 -0.0793  1.4257
 6649TIP3    H219912   7.205   6.650   2.239 -0.8594  0.2408  0.9123
 6650TIP3   OH219913   0.773   5.568   0.552 -0.1893 -0.0507 -0.2970
 6650TIP3    H119914   0.858   5.601   0.583  1.4241 -1.7315 -2.6067
 6650TIP3    H219915   0.733   5.643   0.509 -0.5071  1.0971  1.8382
 6651TIP3   OH219916   2.821   1.522   5.381 -0.2864 -0.4442 -0.4174
 6651TIP3    H119917   2.777   1.446   5.419 -0.8195 -1.3705 -2.6926
 6651TIP3    H219918   2.914   1.507   5.395 -0.4521 -0.8379  0.2992
 6652TIP3   OH219919   2.078   2.922   2.651 -0.3239 -0.2512  0.0123
 6652TIP3    H119920   2.076   2.963   2.737 -1.1150 -0.5705  0.1568
 6652TIP3    H219921   2.152   2.861   2.654 -1.4061 -1.5665  1.0917
 6653TIP3   OH219922   1.952   1.846   0.378 -0.1269  0.5775 -0.0523
 6653TIP3    H119923   1.926   1.857   0.286  0.7680  1.4460 -0.2154
 6653TIP3    H219924   2.039   1.804   0.373  0.8796  2.5118  0.3096
 6654TIP3   OH219925   0.881   6.745   1.716  0.2698  0.0083  0.5130
 6654TIP3    H119926   0.828   6.785   1.785  0.0258 -0.1937  0.4471
 6654TIP3    H219927   0.940   6.686   1.763  0.4559  0.2606  0.5900
 6655TIP3   OH219928   5.488   6.328   0.085 -1.0000 -0.2121 -0.3861
 6655TIP3    H119929   5.418   6.264   0.074 -1.9667  0.7357  0.0267
 6655TIP3    H219930   5.443   6.412   0.091  0.3175  0.6956 -2.3113
 6656TIP3   OH219931   4.780   5.610   1.184 -0.4377  0.0022  0.0354
 6656TIP3    H119932   4.744   5.699   1.179 -1.2312 -0.3613 -0.8946
 6656TIP3    H219933   4.811   5.603   1.274 -0.8924  1.0203  0.2955
 6657TIP3   OH219934   2.970   0.641   5.700 -0.7691  0.3422  0.0497
 6657TIP3    H119935   2.944   0.549   5.690 -0.2956  0.2941 -0.8550
 6657TIP3    H219936   3.041   0.639   5.764  0.7753 -0.2300 -1.5959
 6658TIP3   OH219937   5.350   4.706   4.427 -0.5358 -0.0778  0.0265
 6658TIP3    H119938   5.443   4.700   4.405 -0.5565  1.6585 -0.6899
 6658TIP3    H219939   5.344   4.668   4.515  0.8108 -0.3570  0.0205
 6659TIP3   OH219940   2.570   2.742   2.850 -0.6522 -0.0606  0.3940
 6659TIP3    H119941   2.609   2.782   2.772 -1.9709 -0.1471 -0.3448
 6659TIP3    H219942   2.642   2.696   2.892 -0.2551 -1.6788 -1.8834
 6660TIP3   OH219943   4.421   0.613   3.375 -0.3014  0.2328  0.1822
 6660TIP3    H119944   4.343   0.666   3.394 -0.2736  0.5463 -0.5697
 6660TIP3    H219945   4.464   0.659   3.303 -1.1514 -1.6571 -1.6463
 6661TIP3   OH219946   1.620   1.248   2.721  0.0446  0.3959  0.0155
 6661TIP3    H119947   1.636   1.155   2.705 -2.1904  0.0421 -0.4113
 6661TIP3    H219948   1.708   1.286   2.727  1.0323 -1.3230 -2.1553
 6662TIP3   OH219949   5.629   2.038   4.104 -0.2178  0.1077  0.4560
 6662TIP3    H119950   5.656   2.076   4.187  2.0068 -0.9949  0.3105
 6662TIP3    H219951   5.685   2.079   4.038 -0.2255 -0.8147 -0.1584
 6663TIP3   OH219952   3.678   4.452   3.432  0.3175 -0.2214 -0.1231
 6663TIP3    H119953   3.648   4.497   3.353 -2.2911 -0.5185  0.6051
 6663TIP3    H219954   3.621   4.486   3.502  1.8952 -0.6852  1.4730
 6664TIP3   OH219955   5.165   3.090   5.239 -0.2643  0.1479 -0.4603
 6664TIP3    H119956   5.112   3.046   5.173  0.4399 -0.7046 -0.4778
 6664TIP3    H219957   5.254   3.056   5.226  0.2675  1.4285 -0.3332
 6665TIP3   OH219958   3.080   1.208   1.039  0.1095  0.0165  0.1786
 6665TIP3    H119959   2.993   1.172   1.053  0.6617 -0.9562  1.3656
 6665TIP3    H219960   3.133   1.171   1.111  1.4117  0.8396 -0.3165
 6666TIP3   OH219961   2.102   4.836   3.245 -0.1605  0.1426  0.0620
 6666TIP3    H119962   2.158   4.896   3.294  0.2485  0.5316 -0.8460
 6666TIP3    H219963   2.085   4.882   3.162  1.3254 -1.5643 -1.2593
 6667TIP3   OH219964   1.160   0.319   4.841 -0.0196 -0.1876  0.3515
 6667TIP3    H119965   1.127   0.406   4.818  0.2249  0.4051  2.0567
 6667TIP3    H219966   1.081   0.269   4.862 -0.1920 -0.5302 -1.0534
 6668TIP3   OH219967  -0.002   3.162   3.338 -0.4797 -0.0515 -0.1252
 6668TIP3    H119968  -0.033   3.152   3.428  0.5631  0.0456  0.2590
 6668TIP3    H219969   0.039   3.249   3.336  0.8411 -0.6603 -0.2734
 6669TIP3   OH219970   4.676   2.900   5.837 -0.1094 -0.2097 -0.3709
 6669TIP3    H119971   4.616   2.827   5.852 -0.1875  0.2261  1.7565
 6669TIP3    H219972   4.760   2.859   5.817 -0.6177 -0.8319 -1.3065
 6670TIP3   OH219973   5.253   4.934   4.566  0.9305 -0.0803  0.2987
 6670TIP3    H119974   5.329   4.990   4.557  1.8065 -0.9182  1.9694
 6670TIP3    H219975   5.270   4.859   4.508  1.0928  0.0242  0.2130
 6671TIP3   OH219976   0.677   0.936   0.126  0.3106  0.1197 -0.3103
 6671TIP3    H119977   0.610   0.935   0.194  0.7609  1.1730  0.1765
 6671TIP3    H219978   0.658   1.014   0.075  1.3488  0.6300  0.0451
 6672TIP3   OH219979   4.479   6.792   1.966 -0.3532 -0.4654 -0.5392
 6672TIP3    H119980   4.410   6.755   2.021  0.0270  0.7426  0.8064
 6672TIP3    H219981   4.548   6.816   2.027  1.0140 -1.0485 -1.7941
 6673TIP3   OH219982   6.757   4.369   1.834  0.3118 -0.2949 -0.1712
 6673TIP3    H119983   6.702   4.361   1.756 -0.5404  0.6337  0.3028
 6673TIP3    H219984   6.844   4.388   1.800  0.3477 -1.7058 -0.9388
 6674TIP3   OH219985   0.832   5.563   5.465 -0.3816  0.3413 -0.1650
 6674TIP3    H119986   0.841   5.474   5.500  1.2715  0.4134 -0.3452
 6674TIP3    H219987   0.827   5.552   5.371 -1.8975  0.3484 -0.1072
 6675TIP3   OH219988   1.249   5.220   3.594 -0.1626  0.4022  0.4722
 6675TIP3    H119989   1.235   5.241   3.686  0.6152  0.5370  0.5680
 6675TIP3    H219990   1.211   5.133   3.583 -0.8587  0.6640  0.7530
 6676TIP3   OH219991   4.922   5.642   0.206  0.8140 -0.1091 -0.2732
 6676TIP3    H119992   4.923   5.594   0.123 -0.1724  1.2281 -1.0818
 6676TIP3    H219993   4.992   5.706   0.198 -0.2802  1.0680 -0.7398
 6677TIP3   OH219994   3.635   3.030   0.802  0.3922  0.3378  0.4604
 6677TIP3    H119995   3.604   2.944   0.774 -0.4091  0.8722 -0.3420
 6677TIP3    H219996   3.556   3.085   0.804  1.1167  1.4562 -0.5809
 6678TIP3   OH219997   0.989   4.814   5.075  0.2368 -0.2580 -0.1169
 6678TIP3    H119998   1.034   4.731   5.094  0.8071  0.4671  2.0080
 6678TIP3    H219999   0.904   4.805   5.120  1.0560  0.9721  1.8211
 6679TIP3   OH220000   3.774   1.939   1.953  0.0497  0.2224 -0.2588
 6679TIP3    H120001   3.813   1.852   1.946  1.5383  0.7776  0.6394
 6679TIP3    H220002   3.710   1.931   2.023 -1.2596 -0.6166 -1.5075
 6680TIP3   OH220003   1.881   1.015   2.372 -0.1072 -0.1341  0.5292
 6680TIP3    H120004   1.891   1.048   2.283  0.8278 -1.6266  0.0510
 6680TIP3    H220005   1.794   0.973   2.372 -0.8218  1.2801  0.8274
 6681TIP3   OH220006   6.535   4.765   0.794  0.1356 -0.2272  0.1542
 6681TIP3    H120007   6.443   4.737   0.794 -0.0172  0.2648 -0.2288
 6681TIP3    H220008   6.584   4.687   0.821 -0.3479 -0.6548 -0.1938
 6682TIP3   OH220009   5.816   6.519   4.997  0.1486 -0.7407 -0.2485
 6682TIP3    H120010   5.857   6.441   4.959  1.1564 -1.0003  1.2786
 6682TIP3    H220011   5.863   6.592   4.958 -0.1002 -0.9252 -0.9070
 6683TIP3   OH220012   2.432   4.295   1.537  0.5673  0.0694 -0.3501
 6683TIP3    H120013   2.403   4.327   1.451 -3.6904  1.3573  1.3029
 6683TIP3    H220014   2.460   4.374   1.583 -1.2896  0.1612  0.7392
 6684TIP3   OH220015   3.671   6.819   3.306 -0.7280 -0.1892 -0.2461
 6684TIP3    H120016   3.650   6.726   3.296  0.9382 -0.6709  0.2986
 6684TIP3    H220017   3.742   6.821   3.370  0.5007  1.2818 -1.5452
 6685TIP3   OH220018   6.489   2.659   0.277 -0.2782 -0.1843 -0.5415
 6685TIP3    H120019   6.524   2.642   0.189 -1.8430 -0.9219 -1.0670
 6685TIP3    H220020   6.396   2.636   0.270 -0.4097 -0.3511  1.3410
 6686TIP3   OH220021   2.011   2.146   4.669  0.4239  0.2649 -0.0208
 6686TIP3    H120022   2.036   2.085   4.739 -0.0835 -0.1356 -0.1890
 6686TIP3    H220023   2.095   2.173   4.631  0.7671  1.1177  1.2569
 6687TIP3   OH220024   6.908   5.801   3.229  0.2840  0.4013  0.3750
 6687TIP3    H120025   6.830   5.855   3.225  0.9332  1.2988 -0.6772
 6687TIP3    H220026   6.904   5.760   3.316 -2.5473 -1.4499 -0.4844
 6688TIP3   OH220027   6.264   5.921   4.515  0.2816  0.3119  0.5847
 6688TIP3    H120028   6.178   5.886   4.492  0.2668 -1.0368  2.4918
 6688TIP3    H220029   6.288   5.976   4.440 -1.2595 -1.0226 -0.9826
 6689TIP3   OH220030   2.619   4.680   2.603  0.0862 -0.4659 -0.1332
 6689TIP3    H120031   2.694   4.736   2.582  0.3461 -0.9353 -0.4699
 6689TIP3    H220032   2.615   4.681   2.699 -0.0266  0.2751 -0.1405
 6690TIP3   OH220033   3.080   1.979   3.802  0.2234 -0.0855  0.3677
 6690TIP3    H120034   3.101   1.887   3.818  1.4238  0.2734  0.9299
 6690TIP3    H220035   3.156   2.014   3.757 -0.7550  0.3403 -1.0296
 6691TIP3   OH220036   6.610   3.928   0.808  0.1081  0.3797 -0.8786
 6691TIP3    H120037   6.705   3.926   0.818  0.0371 -0.6013 -0.2099
 6691TIP3    H220038   6.594   3.988   0.736  1.1849  1.2253 -0.4351
 6692TIP3   OH220039   1.292   2.090   4.537  0.2804  0.2240 -0.1645
 6692TIP3    H120040   1.204   2.126   4.532 -0.5042 -1.6359 -0.5772
 6692TIP3    H220041   1.328   2.127   4.617 -1.4084 -0.0710  0.7789
 6693TIP3   OH220042   0.266   3.856   1.755 -0.9266  0.1611 -0.9136
 6693TIP3    H120043   0.212   3.902   1.819  0.6071  1.0065 -0.1682
 6693TIP3    H220044   0.237   3.890   1.670 -0.9497  1.2936 -0.4671
 6694TIP3   OH220045   0.425   4.799   4.467 -0.8283  0.2275  0.1536
 6694TIP3    H120046   0.383   4.830   4.386 -1.4521 -0.9608 -0.0010
 6694TIP3    H220047   0.513   4.836   4.464 -1.1798  1.0567 -0.5500
 6695TIP3   OH220048   4.808   0.831   3.477 -0.4918  0.1740  0.3512
 6695TIP3    H120049   4.720   0.858   3.449 -0.6189  0.7252  1.2673
 6695TIP3    H220050   4.796   0.741   3.509 -0.3038 -0.5579 -1.5125
 6696TIP3   OH220051   1.490   0.226   0.927 -0.1435  0.2943  0.0834
 6696TIP3    H120052   1.509   0.162   0.858 -0.9294  1.5371 -1.3591
 6696TIP3    H220053   1.447   0.175   0.996 -0.7108 -0.7517 -0.9972
 6697TIP3   OH220054   4.173   6.420   2.649  0.1498 -0.7622 -0.2638
 6697TIP3    H120055   4.203   6.356   2.584 -0.0243  0.0229 -1.1326
 6697TIP3    H220056   4.224   6.498   2.631  1.8230 -1.2216  2.0930
 6698TIP3   OH220057   3.632   0.331   4.927  0.6148 -0.1851 -0.2356
 6698TIP3    H120058   3.545   0.361   4.902  0.1750 -0.1779  1.1737
 6698TIP3    H220059   3.671   0.297   4.846 -0.7695 -0.3798 -0.8493
 6699TIP3   OH220060   3.321   0.752   0.526 -0.3120 -0.0774  0.3429
 6699TIP3    H120061   3.266   0.830   0.534 -0.8194 -0.1337 -1.8236
 6699TIP3    H220062   3.260   0.683   0.498  0.4243 -0.7863  0.4662
 6700TIP3   OH220063   2.743   3.252   4.627 -0.0045 -0.1505 -0.2249
 6700TIP3    H120064   2.670   3.284   4.574  0.1551  1.1583  0.3088
 6700TIP3    H220065   2.758   3.321   4.692  2.5106  0.1953 -1.0717
 6701TIP3   OH220066   0.066   2.660   1.302 -0.7883 -0.6261 -0.1077
 6701TIP3    H120067  -0.025   2.691   1.306 -0.7605 -0.6597  1.0969
 6701TIP3    H220068   0.084   2.628   1.390 -0.3523 -2.7736 -0.9249
 6702TIP3   OH220069   2.211   4.722   5.858  0.4391 -0.6748  0.4173
 6702TIP3    H120070   2.259   4.738   5.777  0.7335 -1.6015  0.4005
 6702TIP3    H220071   2.222   4.802   5.908 -0.0901  0.0756 -0.6211
 6703TIP3   OH220072   0.776   0.409   3.698 -0.0389 -0.1343  0.0779
 6703TIP3    H120073   0.687   0.444   3.698  0.2246  0.5369 -0.2529
 6703TIP3    H220074   0.780   0.355   3.619 -0.7817 -1.8196  1.1303
 6704TIP3   OH220075   4.999   1.982   3.614  0.0035 -0.1207  0.0812
 6704TIP3    H120076   5.058   1.951   3.545  1.1642  1.2116  0.4180
 6704TIP3    H220077   5.056   2.031   3.673 -1.6157  2.0898 -0.1024
 6705TIP3   OH220078   5.405   2.470   0.767  0.2586  0.4861 -0.5428
 6705TIP3    H120079   5.376   2.500   0.853 -2.0038 -0.5952 -0.8395
 6705TIP3    H220080   5.365   2.532   0.705 -0.6455 -0.4335 -0.9168
 6706TIP3   OH220081   7.193   0.063   5.223  0.1897  0.0344  0.4138
 6706TIP3    H120082   7.118   0.115   5.252 -1.5397 -1.7219 -0.6679
 6706TIP3    H220083   7.240   0.042   5.304 -1.8947 -0.8627  1.4469
 6707TIP3   OH220084   2.765   4.901   3.723  0.0778 -0.2586 -0.4858
 6707TIP3    H120085   2.817   4.978   3.746 -1.0004 -0.0380  1.4060
 6707TIP3    H220086   2.830   4.836   3.694  1.3154  0.3327  0.8361
 6708TIP3   OH220087   2.537   4.240   5.649  0.3826  0.4549  0.0973
 6708TIP3    H120088   2.500   4.174   5.590 -0.2574  0.9931 -0.1096
 6708TIP3    H220089   2.536   4.198   5.735 -1.2889  0.6704  0.2063
 6709TIP3   OH220090   0.201   6.674   1.157 -0.6705  0.5911 -0.1780
 6709TIP3    H120091   0.259   6.697   1.229 -1.1191 -0.8116  0.6722
 6709TIP3    H220092   0.233   6.590   1.125 -0.3954  1.2497 -1.7352
 6710TIP3   OH220093   4.222   2.498   2.760  0.1245  0.4332  0.6104
 6710TIP3    H120094   4.173   2.469   2.837 -2.8821  0.2451 -1.2280
 6710TIP3    H220095   4.220   2.424   2.700  0.3493  1.3479 -0.5731
 6711TIP3   OH220096   2.831   2.560   2.310 -0.4620  0.1603 -0.0437
 6711TIP3    H120097   2.915   2.577   2.353 -0.6758 -2.4100  1.5802
 6711TIP3    H220098   2.783   2.643   2.318  1.2753  1.1670  0.4852
 6712TIP3   OH220099   3.526   0.362   0.183  0.2849  0.3891  0.5684
 6712TIP3    H120100   3.431   0.373   0.190  0.1664  0.4160 -0.7065
 6712TIP3    H220101   3.549   0.297   0.249 -0.6661  0.1965  0.7170
 6713TIP3   OH220102   0.531   5.035   3.062 -0.5219 -0.3841  0.2305
 6713TIP3    H120103   0.522   4.962   3.000 -1.2624  0.9689 -1.3345
 6713TIP3    H220104   0.581   5.101   3.015  1.1564 -0.2746  2.0430
 6714TIP3   OH220105   6.399   5.533   2.792 -0.5593 -0.3029  0.0138
 6714TIP3    H120106   6.438   5.600   2.735  1.4102 -1.4831 -0.1245
 6714TIP3    H220107   6.350   5.583   2.857  1.5118  1.3666  0.4141
 6715TIP3   OH220108   0.815   3.768   3.170  0.5178  0.2954 -0.5117
 6715TIP3    H120109   0.871   3.700   3.132  0.6104 -0.0455  0.2187
 6715TIP3    H220110   0.733   3.724   3.188  1.1863 -0.1576  1.7335
 6716TIP3   OH220111   4.514   3.937   4.008  0.2399 -0.4075  0.0978
 6716TIP3    H120112   4.530   3.847   3.979  1.9841 -0.7207  1.8335
 6716TIP3    H220113   4.553   3.942   4.095  1.3589  2.3863 -0.4385
 6717TIP3   OH220114   2.060   5.409   2.537  0.0412  0.1549  0.1833
 6717TIP3    H120115   2.021   5.475   2.481  1.1777  1.8817  1.3492
 6717TIP3    H220116   2.001   5.402   2.612 -1.9079 -2.7261 -1.4161
 6718TIP3   OH220117   3.797   5.442   0.418  0.5265  0.3307  0.4072
 6718TIP3    H120118   3.865   5.503   0.446  1.1019  0.3148 -0.8719
 6718TIP3    H220119   3.845   5.361   0.399  0.6054  1.0222 -2.8804
 6719TIP3   OH220120   5.567   0.526   0.431  0.2524 -0.5040  0.3035
 6719TIP3    H120121   5.589   0.619   0.434 -0.0284 -0.4597  1.4202
 6719TIP3    H220122   5.474   0.523   0.453 -0.0628 -0.9537 -1.0420
 6720TIP3   OH220123   2.529   6.129   5.295 -0.1431  0.4806 -0.6566
 6720TIP3    H120124   2.584   6.086   5.361  0.2083 -1.2517 -1.9927
 6720TIP3    H220125   2.566   6.102   5.211 -2.5639 -0.1705 -1.6130
 6721TIP3   OH220126   0.333   0.152   3.892  0.1732  0.0907  0.2788
 6721TIP3    H120127   0.239   0.132   3.898 -0.2750  1.5689 -1.1258
 6721TIP3    H220128   0.361   0.162   3.983 -1.4467  1.3248  0.6893
 6722TIP3   OH220129   7.051   5.817   0.923  0.6012  0.5915  0.0354
 6722TIP3    H120130   7.110   5.876   0.876  0.8346  0.6892  0.4465
 6722TIP3    H220131   6.964   5.855   0.911  0.6850  0.7268 -0.1477
 6723TIP3   OH220132   4.147   1.063   5.137 -0.2073  0.2971  0.7525
 6723TIP3    H120133   4.161   1.140   5.191 -0.4056  0.6049  0.3670
 6723TIP3    H220134   4.185   1.085   5.053 -0.1215 -0.0864  0.6906
 6724TIP3   OH220135   0.861   1.919   1.335 -0.1124 -0.0988 -0.3578
 6724TIP3    H120136   0.901   1.965   1.261  0.9861 -0.4498 -0.0129
 6724TIP3    H220137   0.819   1.987   1.387 -0.0969  0.2681 -0.8242
 6725TIP3   OH220138   2.969   5.389   3.561  0.3817 -0.0114  0.3410
 6725TIP3    H120139   2.892   5.375   3.616  1.2435 -2.4461  1.0926
 6725TIP3    H220140   3.011   5.466   3.598  0.6106 -1.2166  2.8338
 6726TIP3   OH220141   6.573   5.902   2.089 -0.2265  0.6445  0.5599
 6726TIP3    H120142   6.606   5.890   2.000 -0.7524 -0.6123  0.5132
 6726TIP3    H220143   6.579   5.996   2.105  0.9490  0.7401 -0.3778
 6727TIP3   OH220144   6.565   0.036   3.505 -0.2164  0.0947  0.0903
 6727TIP3    H120145   6.653   0.023   3.540  0.2290 -1.9289 -1.6094
 6727TIP3    H220146   6.568  -0.003   3.418 -2.6070  0.6329 -0.2869
 6728TIP3   OH220147   0.978   6.626   2.140  0.3187  0.0518 -0.2772
 6728TIP3    H120148   0.990   6.554   2.079 -4.0539  0.5062 -2.0837
 6728TIP3    H220149   0.899   6.602   2.189 -1.2611  3.3965 -0.8868
 6729TIP3   OH220150   0.003   0.421   3.666 -0.5807 -0.3548 -0.1957
 6729TIP3    H120151   0.096   0.409   3.685 -0.8401 -2.6953 -0.0976
 6729TIP3    H220152  -0.011   0.516   3.670  1.4873 -0.0591  1.1922
 6730TIP3   OH220153   6.041   0.284   5.657 -0.5078 -0.0837  0.6086
 6730TIP3    H120154   6.066   0.371   5.627 -0.8087  0.3514  1.5905
 6730TIP3    H220155   5.955   0.269   5.617 -0.4137  0.0292  0.3628
 6731TIP3   OH220156   2.026  -0.007   5.519 -0.0187  0.3551  0.2506
 6731TIP3    H120157   1.958  -0.021   5.452 -0.5775 -0.9049  1.0496
 6731TIP3    H220158   1.986   0.055   5.580  0.6551  1.8586 -0.7503
 6732TIP3   OH220159   4.017   4.344   1.797  0.3891 -0.0759 -0.4699
 6732TIP3    H120160   3.990   4.256   1.770 -0.3577  0.3144 -1.0568
 6732TIP3    H220161   4.008   4.343   1.892 -0.7609 -0.2833 -0.5657
 6733TIP3   OH220162   4.861   1.451   0.613  0.1221 -0.1747  0.0829
 6733TIP3    H120163   4.917   1.511   0.565 -0.5006 -0.2761 -0.7968
 6733TIP3    H220164   4.804   1.412   0.546 -2.4130  1.4504  1.1289
 6734TIP3   OH220165   3.788   6.046   2.898 -0.6307 -0.2063  0.4695
 6734TIP3    H120166   3.715   6.063   2.838 -1.6098 -1.4922  1.2454
 6734TIP3    H220167   3.846   5.988   2.850 -0.1108  0.8165 -0.1515
 6735TIP3   OH220168   2.027   0.772   4.114 -0.0788 -0.6537  0.5381
 6735TIP3    H120169   2.121   0.759   4.102  0.0383 -0.1575  0.8787
 6735TIP3    H220170   1.996   0.690   4.153  0.1792 -0.8797  0.2754
 6736TIP3   OH220171   2.273   2.687   1.872  0.1595 -0.4647 -0.2721
 6736TIP3    H120172   2.312   2.728   1.795  0.3017  0.2363  0.1596
 6736TIP3    H220173   2.348   2.658   1.924  0.0644 -0.9441 -0.4024
 6737TIP3   OH220174   5.809   0.887   4.694 -0.6670  0.0285  0.0024
 6737TIP3    H120175   5.902   0.898   4.673 -0.6850  0.9839  0.3637
 6737TIP3    H220176   5.800   0.920   4.784 -1.8306  2.8004 -0.9944
 6738TIP3   OH220177   3.859   6.000   2.257 -0.2060 -0.6893  0.1234
 6738TIP3    H120178   3.783   6.039   2.300  0.8477  2.1617 -0.3626
 6738TIP3    H220179   3.922   5.985   2.328  0.2200  0.7221  0.0766
 6739TIP3   OH220180   0.777   1.835   5.601 -0.1304 -0.2676 -0.0273
 6739TIP3    H120181   0.691   1.869   5.626  0.2783  1.3734 -0.7124
 6739TIP3    H220182   0.839   1.883   5.655  0.4191 -0.6362 -0.3163
 6740TIP3   OH220183   1.737   4.939   5.140  0.3170 -0.2399 -0.8959
 6740TIP3    H120184   1.787   4.858   5.151  0.3803  0.0282  1.1322
 6740TIP3    H220185   1.645   4.911   5.148  0.3497 -0.0933  0.1008
 6741TIP3   OH220186   6.719   4.184   2.053  0.3627  0.2008 -0.0823
 6741TIP3    H120187   6.755   4.247   2.117  0.1047 -1.2202  1.5353
 6741TIP3    H220188   6.717   4.233   1.971  2.8285  1.4214  0.4672
 6742TIP3   OH220189   0.772   4.382   3.785 -0.5961 -0.2048  0.3712
 6742TIP3    H120190   0.796   4.408   3.874 -0.1250 -1.4064  0.6158
 6742TIP3    H220191   0.693   4.433   3.766  0.5118  1.6705  0.6405
 6743TIP3   OH220192   2.191   4.486   2.379  0.3103  0.5915  0.0689
 6743TIP3    H120193   2.278   4.521   2.398  1.8683 -2.1390 -1.3222
 6743TIP3    H220194   2.152   4.549   2.319  1.4277  1.7183  0.4702
 6744TIP3   OH220195   4.689   2.771   2.423  0.5216  0.1047  0.2046
 6744TIP3    H120196   4.621   2.706   2.403  1.4862 -0.3625 -1.8419
 6744TIP3    H220197   4.693   2.826   2.345  2.2473  0.3399  0.4268
 6745TIP3   OH220198   4.735   1.811   1.212  0.4692 -0.0550  0.0985
 6745TIP3    H120199   4.805   1.847   1.267  1.4064 -1.4501 -0.1127
 6745TIP3    H220200   4.765   1.825   1.123  1.2743 -1.9783  0.0022
 6746TIP3   OH220201   2.478   3.203   1.429  0.4441  0.1193  0.0452
 6746TIP3    H120202   2.412   3.234   1.491 -0.2454  0.9206 -1.0475
 6746TIP3    H220203   2.428   3.155   1.363  1.2572 -1.3954  0.4954
 6747TIP3   OH220204   3.243   1.549   0.766  0.4037  0.3065 -0.2246
 6747TIP3    H120205   3.181   1.544   0.839  0.9158  0.3186  0.2157
 6747TIP3    H220206   3.328   1.529   0.805  1.3385  3.9480 -0.0051
 6748TIP3   OH220207   1.816   1.132   2.118 -0.2056  0.1991  0.2581
 6748TIP3    H120208   1.721   1.131   2.104  0.0512 -1.6227 -1.9345
 6748TIP3    H220209   1.842   1.222   2.098 -1.2567  0.2332 -1.0886
 6749TIP3   OH220210   1.510   0.762   0.464 -0.4352 -0.1003 -0.2165
 6749TIP3    H120211   1.558   0.681   0.481  1.4144  1.1904  1.1089
 6749TIP3    H220212   1.480   0.754   0.373 -2.3129 -3.1982  0.5162
 6750TIP3   OH220213   1.746   5.537   5.646 -0.3520 -0.2177  0.2075
 6750TIP3    H120214   1.698   5.528   5.564  1.4447  3.1165 -1.4153
 6750TIP3    H220215   1.714   5.619   5.685  1.9432  0.6557  0.4496
 6751TIP3   OH220216   7.076   1.309   3.118  0.4729  0.0277 -0.4282
 6751TIP3    H120217   7.129   1.385   3.095 -1.9489  1.8004 -0.5259
 6751TIP3    H220218   7.108   1.239   3.062  2.8231  0.8986 -0.2959
 6752TIP3   OH220219   6.379   4.240   5.177  0.2594  0.4819  0.5900
 6752TIP3    H120220   6.420   4.327   5.173  1.4489 -0.0190  1.4266
 6752TIP3    H220221   6.448   4.180   5.148  0.2140 -0.4173  2.2631
 6753TIP3   OH220222   1.569   1.956   1.093  0.2511 -0.2592  0.1449
 6753TIP3    H120223   1.576   1.929   1.185  0.5453 -0.4798  0.0584
 6753TIP3    H220224   1.618   2.039   1.090 -2.6830  1.6497  0.9453
 6754TIP3   OH220225   7.145   2.149   4.018 -0.4515 -0.1256 -0.2310
 6754TIP3    H120226   7.125   2.068   3.971 -0.6488  1.7021 -3.5956
 6754TIP3    H220227   7.237   2.141   4.043 -0.2918 -1.1246 -1.0945
 6755TIP3   OH220228   5.422   2.635   3.410  0.0354 -0.4628  0.9459
 6755TIP3    H120229   5.501   2.677   3.377  1.6486 -2.6049  1.8363
 6755TIP3    H220230   5.374   2.608   3.332  0.5277  0.2349  0.3911
 6756TIP3   OH220231   3.786   1.498   1.545  0.1341 -0.0873  0.1172
 6756TIP3    H120232   3.806   1.527   1.456  0.6332 -0.5582  0.0734
 6756TIP3    H220233   3.836   1.557   1.601 -2.2235  2.0005  0.2502
 6757TIP3   OH220234   1.613   2.514   4.033  0.2987 -0.5558  0.5655
 6757TIP3    H120235   1.669   2.550   3.965  1.1489 -0.4943  1.2753
 6757TIP3    H220236   1.672   2.502   4.108 -0.0444 -3.0604  0.4941
 6758TIP3   OH220237   5.503   3.708   1.824 -0.2951 -0.5262  0.3382
 6758TIP3    H120238   5.437   3.734   1.759  1.0974  1.1166 -0.5165
 6758TIP3    H220239   5.579   3.682   1.771  0.8309  0.7371  1.2731
 6759TIP3   OH220240   1.164   0.286   1.062 -0.7340 -0.4637  0.2180
 6759TIP3    H120241   1.226   0.224   1.100  0.3361  1.2384  1.3891
 6759TIP3    H220242   1.078   0.253   1.090 -0.1365 -0.9166  1.5995
 6760TIP3   OH220243   6.480   4.899   1.600  0.5960 -0.5562  0.1708
 6760TIP3    H120244   6.453   4.980   1.557 -0.0671 -1.3102 -0.9172
 6760TIP3    H220245   6.476   4.833   1.530 -0.3926 -1.8260  1.3729
 6761TIP3   OH220246   5.280   6.252   2.303  0.0564 -0.4448  0.5793
 6761TIP3    H120247   5.344   6.191   2.267 -0.6158 -0.9441  0.2121
 6761TIP3    H220248   5.247   6.300   2.227  0.6933  0.5041  0.8791
 6762TIP3   OH220249   1.207   4.976   5.697 -0.3699  0.2875 -0.5715
 6762TIP3    H120250   1.211   4.880   5.701 -0.7163  0.2700 -0.6386
 6762TIP3    H220251   1.155   5.002   5.773 -0.8959  0.3754 -0.9540
 6763TIP3   OH220252   3.259   3.753   4.326 -0.2306 -0.1430  0.1750
 6763TIP3    H120253   3.338   3.743   4.274  0.6534 -0.6763  1.5603
 6763TIP3    H220254   3.281   3.715   4.411 -1.7858  0.2227  0.7820
 6764TIP3   OH220255   6.538   6.703   2.964  0.1371  0.1710 -0.7426
 6764TIP3    H120256   6.444   6.721   2.959 -0.5209 -2.7284 -0.2093
 6764TIP3    H220257   6.575   6.755   2.893 -1.8983  1.1235 -1.1940
 6765TIP3   OH220258   3.545   6.037   2.050  0.5096 -0.1320  0.1189
 6765TIP3    H120259   3.537   5.972   2.119 -0.1861  1.6252  1.7790
 6765TIP3    H220260   3.461   6.033   2.004  1.2126 -1.7583 -1.1254
 6766TIP3   OH220261   4.183   0.854   3.702  0.4397  0.3437  0.4170
 6766TIP3    H120262   4.197   0.822   3.791 -0.2431  0.3452  0.5320
 6766TIP3    H220263   4.271   0.866   3.667  0.7151 -0.6143  0.7449
 6767TIP3   OH220264   1.523   4.952   1.994 -0.7612  0.3032  0.6207
 6767TIP3    H120265   1.433   4.984   1.986 -1.0135 -0.7520 -1.4198
 6767TIP3    H220266   1.514   4.860   2.019 -0.4821 -0.6876 -2.4391
 6768TIP3   OH220267   4.278   6.538   0.490 -0.1052 -0.1540  0.2282
 6768TIP3    H120268   4.345   6.470   0.488  1.1316  1.0150 -0.1151
 6768TIP3    H220269   4.205   6.501   0.441  1.0995 -0.7029 -1.2779
 6769TIP3   OH220270   4.831   0.678   2.184  0.7676 -0.7989  0.3763
 6769TIP3    H120271   4.881   0.602   2.214  0.1381 -0.9315  1.1010
 6769TIP3    H220272   4.740   0.648   2.184  0.6791 -0.6253 -1.1204
 6770TIP3   OH220273   3.762   3.553   3.310  0.3230 -0.4369 -0.0994
 6770TIP3    H120274   3.759   3.517   3.222 -0.3788  0.6958 -0.5636
 6770TIP3    H220275   3.802   3.640   3.299 -0.0922 -0.1468  0.6370
 6771TIP3   OH220276   0.000   3.231   1.795  0.0180  0.8377  0.6593
 6771TIP3    H120277   0.073   3.271   1.843 -0.4385  1.5618  0.7550
 6771TIP3    H220278  -0.068   3.298   1.795  0.4548  1.3969 -2.1275
 6772TIP3   OH220279   6.999   1.549   3.353  0.5732 -0.3201  0.2327
 6772TIP3    H120280   7.035   1.566   3.266 -0.3025  0.6008  0.0314
 6772TIP3    H220281   7.054   1.601   3.412 -0.5954  1.4284 -0.1192
 6773TIP3   OH220282   6.402   1.023   4.630  0.0993  0.3534  0.1567
 6773TIP3    H120283   6.479   0.971   4.607 -0.2210 -0.2930  0.5121
 6773TIP3    H220284   6.368   1.054   4.546  0.3007 -0.0071 -0.0590
 6774TIP3   OH220285   6.585   1.701   5.408 -0.1996 -0.3583  0.4843
 6774TIP3    H120286   6.502   1.677   5.366  0.5495 -0.9750 -0.7231
 6774TIP3    H220287   6.590   1.796   5.398 -0.6823 -0.3354  0.4097
 6775TIP3   OH220288   4.952   3.559   4.581  0.4435  0.1008 -0.8283
 6775TIP3    H120289   4.971   3.583   4.671  0.1234  2.0225 -1.2398
 6775TIP3    H220290   5.029   3.588   4.532  1.5247 -2.6879 -0.9912
 6776TIP3   OH220291   1.686   3.160   5.425  0.2209  0.8599  0.3379
 6776TIP3    H120292   1.739   3.197   5.495  0.9277  0.6821 -0.0928
 6776TIP3    H220293   1.723   3.196   5.345 -0.3299  0.7553  0.0297
 6777TIP3   OH220294   5.674   4.513   5.221  0.3496 -0.2698 -0.0098
 6777TIP3    H120295   5.662   4.430   5.266  0.6376  0.1438  0.8468
 6777TIP3    H220296   5.738   4.493   5.152  0.4896 -0.7354  0.2475
 6778TIP3   OH220297   6.250   3.215   2.988 -0.3255  0.1583  0.6731
 6778TIP3    H120298   6.335   3.249   3.015 -0.8065  1.2205  0.8946
 6778TIP3    H220299   6.197   3.217   3.068 -0.4608 -0.8316  0.6191
 6779TIP3   OH220300   6.740   1.577   4.840 -0.4205 -0.1778 -0.8576
 6779TIP3    H120301   6.774   1.627   4.914  1.4045 -1.1673 -0.9729
 6779TIP3    H220302   6.688   1.641   4.790  1.7650  1.6455 -0.9712
 6780TIP3   OH220303   0.948   2.883   5.667  0.1405 -0.0278  0.4649
 6780TIP3    H120304   0.943   2.973   5.697 -1.2588  0.2317 -0.4522
 6780TIP3    H220305   0.871   2.872   5.611 -0.4212 -2.1679  1.5535
 6781TIP3   OH220306   4.097   2.403   1.402 -0.1421 -0.2072 -0.1059
 6781TIP3    H120307   4.018   2.354   1.380 -0.8419  0.6943  0.2877
 6781TIP3    H220308   4.070   2.460   1.475  0.6408  0.7038 -0.4969
 6782TIP3   OH220309   4.451   4.773   4.902 -0.2847 -0.1141  0.1085
 6782TIP3    H120310   4.537   4.785   4.861 -0.7749  1.6582 -0.5091
 6782TIP3    H220311   4.400   4.725   4.837  0.0961 -0.7985  0.3025
 6783TIP3   OH220312   3.466   4.276   4.771  0.0351 -0.3052 -0.0435
 6783TIP3    H120313   3.531   4.338   4.738  0.6925  0.1903  2.0223
 6783TIP3    H220314   3.407   4.329   4.824  1.7299 -1.5631  3.4230
 6784TIP3   OH220315   6.519   1.735   2.835 -0.2128 -0.7389  0.2580
 6784TIP3    H120316   6.574   1.795   2.784  0.2894 -0.4314  1.1319
 6784TIP3    H220317   6.443   1.788   2.860  1.6023  0.6058  3.5972
 6785TIP3   OH220318   2.470   5.377   5.148  0.2214  0.4225  0.3103
 6785TIP3    H120319   2.383   5.352   5.118 -0.7175  3.6726 -0.0239
 6785TIP3    H220320   2.468   5.361   5.243 -0.4239 -0.3196  0.1820
 6786TIP3   OH220321   4.133   5.506   2.914  0.2005  0.7143 -0.3970
 6786TIP3    H120322   4.164   5.537   2.999  1.0405 -1.4896  0.1550
 6786TIP3    H220323   4.038   5.509   2.921  0.2608  0.7276  0.5533
 6787TIP3   OH220324   3.406   0.847   2.088  0.3182 -0.3285  0.1086
 6787TIP3    H120325   3.372   0.893   2.165  1.1550 -0.7351  0.7419
 6787TIP3    H220326   3.490   0.812   2.117  0.8073 -0.1966 -1.1102
 6788TIP3   OH220327   3.516   4.778   4.491 -0.2436 -0.0717  0.6591
 6788TIP3    H120328   3.574   4.774   4.415  0.5628  0.5491  1.2220
 6788TIP3    H220329   3.568   4.823   4.558 -1.2905  0.2622  1.2599
 6789TIP3   OH220330   4.736   3.225   5.443  0.1244 -0.5679 -0.3465
 6789TIP3    H120331   4.675   3.282   5.396  0.2665 -0.7996 -0.8166
 6789TIP3    H220332   4.720   3.244   5.535  1.0305  1.1775 -0.4938
 6790TIP3   OH220333   1.521   2.921   2.503 -0.2065 -0.2083  0.4033
 6790TIP3    H120334   1.573   2.877   2.435  0.8658  1.5734  0.0041
 6790TIP3    H220335   1.535   2.869   2.582  3.5704  1.0027  0.7169
 6791TIP3   OH220336   6.143   0.908   5.371 -0.0592  0.3989  0.1834
 6791TIP3    H120337   6.126   0.939   5.460  2.1355 -0.6600  1.0296
 6791TIP3    H220338   6.218   0.959   5.341 -0.3706  0.2849 -0.8286
 6792TIP3   OH220339   6.410   4.432   3.877  0.0161  0.1588  0.2808
 6792TIP3    H120340   6.373   4.398   3.796  0.3165  2.1749 -0.7711
 6792TIP3    H220341   6.472   4.365   3.905  0.7714 -0.0827 -1.8112
 6793TIP3   OH220342   5.245   6.083   0.768 -0.2083  0.2015 -0.2219
 6793TIP3    H120343   5.323   6.138   0.759 -0.3429  0.1655 -1.7949
 6793TIP3    H220344   5.199   6.092   0.685 -0.1598 -2.4192 -0.6209
 6794TIP3   OH220345   3.316   1.308   4.236  0.3526  0.1021 -0.4561
 6794TIP3    H120346   3.342   1.240   4.297  1.7871  1.0990  0.0728
 6794TIP3    H220347   3.288   1.260   4.157 -0.5654 -1.1437  0.5875
 6795TIP3   OH220348   5.824   0.463   2.389  0.3297 -0.6480 -0.2294
 6795TIP3    H120349   5.795   0.449   2.480 -1.5820  0.4648 -0.5981
 6795TIP3    H220350   5.919   0.458   2.393  0.3391  0.0863  1.9758
 6796TIP3   OH220351   0.096   4.603   5.278  0.2225  0.4438 -0.0039
 6796TIP3    H120352   0.005   4.605   5.307 -0.0058  0.1265 -0.6818
 6796TIP3    H220353   0.147   4.622   5.357 -0.4700  1.6500  0.1765
 6797TIP3   OH220354   1.849   4.359   2.381 -0.3148  0.3547  0.2590
 6797TIP3    H120355   1.898   4.359   2.464 -0.5053 -0.7164  0.3903
 6797TIP3    H220356   1.833   4.266   2.363 -0.1994  0.5679 -1.0355
 6798TIP3   OH220357   4.572   6.574   0.206  0.2542 -0.6459  0.3466
 6798TIP3    H120358   4.587   6.510   0.276 -2.6972  1.1757  2.8992
 6798TIP3    H220359   4.636   6.643   0.223  2.0795 -1.8451 -1.1952
 6799TIP3   OH220360   5.562   0.534   2.747 -0.1758  0.0622  0.2467
 6799TIP3    H120361   5.611   0.573   2.819  1.9696 -1.0576 -0.5008
 6799TIP3    H220362   5.589   0.582   2.670 -1.0699  0.0812 -0.0681
 6800TIP3   OH220363   1.019   0.786   4.186  0.6923  0.5128 -0.1021
 6800TIP3    H120364   0.983   0.697   4.178 -1.4162  1.1729  1.1687
 6800TIP3    H220365   0.971   0.836   4.120  2.7842  0.5279 -1.7084
 6801TIP3   OH220366   2.457   2.334   2.917 -0.0595  0.0575 -0.1426
 6801TIP3    H120367   2.542   2.343   2.960 -0.2993 -1.0974  0.6151
 6801TIP3    H220368   2.443   2.418   2.875  2.4040 -0.3527 -2.0530
 6802TIP3   OH220369   3.403   3.732   5.360 -0.2989  0.1481  0.3461
 6802TIP3    H120370   3.344   3.705   5.290  1.1311 -2.4363  0.0226
 6802TIP3    H220371   3.430   3.651   5.402  2.5940  1.2289  0.8394
 6803TIP3   OH220372   5.935   0.332   3.912  0.3730  0.4573 -0.3970
 6803TIP3    H120373   5.928   0.375   3.826 -1.3024 -0.5199 -0.7949
 6803TIP3    H220374   6.021   0.357   3.944  1.0453  0.8694 -2.3643
 6804TIP3   OH220375   2.561   3.868   2.919 -0.8651  0.4677  0.0546
 6804TIP3    H120376   2.489   3.897   2.975 -0.3296  0.1709  0.9219
 6804TIP3    H220377   2.539   3.902   2.833 -2.0449  0.3847  0.2981
 6805TIP3   OH220378   3.132   0.314   2.268 -0.6095  0.2480 -0.0268
 6805TIP3    H120379   3.102   0.391   2.219 -0.3674  0.1958 -0.2646
 6805TIP3    H220380   3.220   0.297   2.233  1.1035  2.3266  2.8118
 6806TIP3   OH220381   5.738   2.328   0.562  0.3064 -0.1514 -0.0306
 6806TIP3    H120382   5.704   2.262   0.622 -0.8092  0.8799  0.5184
 6806TIP3    H220383   5.697   2.308   0.478  0.7358 -0.7288 -0.1060
 6807TIP3   OH220384   2.510   2.787   5.547 -0.7220  0.0121  0.1756
 6807TIP3    H120385   2.569   2.843   5.597 -0.3571  0.8250 -1.0995
 6807TIP3    H220386   2.452   2.747   5.612 -1.3291  2.2644  1.0880
 6808TIP3   OH220387   3.795   3.956   1.486 -0.4026 -0.2752 -0.0089
 6808TIP3    H120388   3.798   3.871   1.444  1.2247  0.7856 -2.2501
 6808TIP3    H220389   3.707   3.989   1.468 -0.6079 -0.9499 -0.2492
 6809TIP3   OH220390   1.076   0.716   3.751  0.1260  0.1522  0.5581
 6809TIP3    H120391   1.130   0.654   3.702  1.1103 -1.1624  3.1583
 6809TIP3    H220392   1.044   0.777   3.684  0.5363 -2.0903 -1.8621
 6810TIP3   OH220393   0.690   0.897   4.797 -0.4862 -0.2080  0.1678
 6810TIP3    H120394   0.683   0.824   4.860 -2.7895 -1.1297 -1.0368
 6810TIP3    H220395   0.763   0.950   4.830  1.5541 -3.2091  0.9171
 6811TIP3   OH220396   4.238   2.233   1.247 -0.1883 -0.1695  0.2268
 6811TIP3    H120397   4.304   2.294   1.213  0.4854 -0.5910  0.7728
 6811TIP3    H220398   4.175   2.289   1.293 -0.7697  0.3440 -1.1352
 6812TIP3   OH220399   7.096   3.638   4.279  0.4307 -0.3769  0.0286
 6812TIP3    H120400   7.077   3.673   4.367  3.2238  1.7314 -0.0809
 6812TIP3    H220401   7.083   3.712   4.221 -0.1458 -1.4322 -1.2497
 6813TIP3   OH220402   0.706   3.859   2.448  0.0226 -0.1540  0.0409
 6813TIP3    H120403   0.710   3.819   2.361 -1.9886 -2.0781  0.7310
 6813TIP3    H220404   0.617   3.841   2.478 -0.1714  2.7299  1.4944
 6814TIP3   OH220405   6.375   3.621   2.053 -0.3607 -0.2829  0.2540
 6814TIP3    H120406   6.302   3.663   2.008 -0.8201 -1.6916 -0.3712
 6814TIP3    H220407   6.347   3.531   2.066  0.3269 -0.2799  2.1475
 6815TIP3   OH220408   0.046   3.872   4.135 -0.9194 -0.5143 -0.0508
 6815TIP3    H120409  -0.020   3.941   4.138  1.0539  1.6629 -2.3086
 6815TIP3    H220410   0.058   3.855   4.041  2.1689 -0.2629  0.1848
 6816TIP3   OH220411   6.216   1.028   1.090 -0.1506  0.5072  0.0362
 6816TIP3    H120412   6.168   0.992   1.164 -1.7709 -0.5555 -1.4464
 6816TIP3    H220413   6.173   1.112   1.073 -1.3903 -0.3025 -1.0930
 6817TIP3   OH220414   4.784   3.449   4.159 -0.2549  0.2999  0.3321
 6817TIP3    H120415   4.821   3.386   4.220  0.3730 -0.0977 -0.4338
 6817TIP3    H220416   4.813   3.534   4.191  0.8150  0.0347  0.1003
 6818TIP3   OH220417   0.518   5.662   2.809 -0.0776  0.2914  0.6619
 6818TIP3    H120418   0.430   5.654   2.773  0.2261 -0.0733 -0.0069
 6818TIP3    H220419   0.575   5.621   2.744  0.5533  0.2423  1.2357
 6819TIP3   OH220420   6.674   4.329   0.527  0.2149 -0.1510  0.7881
 6819TIP3    H120421   6.705   4.402   0.473  0.4413  0.0492  1.1800
 6819TIP3    H220422   6.640   4.371   0.607 -0.2299 -0.4332  0.7518
 6820TIP3   OH220423   0.708   0.819   2.598 -0.7413  0.2944 -0.3407
 6820TIP3    H120424   0.672   0.757   2.534 -1.3798 -0.2049  0.4759
 6820TIP3    H220425   0.661   0.799   2.680  1.9709 -0.9466  1.0254
 6821TIP3   OH220426   0.227   3.650   0.966 -0.3036 -0.7536  0.3040
 6821TIP3    H120427   0.187   3.639   0.880  0.8581  0.3827 -0.4150
 6821TIP3    H220428   0.202   3.571   1.014 -0.6409 -1.6072 -1.2047
 6822TIP3   OH220429   0.996   0.836   2.635 -0.2595 -0.2071  0.4283
 6822TIP3    H120430   0.920   0.817   2.580 -1.5958 -0.5815  2.3178
 6822TIP3    H220431   1.023   0.752   2.670  1.1192 -0.0883 -0.2690
 6823TIP3   OH220432   2.947   4.261   5.237 -0.1105  0.4474 -0.1956
 6823TIP3    H120433   2.890   4.197   5.279  2.3923 -0.7402  1.6870
 6823TIP3    H220434   2.959   4.227   5.148 -0.7704 -0.3794  0.0147
 6824TIP3   OH220435   1.869   5.057   3.331  0.0711 -0.2000 -0.2892
 6824TIP3    H120436   1.925   5.099   3.266  0.5239  2.5870  1.7247
 6824TIP3    H220437   1.919   5.062   3.412 -1.6637 -0.8877  0.8700
 6825TIP3   OH220438   1.671   6.655   1.678 -0.9061  0.1439  0.3687
 6825TIP3    H120439   1.715   6.586   1.728  3.3637  2.0284 -0.3571
 6825TIP3    H220440   1.637   6.715   1.744 -1.0113 -0.5700  0.9740
 6826TIP3   OH220441   5.110   5.606   5.122 -0.3305  0.0901  0.0120
 6826TIP3    H120442   5.192   5.559   5.133  0.7699  2.2877  2.4639
 6826TIP3    H220443   5.126   5.667   5.049  0.3296  0.6733  0.6365
 6827TIP3   OH220444   4.773   0.617   0.735 -0.2928  0.0617 -0.4364
 6827TIP3    H120445   4.777   0.523   0.716 -0.6272 -0.0232 -0.0917
 6827TIP3    H220446   4.769   0.622   0.830  0.8526  0.4655 -0.3957
 6828TIP3   OH220447   4.831   1.896   3.143 -0.1741  0.3918 -0.2032
 6828TIP3    H120448   4.825   1.987   3.173 -0.6810 -0.0083  0.9836
 6828TIP3    H220449   4.798   1.844   3.217 -2.3230 -0.6087 -1.7441
 6829TIP3   OH220450   0.396   1.807   1.040 -0.0270 -0.1094  0.4525
 6829TIP3    H120451   0.469   1.766   0.995  0.8432  0.2774  1.4509
 6829TIP3    H220452   0.423   1.810   1.132 -1.7215 -0.8495  1.0186
 6830TIP3   OH220453   6.654  -0.022   0.968  0.0421  0.0717  0.1716
 6830TIP3    H120454   6.574   0.029   0.954 -0.3561 -0.7156 -0.5657
 6830TIP3    H220455   6.715   0.011   0.902 -0.7884 -1.5092 -1.4865
 6831TIP3   OH220456   2.155   1.000   3.858 -0.4446 -0.3351 -0.3570
 6831TIP3    H120457   2.137   1.032   3.769  0.5744 -0.5632 -0.6595
 6831TIP3    H220458   2.070   1.002   3.901 -0.4369  3.4075 -0.1452
 6832TIP3   OH220459   6.367   6.452   2.414 -0.2337 -0.0871 -0.2499
 6832TIP3    H120460   6.407   6.365   2.414 -0.2187 -0.0868  0.2875
 6832TIP3    H220461   6.346   6.468   2.506 -1.3241 -0.0246 -0.4981
 6833TIP3   OH220462   6.423   0.620   3.711  0.4962 -0.1440  0.3011
 6833TIP3    H120463   6.492   0.571   3.667  1.2497 -1.5773  2.8708
 6833TIP3    H220464   6.342   0.594   3.666  1.2693 -0.9954 -0.6494
 6834TIP3   OH220465   3.768   2.077   4.853  0.1565  0.2019 -0.0879
 6834TIP3    H120466   3.742   2.152   4.800  0.1849  1.5087  1.6519
 6834TIP3    H220467   3.745   2.102   4.943  1.8480 -1.1127  0.7775
 6835TIP3   OH220468   0.218   4.212   5.093  0.4605 -0.3408  0.7645
 6835TIP3    H120469   0.183   4.291   5.051 -1.1720 -1.0358  0.7520
 6835TIP3    H220470   0.141   4.167   5.126  1.4427 -1.5632  1.4390
 6836TIP3   OH220471   0.171   3.094   2.155 -0.0957 -0.1710 -0.2167
 6836TIP3    H120472   0.081   3.066   2.172  0.1021 -0.4064  0.5370
 6836TIP3    H220473   0.215   3.082   2.240  0.5419  0.3276 -0.4723
 6837TIP3   OH220474   5.942   6.418   1.160 -0.3796 -0.7358  0.0111
 6837TIP3    H120475   5.861   6.368   1.166 -2.8482  2.3171 -3.2052
 6837TIP3    H220476   5.934   6.485   1.229 -0.4149 -0.6731 -0.0536
 6838TIP3   OH220477   3.133   0.066   3.834  0.1357  0.0851 -0.3146
 6838TIP3    H120478   3.108   0.004   3.903 -0.9376  1.5678  0.6821
 6838TIP3    H220479   3.220   0.095   3.859 -0.7685  1.6376  1.2499
 6839TIP3   OH220480   4.358   3.786   4.431  1.0062 -0.0593 -0.3762
 6839TIP3    H120481   4.389   3.749   4.513  0.4572  0.0048 -0.1408
 6839TIP3    H220482   4.299   3.720   4.395 -0.2003  0.6835  0.1839
 6840TIP3   OH220483   4.628   1.868   3.638 -0.0547  0.3944 -0.0887
 6840TIP3    H120484   4.590   1.894   3.721 -0.8942  0.9133 -0.6218
 6840TIP3    H220485   4.664   1.949   3.602 -0.2000  0.2881 -0.4804
 6841TIP3   OH220486   3.269   1.118   4.001  0.3318  0.0582  0.3394
 6841TIP3    H120487   3.313   1.143   3.919  0.2134 -0.6885  0.0454
 6841TIP3    H220488   3.176   1.138   3.984  0.4527  1.0265  0.7303
 6842TIP3   OH220489   6.213   3.172   2.723  0.2716  0.2493  0.0746
 6842TIP3    H120490   6.201   3.191   2.816  0.1353  0.3024  0.0473
 6842TIP3    H220491   6.293   3.220   2.699  0.0339  0.6412  0.0519
 6843TIP3   OH220492   1.192   2.439   3.928  0.3609  0.2806 -0.2730
 6843TIP3    H120493   1.250   2.376   3.886 -0.4401 -0.6701  0.0159
 6843TIP3    H220494   1.160   2.494   3.857 -2.1057 -2.1850 -1.2930
 6844TIP3   OH220495   6.392   0.549   4.314 -0.8532 -0.5718 -0.0193
 6844TIP3    H120496   6.377   0.640   4.339  0.4508 -0.8511  1.9867
 6844TIP3    H220497   6.409   0.553   4.219 -2.0560  1.0764 -0.2180
 6845TIP3   OH220498   6.701   2.740   2.417  0.3581  0.1236  0.4502
 6845TIP3    H120499   6.718   2.649   2.390  0.7528 -0.0796  1.3660
 6845TIP3    H220500   6.635   2.770   2.355  1.5680 -0.1753 -1.0656
 6846TIP3   OH220501   7.112   1.579   4.389  0.3621  0.3057  0.1746
 6846TIP3    H120502   7.133   1.519   4.318  0.9133 -0.2621  0.8117
 6846TIP3    H220503   7.116   1.526   4.469  0.0186  0.9914  0.6680
 6847TIP3   OH220504   4.256   1.398   2.569  0.1602  0.0566  0.2265
 6847TIP3    H120505   4.293   1.390   2.657 -0.9549 -0.1336  0.7004
 6847TIP3    H220506   4.220   1.311   2.550  1.2791 -0.1922 -0.8487
 6848TIP3   OH220507   1.932   3.545   4.567  0.2985  0.0270  0.3666
 6848TIP3    H120508   2.008   3.520   4.515 -1.0170  0.4634 -1.9200
 6848TIP3    H220509   1.901   3.462   4.605  1.7910 -0.1704  1.2228
 6849TIP3   OH220510   0.393   6.033   5.623  0.2557 -0.8162 -0.1216
 6849TIP3    H120511   0.384   6.114   5.673 -0.6574 -1.7088  1.2246
 6849TIP3    H220512   0.442   5.974   5.680  3.2153 -0.4749 -2.0765
 6850TIP3   OH220513   7.045   5.639   4.720  0.0089  0.2898  0.2761
 6850TIP3    H120514   7.105   5.565   4.725  0.9808  1.1253  1.9750
 6850TIP3    H220515   6.965   5.602   4.685  1.1862 -1.0742 -1.1354
 6851TIP3   OH220516   5.603   1.309   4.027  1.0713 -0.1603 -0.6793
 6851TIP3    H120517   5.614   1.399   4.056  2.9783 -0.4136 -0.4875
 6851TIP3    H220518   5.642   1.307   3.940  2.8061 -1.1600  0.0555
 6852TIP3   OH220519   2.724   2.077   2.552  0.8616 -0.0770 -0.1102
 6852TIP3    H120520   2.740   2.141   2.482  0.2326  0.0443 -0.1520
 6852TIP3    H220521   2.714   2.130   2.631  3.4588 -0.3067  0.4760
 6853TIP3   OH220522   2.505   0.056   5.906 -0.3007 -0.2796 -0.3683
 6853TIP3    H120523   2.592   0.048   5.867  0.1631 -0.4900  0.6574
 6853TIP3    H220524   2.444   0.046   5.833  0.5343  0.1331 -1.1463
 6854TIP3   OH220525   1.854   2.507   0.594  0.1500 -0.5730 -0.0035
 6854TIP3    H120526   1.812   2.592   0.606 -0.1734 -0.9701  2.0704
 6854TIP3    H220527   1.807   2.466   0.522 -0.4336  0.5639 -0.2813
 6855TIP3   OH220528   2.606   5.696   1.133  0.4262  0.2882  0.2318
 6855TIP3    H120529   2.654   5.768   1.173  1.9074 -1.4353  1.7380
 6855TIP3    H220530   2.543   5.739   1.074  3.6379  2.7211 -1.7529
 6856TIP3   OH220531   2.320   4.788   4.895 -0.0801 -0.5963  0.0766
 6856TIP3    H120532   2.256   4.733   4.851 -2.2297  2.5338 -1.0801
 6856TIP3    H220533   2.386   4.806   4.829  0.2639 -1.1949  0.2497
 6857TIP3   OH220534   4.433   2.947   5.188 -0.2389  0.0497  0.6943
 6857TIP3    H120535   4.368   2.958   5.118  1.9821 -0.7347 -1.6659
 6857TIP3    H220536   4.508   2.907   5.144  2.9636  3.4005  2.6178
 6858TIP3   OH220537   4.941   4.827   5.200 -0.0414  0.5554  0.2749
 6858TIP3    H120538   4.950   4.900   5.262  2.5152 -0.3468  1.1036
 6858TIP3    H220539   5.004   4.762   5.231 -0.5740 -1.0337 -1.8029
 6859TIP3   OH220540   6.503   1.572   3.971 -0.0492  0.1127  0.5648
 6859TIP3    H120541   6.408   1.566   3.978 -0.1202 -0.7077 -0.8135
 6859TIP3    H220542   6.536   1.534   4.053 -0.8934 -0.2589  0.7352
 6860TIP3   OH220543   1.063   0.589   4.738  0.4874  0.3832 -0.3205
 6860TIP3    H120544   1.099   0.636   4.663  1.9243  0.5674  0.4591
 6860TIP3    H220545   1.011   0.654   4.785 -0.6588  0.1939 -1.2843
 6861TIP3   OH220546   2.847   1.509   2.494 -0.0127 -0.0376  0.1818
 6861TIP3    H120547   2.934   1.471   2.482  0.1388 -0.5344  2.4240
 6861TIP3    H220548   2.863   1.595   2.533 -0.4998 -0.0257  0.3682
 6862TIP3   OH220549   5.628   6.003   0.506  0.3375 -0.1927 -0.5671
 6862TIP3    H120550   5.682   5.934   0.468  1.5314  0.2770  0.1676
 6862TIP3    H220551   5.587   5.962   0.583  1.1505 -0.0768 -0.0537
 6863TIP3   OH220552   1.758   6.461   2.869  0.5772  0.2080  0.3193
 6863TIP3    H120553   1.721   6.547   2.890 -0.2179 -0.1830  0.5827
 6863TIP3    H220554   1.768   6.461   2.774  0.2251  0.4660  0.2795
 6864TIP3   OH220555   0.195   6.055   4.663 -0.1093  0.2188  0.0493
 6864TIP3    H120556   0.106   6.019   4.665 -0.1254  0.2745  1.5344
 6864TIP3    H220557   0.183   6.148   4.684  0.1862  0.5099 -1.0478
 6865TIP3   OH220558   0.697   0.571   5.744 -0.0698 -0.0108 -0.0179
 6865TIP3    H120559   0.701   0.659   5.782 -1.5842  0.5665 -1.1155
 6865TIP3    H220560   0.670   0.585   5.653 -1.2457 -1.6569  0.0393
 6866TIP3   OH220561   1.540   6.106   2.636 -0.2184 -0.1616 -0.0142
 6866TIP3    H120562   1.506   6.136   2.721 -0.2439  1.1206 -0.4604
 6866TIP3    H220563   1.464   6.070   2.591 -0.5605  0.7221 -0.1565
 6867TIP3   OH220564   5.409   0.460   3.007 -0.0976 -0.5638  0.7611
 6867TIP3    H120565   5.335   0.398   3.007  0.7217 -1.6257  2.1963
 6867TIP3    H220566   5.443   0.458   2.918 -1.3044 -0.6671  0.2873
 6868TIP3   OH220567   3.170   2.011   2.372 -0.0667  0.0888  0.7320
 6868TIP3    H120568   3.204   1.940   2.427  0.9266 -1.8754 -2.2007
 6868TIP3    H220569   3.248   2.058   2.343 -0.4332  0.1984 -0.1039
 6869TIP3   OH220570   3.748   5.423   3.917 -0.0055  0.1503  0.2374
 6869TIP3    H120571   3.697   5.502   3.902 -1.0305 -0.6102 -0.4204
 6869TIP3    H220572   3.791   5.405   3.833 -2.0744 -1.5454 -0.5569
 6870TIP3   OH220573   3.056   6.246   2.508 -0.0726  0.0327 -0.0592
 6870TIP3    H120574   2.964   6.270   2.510  0.3000  1.5286  0.6000
 6870TIP3    H220575   3.084   6.268   2.419  0.7020  4.1430  1.0074
 6871TIP3   OH220576   5.874   4.752   4.258 -0.1317 -0.6773 -0.2688
 6871TIP3    H120577   5.855   4.755   4.164  2.6969  1.3454 -0.9081
 6871TIP3    H220578   5.957   4.705   4.264  0.2416  0.1206  1.1155
 6872TIP3   OH220579   3.769   5.997   3.167  0.4542 -0.1066  0.2901
 6872TIP3    H120580   3.688   5.948   3.156 -0.1444  0.4600  1.8766
 6872TIP3    H220581   3.794   6.022   3.079 -0.8548 -0.6773 -0.2677
 6873TIP3   OH220582   6.446   2.547   2.983 -0.0567 -0.1303  0.2873
 6873TIP3    H120583   6.377   2.485   3.005  1.0741 -1.4272  0.2847
 6873TIP3    H220584   6.527   2.497   2.990  1.0505  1.7284  1.8202
 6874TIP3   OH220585   5.511   2.490   3.157  0.0099  0.1656  0.1561
 6874TIP3    H120586   5.479   2.404   3.184 -1.8028  0.6119 -0.4424
 6874TIP3    H220587   5.594   2.500   3.203 -0.6695 -1.1019  1.7736
 6875TIP3   OH220588   5.716   3.322   1.052 -0.1640 -0.0363  0.4171
 6875TIP3    H120589   5.630   3.349   1.020  0.5919 -0.3415 -2.0270
 6875TIP3    H220590   5.709   3.330   1.147 -2.5399  0.9650  0.2315
 6876TIP3   OH220591   3.982   6.223   2.113 -0.3037 -0.7701 -0.1175
 6876TIP3    H120592   4.018   6.158   2.053  0.2030 -0.0992 -0.5451
 6876TIP3    H220593   3.950   6.171   2.187  2.8339 -1.3418  0.9775
 6877TIP3   OH220594   5.952   3.841   5.798  0.4981 -0.3121 -0.5115
 6877TIP3    H120595   5.984   3.756   5.770 -0.7204 -1.2683  0.8647
 6877TIP3    H220596   5.918   3.826   5.886 -0.0069  1.5394 -0.3524
 6878TIP3   OH220597   6.546   5.082   0.090 -0.8429  0.0354  0.4569
 6878TIP3    H120598   6.585   5.002   0.126 -3.2533 -1.0401  0.8536
 6878TIP3    H220599   6.537   5.140   0.166 -1.3247 -0.2731  0.6374
 6879TIP3   OH220600   0.105   4.809   0.387 -0.4080  0.1017  0.0885
 6879TIP3    H120601   0.091   4.856   0.305  0.2050 -0.2872 -0.2405
 6879TIP3    H220602   0.145   4.874   0.445 -3.2313  1.2071  1.0062
 6880TIP3   OH220603   4.345   6.342   5.044  0.2374  0.3384 -0.2521
 6880TIP3    H120604   4.320   6.356   4.953  1.7983  1.3637 -0.5679
 6880TIP3    H220605   4.440   6.331   5.041  0.3385  0.6293  1.2652
 6881TIP3   OH220606   5.448   1.310   3.360 -0.4182  0.0787  0.1086
 6881TIP3    H120607   5.477   1.265   3.439  0.1946  1.7577  0.8954
 6881TIP3    H220608   5.528   1.343   3.320 -0.9104  1.6086  0.3098
 6882TIP3   OH220609   4.423   0.958   4.481 -0.2017  0.1863 -0.0792
 6882TIP3    H120610   4.336   0.972   4.444  0.3448  2.0230 -0.7566
 6882TIP3    H220611   4.445   1.041   4.523  1.4136 -0.0841 -0.3180
 6883TIP3   OH220612   1.002   1.351   3.939 -0.0431  0.2561 -0.0595
 6883TIP3    H120613   0.948   1.424   3.909 -0.1123  0.0273 -0.5080
 6883TIP3    H220614   1.088   1.391   3.954 -0.1925  0.5137  0.1169
 6884TIP3   OH220615   6.276   1.657   3.311  0.1223 -0.5968  0.3962
 6884TIP3    H120616   6.219   1.731   3.330 -0.0612 -0.8859  0.9977
 6884TIP3    H220617   6.343   1.659   3.380  1.1125 -0.0035 -0.5459
 6885TIP3   OH220618   0.180   3.829   5.117  0.0653  0.0601  0.0491
 6885TIP3    H120619   0.144   3.886   5.049  1.0634 -2.0308 -2.4570
 6885TIP3    H220620   0.121   3.838   5.191 -2.0380  1.3162 -1.6645
 6886TIP3   OH220621   0.849   5.154   1.252 -0.3747  0.2580  0.1200
 6886TIP3    H120622   0.851   5.241   1.293  5.0942 -0.9979  3.5790
 6886TIP3    H220623   0.862   5.172   1.159 -0.4610  3.1350  0.5540
 6887TIP3   OH220624   5.714   0.157   1.666  0.1635 -0.0487  0.4098
 6887TIP3    H120625   5.706   0.114   1.751 -0.3662 -0.7765 -0.0002
 6887TIP3    H220626   5.719   0.086   1.603 -0.0625  0.4835 -0.2195
 6888TIP3   OH220627   1.962   1.214   1.890  0.3247  0.0275 -0.0573
 6888TIP3    H120628   2.045   1.176   1.921 -0.3255 -0.3502  1.2897
 6888TIP3    H220629   1.951   1.293   1.943  0.2486  0.5806 -0.8707
 6889TIP3   OH220630   1.457   2.427   4.877  0.2114  0.3428 -0.4659
 6889TIP3    H120631   1.541   2.470   4.867  1.4885 -1.4638  1.5211
 6889TIP3    H220632   1.401   2.493   4.918  1.5305  0.7682  0.7256
 6890TIP3   OH220633   0.631   3.192   5.525  0.6398 -0.0978  0.0126
 6890TIP3    H120634   0.697   3.251   5.489  0.2129 -1.1077 -2.6810
 6890TIP3    H220635   0.554   3.248   5.538  0.7742  0.3041 -0.8336
 6891TIP3   OH220636   6.511   3.779   5.455  0.4954  0.8530  0.3130
 6891TIP3    H120637   6.532   3.731   5.374 -0.9065  0.5456  0.1033
 6891TIP3    H220638   6.415   3.780   5.458  0.5130  0.7436  2.0452
 6892TIP3   OH220639   0.723   3.054   1.674  0.0584  0.1991  0.6651
 6892TIP3    H120640   0.726   2.972   1.626  0.0815  0.3140  0.4697
 6892TIP3    H220641   0.635   3.057   1.712  0.3876 -0.3778  1.4874
 6893TIP3   OH220642   1.454   4.626   1.753  0.0230  0.0991 -0.9939
 6893TIP3    H120643   1.444   4.623   1.848 -2.2338  1.5034 -1.1200
 6893TIP3    H220644   1.532   4.679   1.739  0.6369 -0.4958  0.0694
 6894TIP3   OH220645   1.588   4.440   1.356 -0.1103 -0.0488 -0.1889
 6894TIP3    H120646   1.605   4.346   1.351  1.7954  0.2230  0.3682
 6894TIP3    H220647   1.644   4.471   1.427  0.8114  1.7981 -1.6185
 6895TIP3   OH220648   5.310   0.992   5.188  0.4314 -0.6139  0.6519
 6895TIP3    H120649   5.257   1.064   5.154 -1.1624 -2.2394 -0.5587
 6895TIP3    H220650   5.329   1.016   5.278 -1.8067  0.3894  0.9206
 6896TIP3   OH220651   3.984   0.699   0.635  0.0540  1.0518  0.0614
 6896TIP3    H120652   4.028   0.723   0.554 -1.1888  2.1194 -0.3318
 6896TIP3    H220653   3.953   0.610   0.620  0.4418  0.9804 -0.3545
 6897TIP3   OH220654   3.408   4.634   4.875  0.2415 -1.0061  0.3344
 6897TIP3    H120655   3.445   4.699   4.934 -1.2908  0.5089 -0.2897
 6897TIP3    H220656   3.317   4.625   4.904 -0.0727 -1.4880 -0.7551
 6898TIP3   OH220657   3.966   5.231   4.046  0.3563  0.3468  0.4672
 6898TIP3    H120658   3.885   5.278   4.029  2.0546  3.3322 -0.1171
 6898TIP3    H220659   3.956   5.195   4.134 -2.0852 -0.6730 -0.1552
 6899TIP3   OH220660   1.526   2.592   3.698  0.4287  0.1870 -0.4772
 6899TIP3    H120661   1.444   2.602   3.745 -0.8181 -3.5117 -1.4985
 6899TIP3    H220662   1.594   2.607   3.764 -1.1795 -1.2706  1.6274
 6900TIP3   OH220663   6.647   3.705   2.561  0.2502  0.0253 -0.2352
 6900TIP3    H120664   6.696   3.684   2.482 -0.2117  1.8158 -1.0362
 6900TIP3    H220665   6.701   3.769   2.607 -0.9115  1.3941 -0.7165
 6901TIP3   OH220666   7.091   5.314   3.441 -0.3812  0.3363  0.0209
 6901TIP3    H120667   7.111   5.394   3.489 -1.5941  2.4759 -2.7483
 6901TIP3    H220668   7.009   5.282   3.479 -0.9828  1.6187 -0.1598
 6902TIP3   OH220669   6.976   3.188   2.329  0.8523  0.4294 -0.0079
 6902TIP3    H120670   6.942   3.268   2.289  0.4015  1.1748  1.7595
 6902TIP3    H220671   6.911   3.121   2.308  1.5021  0.3481 -1.9572
 6903TIP3   OH220672   2.877   6.669   3.971  0.0313  0.1758 -0.1262
 6903TIP3    H120673   2.862   6.575   3.972 -0.4055  0.2362  1.0846
 6903TIP3    H220674   2.800   6.706   3.930 -1.5253  0.2130  2.5829
 6904TIP3   OH220675   3.798   4.927   1.334  0.1213 -0.0220  0.2652
 6904TIP3    H120676   3.819   4.834   1.334  0.6199  0.0496 -1.5083
 6904TIP3    H220677   3.705   4.932   1.354  0.4599 -0.7465  2.2588
 6905TIP3   OH220678   4.165   1.918   4.868 -0.0212  0.6570  0.1061
 6905TIP3    H120679   4.187   1.825   4.872  0.8998  0.8964  1.6368
 6905TIP3    H220680   4.093   1.928   4.931 -1.2576  0.7295 -1.2696
 6906TIP3   OH220681   5.515   1.701   1.406 -0.2849  0.0102 -0.4366
 6906TIP3    H120682   5.554   1.672   1.489  1.5616  0.6249 -1.0240
 6906TIP3    H220683   5.457   1.629   1.380  1.4649 -1.6095 -0.1199
 6907TIP3   OH220684   3.952   5.822   0.956 -0.6246  0.4173 -0.0895
 6907TIP3    H120685   3.935   5.786   0.869  0.4510 -1.5838  0.4774
 6907TIP3    H220686   3.986   5.910   0.940  0.5826 -0.3168 -1.7589
 6908TIP3   OH220687   4.318   5.977   5.487  0.9994  0.4287 -0.5114
 6908TIP3    H120688   4.301   6.034   5.412  0.2242  0.7792 -0.0797
 6908TIP3    H220689   4.377   6.029   5.543 -0.2544  1.1237  0.2159
 6909TIP3   OH220690   0.962   1.560   4.276 -0.2785  0.0027 -0.6194
 6909TIP3    H120691   1.026   1.630   4.290  0.9321 -1.1770 -0.0621
 6909TIP3    H220692   0.886   1.586   4.328  0.7111  0.1954  0.7681
 6910TIP3   OH220693   6.406   1.578   4.612  0.3051  0.0740 -0.3201
 6910TIP3    H120694   6.391   1.615   4.699 -1.4444 -0.9987 -0.1175
 6910TIP3    H220695   6.401   1.483   4.625  1.5688 -0.1680 -1.3452
 6911TIP3   OH220696   6.132   5.126   5.702  0.0199 -0.1720  0.4326
 6911TIP3    H120697   6.222   5.097   5.717  0.4788  0.9247 -0.0606
 6911TIP3    H220698   6.137   5.180   5.623 -0.9823  0.3218  0.6852
 6912TIP3   OH220699   1.381   2.208   3.164  0.2521  0.5758  0.1534
 6912TIP3    H120700   1.446   2.274   3.140  2.1356 -1.1141  0.3009
 6912TIP3    H220701   1.432   2.128   3.174 -1.7500 -0.6290  1.2667
 6913TIP3   OH220702   4.998   5.159   1.158  0.1696  0.3849  0.0536
 6913TIP3    H120703   4.979   5.136   1.249 -1.6164  1.7101  0.0743
 6913TIP3    H220704   5.090   5.186   1.159  0.0441  0.8616  1.5696
 6914TIP3   OH220705   0.144   2.105   1.784  0.0842  0.1585  0.3041
 6914TIP3    H120706   0.059   2.132   1.749 -0.4212 -1.2679  0.3582
 6914TIP3    H220707   0.154   2.156   1.865 -0.6930  0.3784  0.2724
 6915TIP3   OH220708   3.646   1.829   1.659  0.4161 -0.0452  0.3260
 6915TIP3    H120709   3.679   1.919   1.661  1.9233 -0.5159 -1.5055
 6915TIP3    H220710   3.722   1.775   1.637 -0.5124 -1.7669  1.1064
 6916TIP3   OH220711   0.921   3.988   1.459 -0.9987  0.2102  0.1449
 6916TIP3    H120712   0.901   4.082   1.451 -1.0219  0.2142  0.2457
 6916TIP3    H220713   0.872   3.960   1.536 -1.4200 -0.0037 -0.1900
 6917TIP3   OH220714   6.220   1.880   5.064 -0.4499 -0.2110 -0.1712
 6917TIP3    H120715   6.194   1.908   4.976  0.2375 -1.3278 -0.7472
 6917TIP3    H220716   6.164   1.805   5.082 -0.6506  0.0691  0.3981
 6918TIP3   OH220717   0.442   0.060   0.060 -0.3617  0.2203  0.1616
 6918TIP3    H120718   0.362   0.113   0.067  0.5589  2.0152 -1.7510
 6918TIP3    H220719   0.460   0.033   0.150 -2.6915  0.3714  0.7576
 6919TIP3   OH220720   4.022   0.091   4.277  0.5742  0.3429 -0.0172
 6919TIP3    H120721   3.992   0.143   4.352 -0.8169 -0.1882 -0.1847
 6919TIP3    H220722   4.097   0.141   4.243 -0.7113  2.2962 -0.1858
 6920TIP3   OH220723   0.173   5.418   1.218 -0.0301  0.1860 -0.3587
 6920TIP3    H120724   0.238   5.347   1.223 -0.3194 -0.1241 -0.9153
 6920TIP3    H220725   0.195   5.465   1.138 -0.0564  0.5159 -0.1734
 6921TIP3   OH220726   3.803   6.565   3.471 -0.1583 -0.1977  0.0198
 6921TIP3    H120727   3.711   6.555   3.495 -0.3409 -1.7872 -1.1696
 6921TIP3    H220728   3.839   6.625   3.537 -2.0809  0.6474  0.3619
 6922TIP3   OH220729  -0.003   6.691   2.573 -0.4342 -0.2982  0.5314
 6922TIP3    H120730   0.067   6.639   2.614  0.0072  1.6415  2.3679
 6922TIP3    H220731   0.031   6.711   2.486  0.6153 -0.7309  0.8249
 6923TIP3   OH220732   2.465   1.744   3.093  0.1886  0.1600  0.9786
 6923TIP3    H120733   2.456   1.835   3.062 -1.1127 -0.1352  0.4083
 6923TIP3    H220734   2.528   1.749   3.164 -0.6317  1.6994  1.6659
 6924TIP3   OH220735   6.263   3.139   0.236 -0.0628  0.0480 -0.4692
 6924TIP3    H120736   6.209   3.162   0.160 -0.1064  1.0421 -0.1519
 6924TIP3    H220737   6.268   3.043   0.234  1.2296  0.0877 -2.6182
 6925TIP3   OH220738   3.032   3.491   3.514  0.5115 -0.2146 -0.5381
 6925TIP3    H120739   3.122   3.519   3.499  0.6854 -0.4422  0.0537
 6925TIP3    H220740   3.040   3.406   3.557  0.0011 -0.5991 -1.1849
 6926TIP3   OH220741   4.913   2.122   0.164  0.2193 -0.3455 -0.8479
 6926TIP3    H120742   4.906   2.211   0.128  0.4906 -1.0011 -2.5906
 6926TIP3    H220743   4.828   2.082   0.143  0.3558 -0.7162 -0.6926
 6927TIP3   OH220744   2.857   6.656   0.049  0.0030  0.1299 -0.4197
 6927TIP3    H120745   2.867   6.684  -0.042 -0.9574 -1.3929 -1.0291
 6927TIP3    H220746   2.764   6.672   0.068  0.3962  1.3511  0.6510
 6928TIP3   OH220747   3.640   4.453   4.463 -0.0004  0.3063  0.2107
 6928TIP3    H120748   3.682   4.380   4.509  0.5754 -0.1884 -1.0657
 6928TIP3    H220749   3.620   4.516   4.532  0.5328 -0.5555  1.1832
 6929TIP3   OH220750   0.086   1.988   1.211  0.3831 -0.0031 -0.1848
 6929TIP3    H120751   0.058   2.019   1.297 -0.6648 -0.7948 -0.2276
 6929TIP3    H220752   0.050   2.051   1.149  1.2896  0.6687 -0.0535
 6930TIP3   OH220753   1.968   1.150   0.353  0.2678 -0.5728  0.3351
 6930TIP3    H120754   1.969   1.242   0.330  1.7608 -1.4429 -3.8881
 6930TIP3    H220755   2.057   1.131   0.382 -0.4751 -0.4701  2.9961
 6931TIP3   OH220756   1.562   6.521   0.007  0.0494 -0.4154  0.2338
 6931TIP3    H120757   1.513   6.500   0.086  1.4240  0.7762  1.4655
 6931TIP3    H220758   1.652   6.494   0.026  0.6468  1.0071 -0.4146
 6932TIP3   OH220759   5.005   2.664   2.197  0.2432  0.6282 -0.1601
 6932TIP3    H120760   4.949   2.670   2.274 -0.0018 -0.0181 -0.2744
 6932TIP3    H220761   4.947   2.686   2.124  0.3919  0.9322 -0.1844
 6933TIP3   OH220762   0.965   3.670   1.642 -0.3802  0.8254 -0.4882
 6933TIP3    H120763   0.967   3.611   1.717  2.4650  1.6579  0.1846
 6933TIP3    H220764   0.874   3.700   1.638 -0.6714  0.6744  2.5593
 6934TIP3   OH220765   0.563   2.515   5.136  0.2256 -0.0845  0.0021
 6934TIP3    H120766   0.534   2.496   5.225  0.3604  2.7324  0.7536
 6934TIP3    H220767   0.505   2.585   5.106  3.3375  2.7482 -0.0408
 6935TIP3   OH220768   0.720   6.394   0.817 -0.0886 -0.0150  0.2665
 6935TIP3    H120769   0.794   6.411   0.760 -0.0499 -0.5436  0.1545
 6935TIP3    H220770   0.751   6.417   0.905 -0.3528  1.4154  0.0090
 6936TIP3   OH220771   2.759   1.768   4.508  0.2945 -0.2458  0.0996
 6936TIP3    H120772   2.677   1.759   4.557  0.3999 -0.0555  0.3107
 6936TIP3    H220773   2.737   1.825   4.435 -0.1564 -1.4503 -0.7416
 6937TIP3   OH220774   5.913   3.037   1.604  0.0923  0.0104  0.3524
 6937TIP3    H120775   5.921   3.017   1.511 -0.7749  1.5243 -0.0902
 6937TIP3    H220776   6.001   3.060   1.632  0.2590  0.1148 -0.2472
 6938TIP3   OH220777   1.150   3.939   3.836 -0.0142 -0.0080 -0.3280
 6938TIP3    H120778   1.062   3.938   3.873 -1.1675 -0.8064 -2.8378
 6938TIP3    H220779   1.166   4.030   3.812 -0.7245 -0.0557 -1.0223
 6939TIP3   OH220780   5.856   4.332   0.952  0.2825  0.5913  0.2100
 6939TIP3    H120781   5.816   4.246   0.963 -2.0968  1.8313  2.2532
 6939TIP3    H220782   5.872   4.339   0.858  0.3535 -1.9572 -0.0340
 6940TIP3   OH220783   1.295   1.616   3.189 -0.5842  0.3990 -0.2874
 6940TIP3    H120784   1.235   1.664   3.132 -0.1940  1.5908  0.2638
 6940TIP3    H220785   1.248   1.608   3.272 -0.6968 -0.2893 -0.4184
 6941TIP3   OH220786   1.759   3.005   5.181  0.3796 -0.2315  0.1509
 6941TIP3    H120787   1.822   2.950   5.134  1.1074  0.2894  0.4989
 6941TIP3    H220788   1.784   2.998   5.273  1.0303  1.3328  0.1284
 6942TIP3   OH220789   5.252   3.350   0.461  0.1904  0.1713 -0.6310
 6942TIP3    H120790   5.256   3.361   0.366 -2.0603  0.7670 -0.7157
 6942TIP3    H220791   5.196   3.273   0.473  1.1648 -0.4374  0.2382
 6943TIP3   OH220792   6.783   0.769   0.999  0.3856 -0.7290  0.6368
 6943TIP3    H120793   6.768   0.705   0.930 -0.6214  0.0669  0.0904
 6943TIP3    H220794   6.749   0.726   1.078 -1.5495 -0.3898  0.0470
 6944TIP3   OH220795   3.258   4.141   4.243 -0.2464  0.1122 -0.2073
 6944TIP3    H120796   3.269   4.145   4.338 -2.2257  0.9457  0.0387
 6944TIP3    H220797   3.292   4.225   4.211  0.7935 -0.3330 -0.3042
 6945TIP3   OH220798   3.745   6.582   1.063  0.4192 -0.1241  0.0174
 6945TIP3    H120799   3.721   6.532   0.985 -0.3764 -0.7870  0.6495
 6945TIP3    H220800   3.695   6.540   1.134  0.1554  1.2294  0.6754
 6946TIP3   OH220801   5.215   4.196   0.994 -0.4403  0.4792 -0.1599
 6946TIP3    H120802   5.187   4.258   1.061  0.4582  0.4759  0.2306
 6946TIP3    H220803   5.293   4.236   0.956 -1.1128  0.6378 -1.4477
 6947TIP3   OH220804   3.649   2.629   3.296  0.3799  0.2268 -0.2390
 6947TIP3    H120805   3.555   2.643   3.313  0.5328  0.5385  0.3741
 6947TIP3    H220806   3.674   2.561   3.357  0.2279 -0.9509 -1.4442
 6948TIP3   OH220807   4.016   3.286   2.380 -0.0052 -0.4589  0.5302
 6948TIP3    H120808   4.053   3.373   2.393 -0.7866 -0.1791  0.9509
 6948TIP3    H220809   4.076   3.227   2.427  1.6051 -0.4169 -1.3360
 6949TIP3   OH220810   3.656   6.353   5.312  0.0269 -0.4050 -0.3380
 6949TIP3    H120811   3.719   6.283   5.328 -1.0525 -0.9771  1.7562
 6949TIP3    H220812   3.578   6.307   5.279 -0.2955 -0.0520 -0.0756
 6950TIP3   OH220813   4.445   5.703   2.549  0.1003 -0.2173  0.7664
 6950TIP3    H120814   4.458   5.639   2.619  0.6770 -0.6299  0.2934
 6950TIP3    H220815   4.531   5.710   2.506  0.3595  1.7283  1.5096
 6951TIP3   OH220816   5.635   2.114   0.663 -0.2558  0.5021  0.1226
 6951TIP3    H120817   5.622   2.114   0.758 -0.2627  1.1508  0.1242
 6951TIP3    H220818   5.548   2.099   0.627 -0.3677  0.9500  0.2066
 6952TIP3   OH220819   3.847   4.308   2.803 -0.3038  0.8784 -0.0783
 6952TIP3    H120820   3.766   4.292   2.851  0.0604 -1.1856 -0.0584
 6952TIP3    H220821   3.916   4.296   2.868  0.1289 -0.6213 -0.7516
 6953TIP3   OH220822   2.701   2.650   0.811  0.2012  0.0819 -0.1441
 6953TIP3    H120823   2.733   2.704   0.883  1.2033 -0.2022 -0.3670
 6953TIP3    H220824   2.631   2.597   0.850  2.3737 -1.8855  1.2874
 6954TIP3   OH220825   1.890   1.289   3.986  0.2020 -0.1819  0.3838
 6954TIP3    H120826   1.883   1.195   3.972 -0.3582 -0.5593  2.8654
 6954TIP3    H220827   1.915   1.299   4.077 -2.5535  2.0929  1.0635
 6955TIP3   OH220828   0.733   1.513   1.990  0.8594  0.4053 -0.1893
 6955TIP3    H120829   0.663   1.468   1.943  0.9390  0.8393 -0.7447
 6955TIP3    H220830   0.808   1.508   1.931  1.6818 -1.1377  0.9144
 6956TIP3   OH220831   6.550   0.549   1.567  0.0253  0.6425 -0.1385
 6956TIP3    H120832   6.597   0.613   1.513  1.7814 -1.0653 -0.7732
 6956TIP3    H220833   6.608   0.534   1.642  1.2022 -2.2851 -1.4504
 6957TIP3   OH220834   5.241   1.012   0.838 -0.8360 -0.0301  0.4023
 6957TIP3    H120835   5.276   0.943   0.782 -1.3790 -1.5202  1.8218
 6957TIP3    H220836   5.146   1.003   0.831 -1.0326  2.1540 -1.1998
 6958TIP3   OH220837   2.139   2.392   2.269 -0.0672  0.1740  0.0507
 6958TIP3    H120838   2.146   2.351   2.183 -0.2911  0.6508 -0.1952
 6958TIP3    H220839   2.046   2.387   2.291 -0.3887  2.0693 -0.7373
 6959TIP3   OH220840   1.346   4.898   1.041  0.0118 -0.1634  0.3067
 6959TIP3    H120841   1.410   4.863   1.103  1.0797 -0.7168 -1.0445
 6959TIP3    H220842   1.321   4.823   0.987 -0.2033  0.4754 -0.5040
 6960TIP3   OH220843   0.308   3.098   4.454 -0.3506 -0.0819  0.0353
 6960TIP3    H120844   0.334   3.064   4.368 -0.0059 -0.1118  0.1485
 6960TIP3    H220845   0.223   3.057   4.471 -1.0738  0.9971 -0.8960
 6961TIP3   OH220846   6.211   2.657   3.655 -0.1194 -0.4008  0.2531
 6961TIP3    H120847   6.143   2.593   3.675 -0.7742  0.1526 -0.1593
 6961TIP3    H220848   6.275   2.647   3.727  0.4341 -2.3388 -0.4267
 6962TIP3   OH220849   0.792   2.030   3.889  0.0087 -0.6079 -0.1352
 6962TIP3    H120850   0.836   2.102   3.934  1.6058 -1.0316 -0.9503
 6962TIP3    H220851   0.741   2.073   3.820  1.0201 -0.2437 -0.6726
 6963TIP3   OH220852   4.220   2.660   5.787 -0.2351  0.1307  0.2273
 6963TIP3    H120853   4.215   2.585   5.728  0.8068  1.1090 -1.1654
 6963TIP3    H220854   4.283   2.633   5.854  0.8346  0.0797 -0.7744
 6964TIP3   OH220855   6.030   4.135   1.850  0.2651 -0.3922 -0.6300
 6964TIP3    H120856   6.007   4.193   1.923  0.7787 -0.0192 -0.7644
 6964TIP3    H220857   6.125   4.138   1.846  0.2562 -0.6916 -1.0943
 6965TIP3   OH220858   0.258   5.633   2.403  0.3863 -0.7503 -0.3991
 6965TIP3    H120859   0.248   5.703   2.468 -0.0284 -1.7612  0.6687
 6965TIP3    H220860   0.294   5.676   2.326  1.2130  0.4280  0.6158
 6966TIP3   OH220861   0.725   5.809   2.897  0.2436 -0.2527 -0.0207
 6966TIP3    H120862   0.666   5.753   2.847  1.4349 -1.1994 -0.4051
 6966TIP3    H220863   0.732   5.890   2.845 -0.2906 -0.3363 -0.2287
 6967TIP3   OH220864   6.528   0.468   3.519 -0.1658  0.2690 -0.2136
 6967TIP3    H120865   6.471   0.433   3.451 -0.4772  0.7954 -0.2253
 6967TIP3    H220866   6.590   0.397   3.536  0.1136  0.2372 -1.2711
 6968TIP3   OH220867   0.988   6.068   4.561 -0.2580 -0.2365  0.4978
 6968TIP3    H120868   0.961   6.061   4.653 -2.3417  0.1643 -0.0379
 6968TIP3    H220869   1.083   6.059   4.564 -0.3819 -1.7378  2.5380
 6969TIP3   OH220870   5.991   2.638   3.158  0.2781  0.0999 -0.2432
 6969TIP3    H120871   6.047   2.715   3.170  0.9319 -0.2828 -0.7878
 6969TIP3    H220872   6.003   2.587   3.238  0.7135  0.0201 -0.3564
 6970TIP3   OH220873   2.259   3.680   5.830  0.0701 -0.0210 -0.1655
 6970TIP3    H120874   2.222   3.595   5.804 -1.9954  0.3353  1.3058
 6970TIP3    H220875   2.305   3.661   5.912 -0.5249  0.2734  0.2458
 6971TIP3   OH220876   0.426   5.470   1.978 -0.1019 -0.2499 -0.0655
 6971TIP3    H120877   0.394   5.522   1.904  0.7644 -0.3650 -0.5416
 6971TIP3    H220878   0.472   5.533   2.034  0.1238 -0.3380 -0.1510
 6972TIP3   OH220879   1.467   4.054   2.084  0.0741 -0.4668 -0.0178
 6972TIP3    H120880   1.379   4.082   2.061 -0.2522 -0.3014  1.3609
 6972TIP3    H220881   1.455   3.985   2.148  0.9455 -0.8141 -0.2084
 6973TIP3   OH220882   4.537   2.492   5.753 -0.0291 -0.5144 -0.3534
 6973TIP3    H120883   4.628   2.466   5.768 -0.4115 -1.4366  0.5321
 6973TIP3    H220884   4.501   2.503   5.841 -0.1384  2.2950 -0.6568
 6974TIP3   OH220885   2.622   0.636   4.368 -0.3543  0.1917 -0.4475
 6974TIP3    H120886   2.594   0.650   4.278 -2.4048 -0.5541  0.0308
 6974TIP3    H220887   2.698   0.694   4.379 -0.3373  0.6113 -2.4954
 6975TIP3   OH220888   1.007   2.048   1.132  0.0027 -0.1703  0.1295
 6975TIP3    H120889   0.945   2.120   1.122  1.3770  1.0591  0.1506
 6975TIP3    H220890   1.027   2.021   1.043 -0.2167 -0.2680  0.1093
 6976TIP3   OH220891   0.573   6.684   5.368 -0.2572 -0.0157 -0.1715
 6976TIP3    H120892   0.586   6.685   5.463  0.9253 -3.6378 -0.1451
 6976TIP3    H220893   0.519   6.607   5.352 -1.3409  1.1245 -2.3993
 6977TIP3   OH220894   1.556   4.180   4.986  0.5503 -0.2234  0.1510
 6977TIP3    H120895   1.563   4.130   5.067  0.2652  1.9419  1.5998
 6977TIP3    H220896   1.645   4.180   4.951  0.6430 -1.3392  0.3622
 6978TIP3   OH220897   0.359   6.531   0.405  0.5610  0.4845  0.2161
 6978TIP3    H120898   0.279   6.582   0.418  0.6825  1.2390 -1.6292
 6978TIP3    H220899   0.362   6.471   0.479 -1.4942  0.7046  0.5285
 6979TIP3   OH220900   2.529   2.274   4.016 -0.1566 -0.0928 -0.2355
 6979TIP3    H120901   2.555   2.189   4.050  0.5498  0.3425  0.3271
 6979TIP3    H220902   2.608   2.311   3.978 -0.3768  0.4612 -0.1698
 6980TIP3   OH220903   0.921   6.272   3.267  0.1456  0.9565 -0.3818
 6980TIP3    H120904   0.911   6.177   3.270  1.3709  0.8180 -0.0572
 6980TIP3    H220905   0.908   6.295   3.175 -1.2248  0.6147 -0.2833
 6981TIP3   OH220906   1.011   3.153   4.968  0.1971  0.0365 -0.5460
 6981TIP3    H120907   1.054   3.089   5.025 -0.2521 -0.4853 -0.7827
 6981TIP3    H220908   1.042   3.238   4.999  0.5530 -0.2799 -0.0211
 6982TIP3   OH220909   5.764   6.186   2.200 -0.3220  0.8466 -0.4889
 6982TIP3    H120910   5.707   6.255   2.234  0.7956  1.4748  0.1642
 6982TIP3    H220911   5.769   6.204   2.106  0.3761  1.9974 -0.2498
 6983TIP3   OH220912   4.768   1.370   4.371  0.6745 -0.0540  0.4421
 6983TIP3    H120913   4.690   1.317   4.359  0.2739  0.9358 -1.9274
 6983TIP3    H220914   4.836   1.308   4.398 -0.1301 -1.4997 -0.7566
 6984TIP3   OH220915   5.627   0.171   3.525  0.0595  0.4949 -0.2939
 6984TIP3    H120916   5.624   0.191   3.618  1.7371  1.2306 -0.3660
 6984TIP3    H220917   5.627   0.256   3.482  1.4720  0.2447 -0.8510
 6985TIP3   OH220918   7.047   1.034   1.201  0.4140 -0.1440  0.2732
 6985TIP3    H120919   7.142   1.022   1.207  0.4114 -1.3213 -1.4234
 6985TIP3    H220920   7.036   1.122   1.166  0.8556  0.1202  0.7790
 6986TIP3   OH220921   6.958   0.704   3.968  0.3389  0.0235 -0.5897
 6986TIP3    H120922   7.041   0.751   3.981  0.1924  2.1840 -5.3186
 6986TIP3    H220923   6.900   0.769   3.929 -3.3122 -1.7647  1.3685
 6987TIP3   OH220924   0.211   5.846   4.115 -0.4650 -0.6826  0.5152
 6987TIP3    H120925   0.132   5.805   4.080 -1.5284  0.2985  1.6476
 6987TIP3    H220926   0.195   5.853   4.209  0.5532  0.3937  0.6387
 6988TIP3   OH220927   5.487   4.071   1.262  0.6351 -0.0299  0.4907
 6988TIP3    H120928   5.451   4.064   1.174 -0.9412  1.5528  0.9590
 6988TIP3    H220929   5.447   3.998   1.310  0.1179  0.1337  0.3179
 6989TIP3   OH220930   1.795   6.678   1.265 -0.3861 -0.4679 -0.4826
 6989TIP3    H120931   1.861   6.740   1.295 -0.4038  0.2573 -1.8709
 6989TIP3    H220932   1.715   6.704   1.311  0.2275 -1.3442  1.1965
 6990TIP3   OH220933   5.667   0.302   0.612  0.1133 -0.3176  0.3551
 6990TIP3    H120934   5.622   0.218   0.603 -0.4394  0.0997 -1.2130
 6990TIP3    H220935   5.613   0.363   0.561  1.8151  0.4496 -0.6160
 6991TIP3   OH220936   0.219   0.947   4.523 -0.3228 -0.1477  0.6265
 6991TIP3    H120937   0.298   0.894   4.537 -0.4547 -1.1465 -1.9351
 6991TIP3    H220938   0.154   0.908   4.583  0.1805 -1.5685  0.2885
 6992TIP3   OH220939   5.562   1.599   3.294 -0.3410  0.1506 -0.3255
 6992TIP3    H120940   5.643   1.650   3.291 -0.0971 -0.2303 -3.1804
 6992TIP3    H220941   5.591   1.508   3.289 -0.9186 -0.0206 -0.5879
 6993TIP3   OH220942   2.400   2.740   1.622 -0.8644  0.3410  0.5236
 6993TIP3    H120943   2.377   2.668   1.564  1.4227 -0.9451  1.0875
 6993TIP3    H220944   2.341   2.811   1.597  0.8835  0.4318 -4.4782
 6994TIP3   OH220945   5.208   0.181   2.644  0.3141 -0.5739 -0.3711
 6994TIP3    H120946   5.191   0.108   2.702  0.3875  0.0764  0.4937
 6994TIP3    H220947   5.156   0.253   2.680  1.1493  0.1165 -0.5173
 6995TIP3   OH220948   3.780   0.962   0.036 -0.1439  0.7608 -0.0887
 6995TIP3    H120949   3.793   0.867   0.033  0.1882  0.7802  0.6142
 6995TIP3    H220950   3.731   0.981  -0.044 -0.0987  0.0174 -0.3085
 6996TIP3   OH220951   6.736   6.240   2.896 -0.2392  0.0612  0.0654
 6996TIP3    H120952   6.725   6.152   2.932  0.2687  0.1216  0.3739
 6996TIP3    H220953   6.803   6.231   2.829 -0.6781  0.0853 -0.3819
 6997TIP3   OH220954   3.178   6.217   5.134 -0.0830  0.1943 -0.1272
 6997TIP3    H120955   3.235   6.280   5.178  1.8077 -0.9846 -0.7665
 6997TIP3    H220956   3.091   6.236   5.169  0.1589  3.8396 -1.0589
 6998TIP3   OH220957   2.013   5.284   3.908  0.2446  0.1676  0.1197
 6998TIP3    H120958   1.951   5.212   3.907 -0.1197  0.4276  1.5970
 6998TIP3    H220959   2.036   5.298   3.816 -2.3076  0.4410 -0.5278
 6999TIP3   OH220960   2.455   4.946   2.501 -0.0298 -0.1242  0.5808
 6999TIP3    H120961   2.412   4.884   2.560  1.8409 -0.8026  1.3263
 6999TIP3    H220962   2.460   5.028   2.550 -1.0093  0.1555  0.2369
 7000TIP3   OH220963   3.632   5.844   0.549  0.1673 -0.1734 -0.5287
 7000TIP3    H120964   3.629   5.807   0.461 -1.4952 -1.6472  0.0752
 7000TIP3    H220965   3.621   5.938   0.536  2.6708 -0.0067 -2.0179
 7001TIP3   OH220966   1.304   2.309   1.855  0.8220 -0.0922  0.5528
 7001TIP3    H120967   1.275   2.220   1.839  1.0750 -0.5180  2.2821
 7001TIP3    H220968   1.284   2.325   1.948  1.1549  1.4998  0.3872
 7002TIP3   OH220969   5.783   0.779   0.650 -0.3298  0.4634 -0.2684
 7002TIP3    H120970   5.703   0.766   0.701 -0.5727  0.4586 -0.6455
 7002TIP3    H220971   5.752   0.801   0.562  0.0153  3.2634  0.2010
 7003TIP3   OH220972   2.387   6.077   3.876 -0.0599  0.1107 -0.1215
 7003TIP3    H120973   2.355   6.161   3.910 -0.1664 -0.2325  0.6432
 7003TIP3    H220974   2.325   6.054   3.807 -0.3044  0.4320 -0.0126
 7004TIP3   OH220975   6.480   3.249   3.714 -0.3006 -0.3788 -0.2295
 7004TIP3    H120976   6.469   3.250   3.619 -0.2834 -0.5751 -0.2338
 7004TIP3    H220977   6.547   3.183   3.730 -0.9633 -1.0129 -0.0139
 7005TIP3   OH220978   6.671   0.808   4.845 -0.5936  0.2411  0.1042
 7005TIP3    H120979   6.730   0.737   4.822 -0.4931 -0.7303  2.9975
 7005TIP3    H220980   6.648   0.848   4.761  0.6902 -2.1013 -1.4769
 7006TIP3   OH220981   5.279   5.327   3.163 -0.0903  0.4521 -0.1907
 7006TIP3    H120982   5.299   5.393   3.097 -0.6965 -0.6458 -1.5139
 7006TIP3    H220983   5.188   5.344   3.187 -0.4038 -0.1773 -0.8929
 7007TIP3   OH220984   1.898   4.216   4.082  0.4120  0.2336 -0.9490
 7007TIP3    H120985   1.914   4.131   4.042  0.8126  0.0977 -0.5056
 7007TIP3    H220986   1.807   4.235   4.062  0.0323 -0.7399 -0.2256
 7008TIP3   OH220987   6.320   3.290   1.384  0.4236 -0.0662  0.0602
 7008TIP3    H120988   6.373   3.229   1.332 -0.5047 -1.1859  0.3979
 7008TIP3    H220989   6.375   3.369   1.391  2.3517 -1.3927  0.9436
 7009TIP3   OH220990   4.907   1.246   4.809  0.4038  0.2839 -0.1323
 7009TIP3    H120991   4.823   1.280   4.841  0.3221  0.0263 -0.0716
 7009TIP3    H220992   4.901   1.151   4.820  1.6502  0.3993  2.2230
 7010TIP3   OH220993   5.270   4.573   2.061 -0.2957 -0.2348 -0.3668
 7010TIP3    H120994   5.364   4.572   2.048 -0.0566 -1.2381  1.1797
 7010TIP3    H220995   5.234   4.598   1.976  1.3706  0.6847 -0.8432
 7011TIP3   OH220996   1.308   0.908   2.058  0.3866  0.6722 -0.2597
 7011TIP3    H120997   1.382   0.899   1.997  0.9558 -1.4120  0.6502
 7011TIP3    H220998   1.243   0.846   2.026  0.8065 -0.6604  1.3517
 7012TIP3   OH220999   6.687   0.234   1.623  0.3852 -0.4065  0.1650
 7012TIP3    H121000   6.666   0.300   1.689 -0.6104 -1.1828  0.6693
 7012TIP3    H221001   6.682   0.151   1.670 -0.0553 -0.9584 -0.8157
 7013TIP3   OH221002   0.809   2.701   2.189  0.0943 -0.3388  0.2349
 7013TIP3    H121003   0.807   2.774   2.251 -2.5009 -0.3128  0.2148
 7013TIP3    H221004   0.776   2.626   2.238  0.8324 -1.0492 -0.3171
 7014TIP3   OH221005   3.699   1.998   4.403 -0.4218 -0.1069 -0.2072
 7014TIP3    H121006   3.666   2.071   4.350  0.9956  0.0753 -0.8672
 7014TIP3    H221007   3.761   1.952   4.346  1.7221  0.5342  1.4742
 7015TIP3   OH221008   0.920   0.400   1.222 -0.0110  0.4829  0.1501
 7015TIP3    H121009   0.849   0.462   1.203  0.7092  0.6950 -2.0611
 7015TIP3    H221010   0.929   0.348   1.143  2.2596  0.4273  0.3806
 7016TIP3   OH221011   4.094   3.922   2.352  0.3328  0.3029  0.5386
 7016TIP3    H121012   4.109   3.845   2.408 -1.5340 -0.6282 -0.1739
 7016TIP3    H221013   4.045   3.982   2.408  1.6637  0.9447  1.0479
 7017TIP3   OH221014   0.972   5.301   4.054  0.5981  0.2465 -0.2829
 7017TIP3    H121015   0.913   5.351   4.111 -0.3130 -1.3359  0.2118
 7017TIP3    H221016   1.025   5.249   4.113 -0.6749 -1.7730 -0.7987
 7018TIP3   OH221017   6.657   6.450   5.477 -0.0235  0.4940  0.0569
 7018TIP3    H121018   6.588   6.395   5.440  1.1003 -0.8999 -0.1050
 7018TIP3    H221019   6.676   6.409   5.561 -0.2458  1.6131  0.6552
 7019TIP3   OH221020   3.396   1.462   1.972 -0.1877 -0.0708  0.4581
 7019TIP3    H121021   3.432   1.539   1.927 -0.9989  0.1472  0.1662
 7019TIP3    H221022   3.397   1.393   1.905 -0.3425 -0.0563  0.4414
 7020TIP3   OH221023   3.207   4.899   1.507 -0.0701 -0.4149 -0.3259
 7020TIP3    H121024   3.202   4.937   1.420  1.4761 -1.4370 -0.9200
 7020TIP3    H221025   3.268   4.826   1.497 -0.8499 -1.3496  1.3395
 7021TIP3   OH221026   1.410   6.177   1.526 -0.2809 -0.3554  0.4689
 7021TIP3    H121027   1.380   6.260   1.561  1.3255 -0.2442  1.7009
 7021TIP3    H221028   1.355   6.161   1.449 -1.0493  1.4998  0.6032
 7022TIP3   OH221029   0.051   1.000   0.404 -0.3434 -0.2841 -0.0958
 7022TIP3    H121030   0.046   0.911   0.438  0.1485 -0.7583 -1.2033
 7022TIP3    H221031   0.022   1.056   0.476 -1.9744 -1.4360  0.1734
 7023TIP3   OH221032   4.610   6.425   4.995  0.1244  0.4322  0.1103
 7023TIP3    H121033   4.632   6.485   4.924  2.1705  0.7879  0.9846
 7023TIP3    H221034   4.601   6.481   5.072  0.3527 -0.1999  0.6050
 7024TIP3   OH221035   1.575   3.614   3.304  0.0723  0.2624  0.0671
 7024TIP3    H121036   1.499   3.670   3.323 -1.5901 -2.3832  1.8992
 7024TIP3    H221037   1.539   3.540   3.255  1.4825 -0.9860  0.8432
 7025TIP3   OH221038   5.494   3.097   2.571 -0.1977  0.1660  0.7254
 7025TIP3    H121039   5.436   3.147   2.630  1.1512  1.9450  0.6361
 7025TIP3    H221040   5.518   3.019   2.621 -2.0170 -0.2325  1.0628
 7026TIP3   OH221041   5.319   1.958   4.972 -0.2908 -0.1264 -0.0013
 7026TIP3    H121042   5.353   2.037   5.012 -0.1547 -0.4688  0.5638
 7026TIP3    H221043   5.304   1.898   5.045 -0.8588 -0.4485 -0.3715
 7027TIP3   OH221044   0.068   0.409   2.609  0.4361 -0.1998 -0.1267
 7027TIP3    H121045   0.028   0.380   2.691 -0.5291 -0.6961 -0.7508
 7027TIP3    H221046   0.046   0.340   2.546  2.2629 -0.4645 -0.5266
 7028TIP3   OH221047   3.857   5.952   5.024  0.2588  0.6668  0.3764
 7028TIP3    H121048   3.912   5.924   4.951  0.1728 -0.1651  0.6114
 7028TIP3    H221049   3.879   6.044   5.037  0.4896  0.7456 -0.5025
 7029TIP3   OH221050   5.199   5.226   0.406 -0.3620 -0.5282 -0.2019
 7029TIP3    H121051   5.186   5.187   0.320 -0.6733 -1.0704  0.0869
 7029TIP3    H221052   5.289   5.259   0.404 -0.3331 -0.6334 -0.6941
 7030TIP3   OH221053   6.669   5.478   4.307 -0.0351 -0.2117 -0.2143
 7030TIP3    H121054   6.678   5.526   4.225 -0.6354 -0.1463 -0.2412
 7030TIP3    H221055   6.760   5.460   4.334  0.1833  0.5759 -0.4080
 7031TIP3   OH221056   4.168   3.619   0.448 -0.6291  0.2377 -0.1769
 7031TIP3    H121057   4.242   3.665   0.408 -0.7084  0.6219  0.1097
 7031TIP3    H221058   4.183   3.527   0.428 -0.5927  0.4086 -0.9638
 7032TIP3   OH221059   5.835   2.452   4.784 -0.7186  0.6339  0.4470
 7032TIP3    H121060   5.749   2.473   4.821 -0.6974  0.5100  0.5665
 7032TIP3    H221061   5.890   2.527   4.803 -1.3371  1.6116 -1.3729
 7033TIP3   OH221062   2.967   5.398   2.167 -0.5669  0.0868  0.0965
 7033TIP3    H121063   2.946   5.491   2.152  0.2514 -0.0509 -2.3130
 7033TIP3    H221064   3.060   5.391   2.145 -0.7007 -1.3679 -0.0934
 7034TIP3   OH221065   5.886   5.600   4.625  0.1117  0.0120  0.4281
 7034TIP3    H121066   5.920   5.601   4.715  1.4780  1.0196 -0.0788
 7034TIP3    H221067   5.921   5.519   4.587 -0.9589 -0.7316  0.9426
 7035TIP3   OH221068   6.693   3.679   5.633  0.4018  0.0002 -0.2996
 7035TIP3    H121069   6.627   3.717   5.575 -0.7343 -1.0576  0.2729
 7035TIP3    H221070   6.726   3.603   5.586  2.3477  1.3131 -1.2366
 7036TIP3   OH221071   6.413   0.872   3.106  0.9452  0.9200 -0.0632
 7036TIP3    H121072   6.407   0.861   3.201 -0.4560  1.8726 -0.0189
 7036TIP3    H221073   6.475   0.943   3.094  0.9754  0.9298  0.1478
 7037TIP3   OH221074   1.985   4.387   1.394  0.0128 -0.5949 -0.2475
 7037TIP3    H121075   2.066   4.344   1.421 -0.1869 -1.9807 -1.6954
 7037TIP3    H221076   1.997   4.479   1.418  2.0688 -0.7407 -0.5762
 7038TIP3   OH221077   1.175   1.852   2.140 -0.0850 -0.2181  0.8649
 7038TIP3    H121078   1.231   1.813   2.073 -0.2580 -0.6531  0.9692
 7038TIP3    H221079   1.224   1.840   2.222 -0.0961 -0.1320  0.8842
 7039TIP3   OH221080   5.129   5.659   4.669  0.5935 -0.5133 -0.2562
 7039TIP3    H121081   5.201   5.608   4.705  1.3250  0.3926 -0.4008
 7039TIP3    H221082   5.137   5.648   4.574 -0.1048 -1.2488 -0.2470
 7040TIP3   OH221083   3.100   2.704   2.773  0.1150  0.7748 -0.0383
 7040TIP3    H121084   3.094   2.711   2.678 -0.0851 -0.7071 -0.1619
 7040TIP3    H221085   3.077   2.613   2.792  0.4611  0.9578  1.4027
 7041TIP3   OH221086   2.130   4.263   4.649  0.3638  0.2225  0.3727
 7041TIP3    H121087   2.214   4.281   4.692  0.2846  0.4153  0.4464
 7041TIP3    H221088   2.125   4.327   4.578  1.2257 -1.1077 -0.9486
 7042TIP3   OH221089   2.500   6.344   0.941 -0.0311  0.7310  0.1307
 7042TIP3    H121090   2.560   6.418   0.934 -0.9698  1.3133 -3.2853
 7042TIP3    H221091   2.434   6.373   1.004  1.4086  1.3576  1.4352
 7043TIP3   OH221092   3.284   0.338   3.921 -0.1068  0.2974  0.7202
 7043TIP3    H121093   3.356   0.276   3.912 -1.3774 -1.6958  3.0246
 7043TIP3    H221094   3.255   0.355   3.831  1.5753 -0.8379 -0.0876
 7044TIP3   OH221095   5.946   4.639   3.740 -0.0307 -0.8128  0.3971
 7044TIP3    H121096   5.943   4.702   3.669 -1.9850  1.1720  2.1020
 7044TIP3    H221097   6.038   4.637   3.767  0.2523  0.4989 -0.3968
 7045TIP3   OH221098   4.002   5.992   4.755  0.1811 -0.9069  0.1312
 7045TIP3    H121099   3.947   5.970   4.680  1.2431 -0.8189 -0.6846
 7045TIP3    H221100   4.031   6.082   4.737  0.0989 -0.7305  0.8606
 7046TIP3   OH221101   2.071   1.642   0.147 -0.2850  0.4488  0.0367
 7046TIP3    H121102   2.101   1.636   0.056  0.0146 -0.5996  0.1836
 7046TIP3    H221103   2.008   1.714   0.147 -1.9420 -0.8968 -1.4648
 7047TIP3   OH221104   3.981   0.279   3.609  0.5821  0.3065  0.2604
 7047TIP3    H121105   4.028   0.225   3.673  0.8504  0.1004 -0.1045
 7047TIP3    H221106   4.023   0.365   3.614 -0.0507  0.5797  1.0660
 7048TIP3   OH221107   4.431   2.261   3.793  0.2676 -0.8664  0.2182
 7048TIP3    H121108   4.431   2.275   3.888 -3.4367 -1.2734  0.4408
 7048TIP3    H221109   4.416   2.167   3.783 -1.7305 -0.5108 -0.6393
 7049TIP3   OH221110   5.537   6.390   4.491 -0.2481  0.0666  0.2153
 7049TIP3    H121111   5.566   6.400   4.581  2.1742  1.4735 -0.6334
 7049TIP3    H221112   5.467   6.454   4.481 -0.1931  0.2509  0.9472
 7050TIP3   OH221113   5.190   2.985   1.024 -0.2687 -0.3628  0.3156
 7050TIP3    H121114   5.127   2.919   0.994  0.2615 -0.4679 -0.5811
 7050TIP3    H221115   5.221   3.028   0.944  1.0911 -0.5677  0.7080
 7051TIP3   OH221116   0.438   0.414   5.368  0.1438  0.3210  0.3612
 7051TIP3    H121117   0.454   0.476   5.298  0.0344 -0.2998 -0.2225
 7051TIP3    H221118   0.523   0.404   5.412  0.7983 -1.0136 -1.1199
 7052TIP3   OH221119   5.169   6.034   4.145 -0.6967  0.1958 -0.5530
 7052TIP3    H121120   5.113   6.104   4.112 -0.7836  0.0193 -0.7833
 7052TIP3    H221121   5.110   5.959   4.157 -0.5435  0.0616 -0.6303
 7053TIP3   OH221122   1.681   3.135   2.560 -0.1851  0.0468  0.0356
 7053TIP3    H121123   1.730   3.132   2.642  2.0517  0.7296 -1.1859
 7053TIP3    H221124   1.627   3.055   2.561  0.3143 -0.3060  1.8269
 7054TIP3   OH221125   1.918   1.906   1.728  0.4257  0.6906  0.0746
 7054TIP3    H121126   1.846   1.968   1.722  0.6572  1.3393  2.8130
 7054TIP3    H221127   1.885   1.827   1.685 -1.0272  1.7036 -0.7619
 7055TIP3   OH221128   4.345   5.774   2.869  0.1150 -0.0984 -0.4089
 7055TIP3    H121129   4.321   5.865   2.850  0.0160 -0.3419 -1.5668
 7055TIP3    H221130   4.269   5.723   2.840  0.8011 -0.6525 -1.3025
 7056TIP3   OH221131   5.906   5.526   4.954  0.1688  0.7368  0.2504
 7056TIP3    H121132   5.880   5.560   5.040 -0.3454  0.4049  0.2314
 7056TIP3    H221133   5.961   5.450   4.973 -2.2391 -1.1165  0.3425
 7057TIP3   OH221134   5.875   2.479   2.711  0.3229 -0.0486 -0.0597
 7057TIP3    H121135   5.887   2.410   2.776  0.1665  1.4223  1.6016
 7057TIP3    H221136   5.807   2.535   2.747  0.2568  0.8518 -1.4798
 7058TIP3   OH221137   2.282   2.603   5.170  0.2560 -0.5585  0.4309
 7058TIP3    H121138   2.318   2.520   5.200 -1.0403 -0.3062  2.8935
 7058TIP3    H221139   2.314   2.668   5.232  0.6675  0.7173 -1.0362
 7059TIP3   OH221140   0.570   1.065   3.450 -1.0878  0.6240  0.0021
 7059TIP3    H121141   0.658   1.071   3.486 -0.2021  0.3909 -2.0384
 7059TIP3    H221142   0.529   0.994   3.499 -0.0169  0.4612  0.6882
 7060TIP3   OH221143   4.881   6.371   5.071 -0.5963 -0.4022  0.0546
 7060TIP3    H121144   4.878   6.465   5.056  1.3074 -0.2756  0.3153
 7060TIP3    H221145   4.790   6.342   5.058 -0.8268  1.0951 -2.2168
 7061TIP3   OH221146   6.265   4.053   2.030 -0.1630  0.1520  0.4507
 7061TIP3    H121147   6.240   3.963   2.052 -0.2497 -0.1913 -0.9243
 7061TIP3    H221148   6.285   4.049   1.936 -0.8835  1.7207  0.2078
 7062TIP3   OH221149   1.706   1.397   4.403  0.5686  0.2549 -0.5026
 7062TIP3    H121150   1.751   1.362   4.480 -2.8274  0.7138  1.9111
 7062TIP3    H221151   1.694   1.322   4.346  0.0249 -0.9200  1.0994
 7063TIP3   OH221152   2.043   1.211   4.992  0.2039 -0.2341  0.1524
 7063TIP3    H121153   1.965   1.255   5.026  0.3975  0.0673  0.1999
 7063TIP3    H221154   2.116   1.251   5.038  0.2995 -1.4090  1.0557
 7064TIP3   OH221155   5.041   4.515   4.511  0.5488 -0.2571  0.5609
 7064TIP3    H121156   5.074   4.458   4.580  1.4464  0.2376  0.5431
 7064TIP3    H221157   4.979   4.573   4.556  2.3109  1.1385  1.3037
 7065TIP3   OH221158   0.905   3.289   3.552 -0.4156  0.5441 -0.1175
 7065TIP3    H121159   0.995   3.259   3.569  1.2892  2.2531 -4.5459
 7065TIP3    H221160   0.898   3.372   3.600  0.7755  0.8761 -0.4851
 7066TIP3   OH221161   1.795   1.826   4.059 -0.1579  0.7546 -0.3679
 7066TIP3    H121162   1.804   1.767   4.133  0.7407  1.5704  0.1950
 7066TIP3    H221163   1.738   1.896   4.091 -1.9756 -0.2129 -1.3155
 7067TIP3   OH221164   5.280   1.384   5.233 -0.2185  0.2116  0.1341
 7067TIP3    H121165   5.270   1.432   5.150 -1.2897 -0.0894  0.0812
 7067TIP3    H221166   5.369   1.348   5.229  0.0375  0.8803 -0.5154
 7068TIP3   OH221167   5.348   1.597   0.685  0.0433 -0.2087 -0.2206
 7068TIP3    H121168   5.434   1.559   0.703  0.0164 -0.0731  0.2190
 7068TIP3    H221169   5.308   1.607   0.772  0.4173  1.6815 -0.2117
 7069TIP3   OH221170   4.187   1.096   4.657 -0.2478  0.0780 -0.2731
 7069TIP3    H121171   4.229   1.015   4.687 -0.3251 -0.1416 -0.7454
 7069TIP3    H221172   4.152   1.074   4.571  0.5314  0.8754 -0.8124
 7070TIP3   OH221173   6.345   5.867   4.753  0.5866  0.8633 -0.1907
 7070TIP3    H121174   6.273   5.912   4.797 -0.4262 -0.7195 -0.1478
 7070TIP3    H221175   6.323   5.870   4.660  0.6301  0.6648 -0.2086
 7071TIP3   OH221176   6.329   2.185   1.103 -0.2556  0.4089 -0.1932
 7071TIP3    H121177   6.336   2.091   1.088 -2.1336 -0.3659  2.9119
 7071TIP3    H221178   6.419   2.218   1.092  1.1065 -2.3147  1.6377
 7072TIP3   OH221179   4.567   1.523   0.358  0.4023  0.1666  0.5525
 7072TIP3    H121180   4.550   1.585   0.430  0.4769  0.2440  0.5042
 7072TIP3    H221181   4.660   1.537   0.337 -0.1682  1.8876 -1.1864
 7073TIP3   OH221182   0.727   2.899   2.381 -0.2111  0.1149 -0.2562
 7073TIP3    H121183   0.695   2.985   2.407  0.7250  0.3850  0.0540
 7073TIP3    H221184   0.714   2.844   2.458  2.8760  0.9976  1.0686
 7074TIP3   OH221185   5.861   5.046   1.251  0.1110 -0.2165  0.0434
 7074TIP3    H121186   5.833   4.983   1.185 -0.4338  1.3837 -1.3177
 7074TIP3    H221187   5.780   5.079   1.290  0.1218  2.1043 -1.6881
 7075TIP3   OH221188   6.593   1.973   0.336  0.0583  0.1489 -0.6719
 7075TIP3    H121189   6.600   1.952   0.429 -1.2481 -2.4940 -1.0670
 7075TIP3    H221190   6.548   2.058   0.334 -1.4417 -0.5233  1.1486
 7076TIP3   OH221191   4.409   3.186   2.253 -0.3317  0.0632  0.1874
 7076TIP3    H121192   4.398   3.240   2.175  2.4437  2.0581  1.0567
 7076TIP3    H221193   4.324   3.143   2.264 -0.9134 -0.2241 -3.7881
 7077TIP3   OH221194   4.274   6.443   0.142  0.2653  0.0978  0.0661
 7077TIP3    H121195   4.237   6.355   0.134  1.3391 -0.3329 -0.2928
 7077TIP3    H221196   4.303   6.449   0.233 -0.4250  0.3423  0.2776
 7078TIP3   OH221197   3.996   3.653   2.213  0.3685 -0.1389 -0.5331
 7078TIP3    H121198   4.061   3.587   2.237 -1.9592 -1.7181  2.0314
 7078TIP3    H221199   3.979   3.700   2.295  1.3843  3.2706 -2.1143
 7079TIP3   OH221200   6.527   1.438   4.975 -0.0795 -0.2019 -0.0611
 7079TIP3    H121201   6.607   1.474   4.937 -0.1137  0.0831  0.1343
 7079TIP3    H221202   6.472   1.515   4.993 -0.0073 -0.3203  0.6909
 7080TIP3   OH221203   5.637   1.090   1.736  0.0143  0.3562 -0.7145
 7080TIP3    H121204   5.643   1.003   1.696 -1.3903  0.7247 -1.8374
 7080TIP3    H221205   5.544   1.114   1.727 -0.2812  0.7423  2.2832
 7081TIP3   OH221206   3.915   5.753   3.333 -0.3710 -0.5401  0.0154
 7081TIP3    H121207   3.912   5.784   3.242  1.3939 -0.7132 -0.1360
 7081TIP3    H221208   3.845   5.688   3.338 -0.3229 -0.7300 -1.3292
 7082TIP3   OH221209   6.770   4.347   0.124 -0.1670  0.2920 -0.4013
 7082TIP3    H121210   6.784   4.423   0.180 -0.2963 -0.1252  0.2072
 7082TIP3    H221211   6.675   4.342   0.114 -0.1290  2.3180 -3.4115
 7083TIP3   OH221212   0.542   3.954   4.771  0.2232 -0.5972  0.4270
 7083TIP3    H121213   0.610   3.886   4.769 -0.5129 -1.3477  0.1167
 7083TIP3    H221214   0.461   3.907   4.750 -0.3988  0.2752  0.8232
 7084TIP3   OH221215   3.431   3.302   1.362 -0.2425 -0.0679  0.0134
 7084TIP3    H121216   3.459   3.245   1.290 -1.5154 -2.0948  1.0196
 7084TIP3    H221217   3.496   3.288   1.431  0.2640  0.8834 -0.2524
 7085TIP3   OH221218   5.545   4.601   2.551  0.8797 -0.2729  0.4494
 7085TIP3    H121219   5.486   4.525   2.553 -0.6869  0.9022  1.6197
 7085TIP3    H221220   5.525   4.645   2.468 -1.5897  1.2986  1.7592
 7086TIP3   OH221221   5.632   3.588   1.185 -0.2017  0.0824  0.2543
 7086TIP3    H121222   5.569   3.564   1.252 -0.8562 -1.8745 -0.9901
 7086TIP3    H221223   5.581   3.632   1.117  0.0384 -0.0853 -0.0408
 7087TIP3   OH221224   0.553   3.930   3.054  0.4141 -0.2645 -0.1035
 7087TIP3    H121225   0.505   3.875   2.992  1.4487 -1.7151  0.3064
 7087TIP3    H221226   0.621   3.872   3.089 -0.1628  0.4370  2.4365
 7088TIP3   OH221227   1.274   1.695   0.885 -0.6585  0.8469 -0.1703
 7088TIP3    H121228   1.204   1.631   0.872  0.4540 -0.5042  0.2418
 7088TIP3    H221229   1.274   1.712   0.979  0.7162 -0.5655  0.1172
 7089TIP3   OH221230   4.509   5.934   0.231 -0.1698 -0.1660  0.2587
 7089TIP3    H121231   4.522   5.931   0.136  1.5586  2.0777  0.3159
 7089TIP3    H221232   4.565   5.864   0.265 -1.2967 -1.4137 -0.3478
 7090TIP3   OH221233   1.651   4.608   3.548 -0.5337  0.3037  0.4328
 7090TIP3    H121234   1.680   4.567   3.629  0.3593  1.1629  0.5550
 7090TIP3    H221235   1.724   4.662   3.520 -0.9875  0.3458 -0.7313
 7091TIP3   OH221236   6.146   0.107   0.154 -0.1528 -0.0867 -0.0309
 7091TIP3    H121237   6.214   0.109   0.086 -0.2619  0.5540 -0.1251
 7091TIP3    H221238   6.066   0.131   0.108 -0.7199 -2.1132 -0.1993
 7092TIP3   OH221239   0.091   4.533   5.732 -0.1913 -0.3624 -0.5230
 7092TIP3    H121240   0.107   4.599   5.664 -0.1003  1.9378  1.6070
 7092TIP3    H221241   0.178   4.514   5.767 -0.2956 -1.1625 -0.6798
 7093TIP3   OH221242   2.279   0.204   4.290 -0.0118  0.3886  0.1092
 7093TIP3    H121243   2.364   0.179   4.326  0.8090  1.1272 -1.2564
 7093TIP3    H221244   2.224   0.126   4.303  0.3744  0.4236  2.3920
 7094TIP3   OH221245   4.801   2.020   4.105 -0.2988 -0.1058 -0.4147
 7094TIP3    H121246   4.839   2.080   4.169  1.5032 -1.2711 -0.2964
 7094TIP3    H221247   4.849   2.039   4.024 -0.3965 -0.7111 -0.6166
 7095TIP3   OH221248   6.630   1.938   3.876 -0.5016  0.5095  0.3178
 7095TIP3    H121249   6.611   1.924   3.969 -2.6330  1.2216  0.0538
 7095TIP3    H221250   6.563   1.887   3.830  1.1199 -0.6201 -0.8760
 7096TIP3   OH221251   5.424   4.139   1.520 -0.5630 -0.5175  0.5153
 7096TIP3    H121252   5.329   4.145   1.525 -0.5823 -0.8793  0.6088
 7096TIP3    H221253   5.443   4.139   1.426 -0.5291  1.3161  0.4798
 7097TIP3   OH221254   2.450   0.104   4.785 -0.0695  0.0888 -0.0683
 7097TIP3    H121255   2.532   0.138   4.748  0.8711 -0.5976  1.2932
 7097TIP3    H221256   2.397   0.081   4.709  1.9399 -1.6578 -1.0271
 7098TIP3   OH221257   6.117   4.664   3.302 -0.1249 -0.4562  0.3021
 7098TIP3    H121258   6.070   4.621   3.231 -0.2264 -0.1132  0.1614
 7098TIP3    H221259   6.204   4.681   3.267 -0.0388 -0.6757  0.4070
 7099TIP3   OH221260   4.318   0.608   5.092 -0.1361 -0.2964  0.2705
 7099TIP3    H121261   4.361   0.682   5.134  0.7203 -0.7039  0.1265
 7099TIP3    H221262   4.240   0.591   5.145  0.4871 -0.2729  1.1951
 7100TIP3   OH221263   5.642   1.589   5.133  0.3861 -0.3396  0.3422
 7100TIP3    H121264   5.632   1.548   5.219  0.5695 -0.8738  0.1140
 7100TIP3    H221265   5.670   1.518   5.076  1.3513  0.2356  0.0795
 7101TIP3   OH221266   0.714   4.460   5.321  0.1316  0.5477  0.0375
 7101TIP3    H121267   0.673   4.379   5.351 -1.0663  1.4983  1.1066
 7101TIP3    H221268   0.749   4.439   5.234 -1.6983 -0.6154 -0.4634
 7102TIP3   OH221269   5.398   2.702   2.995 -0.4968 -0.3753  0.0498
 7102TIP3    H121270   5.406   2.618   3.041  0.1499 -0.6383 -0.5211
 7102TIP3    H221271   5.486   2.739   2.997 -0.4616 -0.3768 -0.9272
 7103TIP3   OH221272   4.119   2.984   3.096 -0.1251 -0.0293  0.2351
 7103TIP3    H121273   4.128   2.962   3.188  1.2625  1.2902  0.4367
 7103TIP3    H221274   4.028   3.013   3.088 -0.0525  0.5587  1.3451
 7104TIP3   OH221275   5.360   1.528   3.111 -0.3881  0.0985 -0.0769
 7104TIP3    H121276   5.425   1.563   3.171 -1.6974 -0.5316  1.7874
 7104TIP3    H221277   5.403   1.456   3.067  0.8612  1.1050 -0.5630
 7105TIP3   OH221278   4.255   4.860   5.850  0.1251 -0.5487  0.0109
 7105TIP3    H121279   4.209   4.849   5.933  1.6398 -0.5516  0.8727
 7105TIP3    H221280   4.199   4.918   5.799 -0.0539  0.7861  1.6548
 7106TIP3   OH221281   3.016   0.216   2.510 -0.0092 -0.5492 -0.1281
 7106TIP3    H121282   2.949   0.274   2.547  0.2804 -1.2024  1.5158
 7106TIP3    H221283   3.030   0.249   2.422 -1.7953  0.2022 -0.1808
 7107TIP3   OH221284   4.857   0.748   0.090  0.2101 -0.1722  0.5805
 7107TIP3    H121285   4.863   0.661   0.049  3.5592  0.3350 -0.2893
 7107TIP3    H221286   4.795   0.796   0.035  1.7383 -0.6823 -1.7038
 7108TIP3   OH221287   4.581   5.401   2.745 -0.4673 -0.2379 -0.0231
 7108TIP3    H121288   4.670   5.365   2.736 -1.4233 -2.8266  0.0325
 7108TIP3    H221289   4.591   5.473   2.807  1.8340  0.6713 -1.2935
 7109TIP3   OH221290   3.148   4.370   2.758  0.3966 -0.1466  0.3434
 7109TIP3    H121291   3.154   4.420   2.676 -1.1778  2.0633  1.4588
 7109TIP3    H221292   3.205   4.417   2.818 -0.5107 -0.1248  1.2102
 7110TIP3   OH221293   3.781   0.456   5.479  0.1161  0.2473  0.0809
 7110TIP3    H121294   3.708   0.458   5.417 -0.8997 -0.5726  1.1909
 7110TIP3    H221295   3.796   0.547   5.502  0.6803  0.5929 -1.5245
 7111TIP3   OH221296   1.216   6.216   4.779  0.1416  0.0179 -0.0126
 7111TIP3    H121297   1.298   6.196   4.824 -0.2032  1.6427  1.4380
 7111TIP3    H221298   1.178   6.130   4.758  0.6566 -0.8126  2.2185
 7112TIP3   OH221299   4.255   0.883   0.027  0.0765 -0.0958  0.0874
 7112TIP3    H121300   4.231   0.793   0.045  1.4357 -0.7817 -1.3039
 7112TIP3    H221301   4.178   0.921  -0.015  0.7252 -1.7525 -2.8286
 7113TIP3   OH221302   6.832   3.492   4.238  0.6695  0.5257  0.4112
 7113TIP3    H121303   6.837   3.452   4.151  2.4922 -0.1737  0.7958
 7113TIP3    H221304   6.905   3.554   4.239  2.3166 -1.2943  2.2744
 7114TIP3   OH221305   4.955   0.430   2.201  0.3034  0.1452  0.2018
 7114TIP3    H121306   4.963   0.343   2.239 -0.6189  0.1914  0.5389
 7114TIP3    H221307   5.045   0.459   2.186  0.7283  0.2023  2.5214
 7115TIP3   OH221308   6.333   0.847   2.844 -0.7222  0.3600 -0.3754
 7115TIP3    H121309   6.251   0.804   2.871 -1.2540  0.7975 -1.2290
 7115TIP3    H221310   6.389   0.844   2.921 -1.0756 -1.0694 -0.1478
 7116TIP3   OH221311   0.453   1.273   0.716 -0.7200  0.0363 -0.4646
 7116TIP3    H121312   0.418   1.308   0.798 -3.3272 -0.7871 -1.1356
 7116TIP3    H221313   0.547   1.271   0.730 -0.9023  1.8385  1.7300
 7117TIP3   OH221314   1.485  -0.015   3.195 -0.9302  1.2581  0.2301
 7117TIP3    H121315   1.552   0.053   3.192 -0.4747  0.8391  0.7298
 7117TIP3    H221316   1.412   0.025   3.244 -0.7968  1.4958  0.2369
 7118TIP3   OH221317   0.733   0.361   5.328  0.0286  0.1697  0.0622
 7118TIP3    H121318   0.765   0.444   5.292 -0.0266  0.4137  0.5676
 7118TIP3    H221319   0.781   0.351   5.410  0.1567 -0.3845 -0.0750
 7119TIP3   OH221320   0.504   4.160   4.501  0.1414 -0.4406 -0.0104
 7119TIP3    H121321   0.417   4.121   4.502 -0.1929  0.2745 -0.0223
 7119TIP3    H221322   0.490   4.249   4.533  0.6639  0.0687 -1.1242
 7120TIP3   OH221323   6.473   6.074   3.073 -0.3406 -0.9119  0.3641
 7120TIP3    H121324   6.546   6.048   3.016 -0.7406 -0.0361 -0.5845
 7120TIP3    H221325   6.394   6.049   3.025 -0.6759 -0.7882  0.8457
 7121TIP3   OH221326   3.744   1.961   5.245  0.4747  0.2003  0.0020
 7121TIP3    H121327   3.708   2.037   5.291 -0.5352 -1.3068  1.9012
 7121TIP3    H221328   3.699   1.886   5.285  1.8869 -1.4405 -1.3214
 7122TIP3   OH221329   5.664   3.045   0.383 -0.2082  0.0667 -0.9776
 7122TIP3    H121330   5.713   3.105   0.326 -0.9530  0.2438 -1.4485
 7122TIP3    H221331   5.642   2.971   0.326 -0.2552 -0.1352 -0.6974
 7123TIP3   OH221332   2.554   1.449   0.225 -0.1119 -0.0010 -0.3991
 7123TIP3    H121333   2.474   1.481   0.266  0.2377  1.1355 -0.5701
 7123TIP3    H221334   2.525   1.387   0.158 -0.6965 -2.7075  2.1013
 7124TIP3   OH221335   4.203   4.575   0.359 -0.4632  0.0104  0.2299
 7124TIP3    H121336   4.190   4.649   0.418  0.7111 -0.5646  1.2644
 7124TIP3    H221337   4.114   4.546   0.338 -0.9497  1.6657 -0.1764
 7125TIP3   OH221338   0.206   3.793   3.421 -0.0889  0.4147 -0.1586
 7125TIP3    H121339   0.198   3.856   3.492  1.3297  0.7662 -0.2852
 7125TIP3    H221340   0.170   3.712   3.457 -0.1150  0.7884  0.6807
 7126TIP3   OH221341   4.708   5.751   0.342 -0.3683  0.3238  0.3794
 7126TIP3    H121342   4.752   5.733   0.259 -2.0104  1.0595 -0.7071
 7126TIP3    H221343   4.779   5.765   0.404  0.9973 -3.2692 -0.1074
 7127TIP3   OH221344   3.716   1.762   4.861 -0.3819 -0.5353  0.0991
 7127TIP3    H121345   3.742   1.854   4.849  0.1034 -0.4918  1.3215
 7127TIP3    H221346   3.641   1.751   4.804 -1.1745  0.9649  0.7859
 7128TIP3   OH221347   3.326   2.279   5.650 -0.1098 -0.0403  0.3990
 7128TIP3    H121348   3.342   2.227   5.571 -0.0289 -0.6262  0.8002
 7128TIP3    H221349   3.410   2.322   5.667 -0.8402  2.3677 -1.4440
 7129TIP3   OH221350   6.775   6.325   5.806 -0.2664  0.6188 -0.2216
 7129TIP3    H121351   6.796   6.418   5.813 -0.4700  0.6211  0.3953
 7129TIP3    H221352   6.686   6.317   5.840 -1.0836  0.5129 -2.2088
 7130TIP3   OH221353   6.800   2.650   2.131 -0.1721 -0.0191 -0.2143
 7130TIP3    H121354   6.864   2.718   2.109 -0.2140 -0.1263 -0.6888
 7130TIP3    H221355   6.847   2.591   2.191  0.2871 -0.2732 -0.8086
 7131TIP3   OH221356   2.313   6.326   3.910  0.0640 -0.3471 -0.0808
 7131TIP3    H121357   2.310   6.413   3.950 -1.7221 -0.1791 -0.5012
 7131TIP3    H221358   2.256   6.333   3.833  1.2079 -1.4413 -1.0637
 7132TIP3   OH221359   0.921   5.897   4.289  0.2026  0.1843 -0.0289
 7132TIP3    H121360   0.985   5.915   4.358 -1.7264 -0.1511  1.9720
 7132TIP3    H221361   0.932   5.804   4.270  3.1153  0.9290 -2.8656
 7133TIP3   OH221362   0.574   3.611   2.992 -0.1192 -0.0218  0.7892
 7133TIP3    H121363   0.638   3.602   2.922 -0.1628 -1.3958  0.9024
 7133TIP3    H221364   0.518   3.683   2.963  1.1286  0.8383  0.4331
 7134TIP3   OH221365   2.956   4.581   3.910  0.1685  0.0570 -0.4230
 7134TIP3    H121366   3.024   4.595   3.976  0.9132  2.2980 -1.5638
 7134TIP3    H221367   2.875   4.610   3.953  0.4239  0.2069 -0.0352
 7135TIP3   OH221368   3.442   5.226   4.896  0.0015  0.3903  0.2860
 7135TIP3    H121369   3.454   5.131   4.893 -0.3904  0.3596 -1.4065
 7135TIP3    H221370   3.352   5.238   4.928 -0.1115  0.1707  0.0505
 7136TIP3   OH221371   7.154   4.432   0.754 -0.5559  0.0621  0.1576
 7136TIP3    H121372   7.201   4.469   0.680  1.4049  2.2719  2.3408
 7136TIP3    H221373   7.213   4.365   0.789 -0.5535  0.4311  0.8746
 7137TIP3   OH221374   2.101   3.325   4.063 -0.8583 -1.0816 -0.3947
 7137TIP3    H121375   2.010   3.346   4.041 -1.0615 -2.1577 -0.6439
 7137TIP3    H221376   2.105   3.331   4.159 -1.2136 -1.1370 -0.3763
 7138TIP3   OH221377   1.354   3.586   5.389 -0.0113 -0.3481 -0.2196
 7138TIP3    H121378   1.288   3.518   5.400  0.2291 -0.2769  2.2880
 7138TIP3    H221379   1.437   3.541   5.405  0.1318  0.5051  1.7392
 7139TIP3   OH221380   5.987   0.371   1.135  0.1891 -0.6574  0.4695
 7139TIP3    H121381   5.975   0.281   1.166  2.9784 -1.1635  0.3329
 7139TIP3    H221382   6.015   0.419   1.213  2.3843 -0.8149 -0.1633
 7140TIP3   OH221383   6.083   3.438   1.824  0.5614 -0.3922  0.2677
 7140TIP3    H121384   6.005   3.425   1.877  1.1631 -1.4550  0.9318
 7140TIP3    H221385   6.057   3.502   1.758 -1.0678 -1.2465  0.0449
 7141TIP3   OH221386   1.345   0.439   2.013 -0.1761  0.2647 -0.2450
 7141TIP3    H121387   1.387   0.357   2.040  1.1503  1.4170  1.4166
 7141TIP3    H221388   1.255   0.431   2.044 -0.9934 -1.7475 -2.7879
 7142TIP3   OH221389   5.718   6.266   1.201  0.3942 -0.3008  0.3163
 7142TIP3    H121390   5.652   6.320   1.245  0.6928 -0.6258  1.1800
 7142TIP3    H221391   5.672   6.227   1.127  0.1190  0.9751 -0.2226
 7143TIP3   OH221392   0.130   0.990   1.267  0.1786 -0.7129 -0.3181
 7143TIP3    H121393   0.130   0.894   1.270  3.4635 -0.8062  0.6613
 7143TIP3    H221394   0.213   1.013   1.225 -0.4524  1.7200 -0.3923
 7144TIP3   OH221395   6.502   1.582   3.514 -0.0068 -0.0752 -0.1084
 7144TIP3    H121396   6.416   1.545   3.529  0.5390 -1.1143  0.5735
 7144TIP3    H221397   6.561   1.506   3.510  1.1546  0.7044  1.3283
 7145TIP3   OH221398   1.074   3.072   1.674 -0.3338 -0.8377 -0.0620
 7145TIP3    H121399   1.064   2.991   1.724 -1.7196 -0.8088 -0.2638
 7145TIP3    H221400   1.035   3.053   1.589 -0.5170 -0.0169 -0.1704
 7146TIP3   OH221401   4.369   4.372   4.940  0.3926  0.4340  0.2996
 7146TIP3    H121402   4.389   4.279   4.925 -1.4180 -0.1338  1.1540
 7146TIP3    H221403   4.455   4.413   4.952  1.2023 -1.2685  0.6372
 7147TIP3   OH221404   5.112   4.972   3.053  0.4526 -0.0806 -0.2681
 7147TIP3    H121405   5.089   4.939   3.140 -1.0413 -1.8107 -1.2616
 7147TIP3    H221406   5.208   4.978   3.054  0.6538 -2.4719  0.7112
 7148TIP3   OH221407   4.148   6.287   1.823  0.2821 -0.1355  0.4512
 7148TIP3    H121408   4.193   6.304   1.905 -0.6499 -1.8841  1.3750
 7148TIP3    H221409   4.103   6.204   1.836 -0.3403 -0.2029 -1.6483
 7149TIP3   OH221410   6.496   0.786   0.708  0.1475  0.4361  0.2671
 7149TIP3    H121411   6.460   0.846   0.774  2.4305  1.1353  0.9707
 7149TIP3    H221412   6.568   0.834   0.669  0.5239 -0.9860 -0.8694
 7150TIP3   OH221413   0.169   0.158   2.182  0.1603 -0.1451 -0.2373
 7150TIP3    H121414   0.161   0.162   2.086  2.6146 -0.5198 -0.5224
 7150TIP3    H221415   0.264   0.155   2.198 -0.2082 -1.1495  2.1759
 7151TIP3   OH221416   2.348   6.633   3.910  0.3720  0.3844  0.2568
 7151TIP3    H121417   2.388   6.636   3.823  0.1558  0.8196  0.1695
 7151TIP3    H221418   2.260   6.669   3.897 -0.1110 -0.7054  0.4138
 7152TIP3   OH221419   0.773   5.502   2.839 -0.1579  0.3560  0.4500
 7152TIP3    H121420   0.797   5.518   2.748  0.6069  1.3383  0.8044
 7152TIP3    H221421   0.856   5.504   2.886 -0.0786 -3.3953  0.7810
 7153TIP3   OH221422   6.608   2.329   1.103  0.0268  0.4307 -0.2174
 7153TIP3    H121423   6.688   2.380   1.113  0.3086  0.2973 -1.5872
 7153TIP3    H221424   6.551   2.383   1.048 -0.8575  0.5426  0.7755
 7154TIP3   OH221425   1.691   0.816   3.508  0.1175  0.0158 -0.2072
 7154TIP3    H121426   1.628   0.874   3.549 -0.8025 -2.0395  1.4884
 7154TIP3    H221427   1.664   0.728   3.535  0.5996 -1.3932 -3.7350
 7155TIP3   OH221428   5.036   4.499   2.167 -0.3584  0.5560 -0.0313
 7155TIP3    H121429   5.123   4.534   2.150 -0.4562  0.4698 -0.7609
 7155TIP3    H221430   5.035   4.479   2.261  0.6342 -0.0850 -0.1479
 7156TIP3   OH221431   6.903   0.868   4.614  0.4903  0.2479 -0.2749
 7156TIP3    H121432   6.817   0.826   4.611  1.7063 -2.9073  2.5310
 7156TIP3    H221433   6.942   0.849   4.530 -0.8840  0.2439 -0.9468
 7157TIP3   OH221434   0.083   1.858   3.348 -0.0899  0.1270 -0.4630
 7157TIP3    H121435   0.046   1.900   3.425  1.7898 -1.0974  1.1924
 7157TIP3    H221436   0.140   1.790   3.382  2.8084  1.1380 -2.8494
 7158TIP3   OH221437   5.104   6.564   5.438  0.0592  0.1315 -0.1763
 7158TIP3    H121438   5.176   6.526   5.488  0.0342  0.1088 -0.1577
 7158TIP3    H221439   5.134   6.559   5.347 -0.3845 -0.9428 -0.2868
 7159TIP3   OH221440   0.109   5.434   2.238 -0.1968  0.3301  0.5101
 7159TIP3    H121441   0.159   5.500   2.286 -0.1506 -0.7425  2.0063
 7159TIP3    H221442   0.018   5.450   2.263 -0.3054  0.5178 -0.0018
 7160TIP3   OH221443   6.767   2.370   0.150 -0.3033 -0.6604 -0.0449
 7160TIP3    H121444   6.782   2.374   0.055 -0.3460  1.8019 -0.0145
 7160TIP3    H221445   6.819   2.442   0.186 -1.2057 -0.8115  1.6715
 7161TIP3   OH221446   0.138   4.025   3.305 -0.1751 -0.2060  0.2870
 7161TIP3    H121447   0.150   3.943   3.352  1.8059 -0.2191 -0.1264
 7161TIP3    H221448   0.194   4.087   3.352 -0.3826  0.4824 -0.3637
 7162TIP3   OH221449   1.046   1.750   4.814  0.1355 -0.1484  0.2985
 7162TIP3    H121450   0.956   1.719   4.823 -0.5534  1.5366 -0.2802
 7162TIP3    H221451   1.037   1.844   4.796  2.0470  0.2742  1.2553
 7163TIP3   OH221452   6.760   4.835   2.556 -0.3685 -0.2543  0.2123
 7163TIP3    H121453   6.677   4.837   2.605  0.5429  1.0095  1.8180
 7163TIP3    H221454   6.772   4.926   2.527 -0.3096 -0.7524 -1.4024
 7164TIP3   OH221455   6.069   6.414   3.839 -0.2307 -0.2647  0.0170
 7164TIP3    H121456   6.059   6.508   3.825 -1.8402 -0.1622  1.4045
 7164TIP3    H221457   5.992   6.376   3.796 -0.1373 -0.8250  0.3391
 7165TIP3   OH221458   5.458   0.710   3.391 -0.2886  0.5768 -0.3345
 7165TIP3    H121459   5.475   0.803   3.374 -0.1827  0.5870 -0.1808
 7165TIP3    H221460   5.437   0.707   3.484 -0.0311  0.4117 -0.2803
 7166TIP3   OH221461   2.417   3.709   3.830 -0.1611  0.2423  0.3044
 7166TIP3    H121462   2.496   3.735   3.782  0.1984 -0.7913  0.3150
 7166TIP3    H221463   2.389   3.629   3.787 -0.5115 -0.0563  1.0803
 7167TIP3   OH221464   0.460   2.989   1.754  0.6474  0.0250 -0.1725
 7167TIP3    H121465   0.381   2.997   1.807  1.6787  1.5108  1.2826
 7167TIP3    H221466   0.443   2.916   1.696 -0.2354 -2.4388  2.8933
 7168TIP3   OH221467   4.573   6.059   4.025  0.2939  0.5513  0.2675
 7168TIP3    H121468   4.487   6.095   4.046 -0.5197 -1.0730 -0.0367
 7168TIP3    H221469   4.554   5.972   3.990  2.1524 -0.6067  1.8871
 7169TIP3   OH221470   1.329   0.316   5.344 -0.4633  0.4621  0.1661
 7169TIP3    H121471   1.238   0.319   5.373 -0.7598  2.3407 -0.8012
 7169TIP3    H221472   1.328   0.356   5.257  1.6174  3.1043  1.1918
 7170TIP3   OH221473   4.955   2.101   5.505  0.4969 -0.6089  0.0440
 7170TIP3    H121474   4.861   2.081   5.508  0.3681  0.0689  0.8914
 7170TIP3    H221475   4.997   2.018   5.528  0.1247 -0.9814 -0.5723
 7171TIP3   OH221476   5.889   0.820   1.745  0.5623  0.1095  0.1328
 7171TIP3    H121477   5.950   0.846   1.676 -0.3079 -0.1945 -0.7856
 7171TIP3    H221478   5.926   0.739   1.781  1.1323  0.3855  0.1727
 7172TIP3   OH221479   2.761   3.790   4.228  0.2775  0.1283 -0.1282
 7172TIP3    H121480   2.834   3.744   4.269  1.1648  1.6116  0.0467
 7172TIP3    H221481   2.792   3.810   4.140  0.0127  0.5711 -0.1246
 7173TIP3   OH221482   2.536   1.004   4.286 -0.0505 -0.2247 -0.2944
 7173TIP3    H121483   2.557   0.915   4.261  0.3347 -0.5019  0.9441
 7173TIP3    H221484   2.620   1.049   4.289 -0.2365  0.1708 -0.8612
 7174TIP3   OH221485   1.523   2.730   5.734 -0.3548  0.4055 -0.1592
 7174TIP3    H121486   1.464   2.678   5.789 -0.3599  1.0667  0.4801
 7174TIP3    H221487   1.485   2.725   5.646  0.9060 -2.5467 -0.6292
 7175TIP3   OH221488   1.644   3.607   5.872  0.0016 -0.6071 -0.1185
 7175TIP3    H121489   1.600   3.642   5.796 -0.3998 -0.3304  0.2374
 7175TIP3    H221490   1.737   3.623   5.856  0.0876 -2.2007 -1.3835
 7176TIP3   OH221491   6.286   0.118   3.471 -0.2448  0.0797  0.3335
 7176TIP3    H121492   6.369   0.090   3.509 -0.7533 -2.7625 -0.4101
 7176TIP3    H221493   6.224   0.116   3.545 -0.5273 -2.1170  0.0798
 7177TIP3   OH221494   3.336   0.964   5.155  0.0395  0.3778  0.1225
 7177TIP3    H121495   3.387   1.035   5.115 -0.8956  1.1690  0.2880
 7177TIP3    H221496   3.245   0.990   5.140 -0.3118 -0.4474  0.8041
 7178TIP3   OH221497   6.251   4.718   0.791 -0.1018  0.3836  0.3375
 7178TIP3    H121498   6.263   4.624   0.787  0.8760  0.5255 -1.6223
 7178TIP3    H221499   6.174   4.731   0.846 -2.5538 -1.7909 -2.2617
 7179TIP3   OH221500   2.096   3.976   4.558 -0.2362 -0.5066  0.4182
 7179TIP3    H121501   2.107   4.027   4.639  0.6292 -1.0523  0.6587
 7179TIP3    H221502   2.061   4.039   4.495  0.2440  0.2413  0.8789
 7180TIP3   OH221503   1.421   3.477   0.323  0.0339  0.0870  0.1908
 7180TIP3    H121504   1.474   3.439   0.253 -1.5567  1.2255 -1.7364
 7180TIP3    H221505   1.475   3.548   0.358  0.5250  0.0587 -0.4833
 7181TIP3   OH221506   5.067   6.118   3.758  0.4179  1.0568  0.2184
 7181TIP3    H121507   5.024   6.033   3.769 -1.0168  1.4944 -1.5180
 7181TIP3    H221508   5.151   6.097   3.717  0.6381  0.4081  0.9656
 7182TIP3   OH221509   6.963   2.088   0.686 -0.5503 -0.4576 -0.0620
 7182TIP3    H121510   6.960   2.140   0.606  2.0571  0.4422  0.3183
 7182TIP3    H221511   6.914   2.139   0.750  0.9927  1.0572 -0.0133
 7183TIP3   OH221512   4.580   5.050   3.785 -0.4495  0.4555  0.2058
 7183TIP3    H121513   4.583   4.956   3.770  2.0922  0.5431 -0.3486
 7183TIP3    H221514   4.528   5.085   3.712 -1.5900 -0.4909  0.5357
 7184TIP3   OH221515   6.813   0.948   2.239 -0.0702  0.9299  0.0212
 7184TIP3    H121516   6.899   0.988   2.256  2.2037 -3.8541  1.5246
 7184TIP3    H221517   6.802   0.955   2.144  1.3373  2.7646 -0.0546
 7185TIP3   OH221518   1.983   6.077   1.034 -1.1943  0.7228  0.4468
 7185TIP3    H121519   1.934   6.121   1.102 -0.1602  0.5495  1.3300
 7185TIP3    H221520   1.988   6.140   0.962 -2.0209  1.0201  0.6455
 7186TIP3   OH221521   4.535   2.908   1.166  1.1839  0.3574 -0.4558
 7186TIP3    H121522   4.442   2.898   1.146  0.3585  1.7302  2.2158
 7186TIP3    H221523   4.566   2.975   1.105 -0.1688  1.4770  0.0395
 7187TIP3   OH221524   6.461   1.863   1.336  0.8815  0.1103 -0.1443
 7187TIP3    H121525   6.542   1.860   1.387  0.3617 -1.5625  0.6546
 7187TIP3    H221526   6.393   1.881   1.400  0.4962  0.6042 -0.6756
 7188TIP3   OH221527   6.838   4.408   5.704  0.1497 -0.3676  0.0862
 7188TIP3    H121528   6.831   4.392   5.798 -0.2614  0.2940  0.1732
 7188TIP3    H221529   6.834   4.321   5.665 -2.2968 -0.5449  0.5313
 7189TIP3   OH221530   2.916   1.380   4.046  0.0025 -0.5095 -0.2021
 7189TIP3    H121531   2.928   1.294   4.005  2.1454 -0.5737  0.4772
 7189TIP3    H221532   2.962   1.374   4.129 -1.7707  0.5990  0.9332
 7190TIP3   OH221533   0.370   5.172   3.792 -0.3039 -0.2801 -0.6433
 7190TIP3    H121534   0.312   5.232   3.840  0.2211 -0.7544  0.6177
 7190TIP3    H221535   0.458   5.195   3.821 -0.1635 -2.6208  1.0875
 7191TIP3   OH221536   7.199   4.874   2.494  0.5232 -0.4858  0.2986
 7191TIP3    H121537   7.156   4.925   2.563 -0.0936  1.2133 -1.2594
 7191TIP3    H221538   7.224   4.939   2.428  2.1739 -1.8974 -0.5573
 7192TIP3   OH221539   7.043   0.894   0.946 -0.2185 -0.1810 -0.0750
 7192TIP3    H121540   7.065   0.947   1.022  1.4280 -1.2826  0.2800
 7192TIP3    H221541   6.953   0.866   0.961  0.0621 -0.3565  1.4561
 7193TIP3   OH221542   4.921   6.684   3.220 -0.1146  0.0455 -0.0442
 7193TIP3    H121543   4.896   6.777   3.218  0.1021  0.2094  2.1384
 7193TIP3    H221544   4.875   6.645   3.145 -1.6711  1.5669  0.0498
 7194TIP3   OH221545   0.532   2.474   2.541  0.3622 -0.4116  0.1944
 7194TIP3    H121546   0.494   2.536   2.603 -1.1364 -0.8722 -0.2399
 7194TIP3    H221547   0.583   2.528   2.480  0.7889  0.1617  1.0439
 7195TIP3   OH221548   0.190   3.096   0.082  0.3887  0.2032  0.4073
 7195TIP3    H121549   0.262   3.081   0.022 -1.1933  0.9051 -1.7820
 7195TIP3    H221550   0.181   3.192   0.086 -1.5651  0.1341 -0.9098
 7196TIP3   OH221551   6.288   4.972   4.337  0.4054 -0.1104  0.1168
 7196TIP3    H121552   6.370   4.957   4.290  0.9357  0.3887  0.8545
 7196TIP3    H221553   6.249   5.048   4.294 -0.2890 -1.0815 -1.0205
 7197TIP3   OH221554   0.312   6.113   3.740 -0.3007  0.2328 -0.2381
 7197TIP3    H121555   0.263   6.090   3.819 -0.7760 -1.9187 -1.0818
 7197TIP3    H221556   0.391   6.155   3.772 -0.5436 -0.4689  1.3862
 7198TIP3   OH221557   2.788   5.148   2.548 -0.0076  0.4777  0.0654
 7198TIP3    H121558   2.701   5.158   2.587  0.5497  1.5318  1.1328
 7198TIP3    H221559   2.848   5.149   2.623  0.9458  0.0803 -0.6714
 7199TIP3   OH221560   4.560   0.978   3.396  0.0484 -0.3447  0.2115
 7199TIP3    H121561   4.560   0.937   3.310  0.6381 -1.7821  0.8651
 7199TIP3    H221562   4.577   1.071   3.379 -0.1166 -0.5581 -1.2221
 7200TIP3   OH221563   0.099   0.879   3.824  0.1981  0.3969 -0.1135
 7200TIP3    H121564   0.183   0.915   3.794 -0.4373  0.3306 -2.0738
 7200TIP3    H221565   0.121   0.790   3.853  0.8117  0.3756 -0.6063
 7201TIP3   OH221566   5.687   3.200   4.656 -0.0337 -0.1819  0.8132
 7201TIP3    H121567   5.769   3.167   4.693  1.3875 -0.3915 -2.2203
 7201TIP3    H221568   5.656   3.129   4.601 -0.8466  0.8572 -0.1069
 7202TIP3   OH221569   0.666   2.131   5.858  0.2213 -0.3376 -0.2004
 7202TIP3    H121570   0.622   2.055   5.820  1.5503 -0.7878 -0.9128
 7202TIP3    H221571   0.633   2.205   5.807 -0.3477 -0.5525 -0.1519
 7203TIP3   OH221572   6.318   6.412   0.619  0.2275 -0.2206  0.0724
 7203TIP3    H121573   6.239   6.359   0.627  0.5841 -0.8757 -0.6164
 7203TIP3    H221574   6.286   6.501   0.606 -0.3943 -0.4509  0.0033
 7204TIP3   OH221575   2.547   2.205   3.694 -0.0663 -0.5666 -0.1147
 7204TIP3    H121576   2.566   2.294   3.726 -0.7485 -0.2353 -0.5949
 7204TIP3    H221577   2.626   2.179   3.647  0.1119 -0.1786 -0.0377
 7205TIP3   OH221578   1.053   3.533   4.602  0.3873  0.4728 -0.0247
 7205TIP3    H121579   1.010   3.510   4.520  0.4204 -0.7345  0.2816
 7205TIP3    H221580   1.101   3.613   4.582  0.7698 -0.0473 -1.3164
 7206TIP3   OH221581   6.987   2.760   5.884  0.6411  0.0778  0.0100
 7206TIP3    H121582   6.902   2.800   5.864 -0.3015 -0.9792  1.6416
 7206TIP3    H221583   6.997   2.691   5.819  0.2737  0.2473 -0.2305
 7207TIP3   OH221584   4.191   4.664   0.065 -0.1032  0.0731  0.2582
 7207TIP3    H121585   4.231   4.750   0.071  0.3444 -0.1208  0.0767
 7207TIP3    H221586   4.231   4.614   0.136  0.8062 -0.4497 -0.5970
 7208TIP3   OH221587   6.184   4.966   0.700 -0.5517  0.0301 -0.0179
 7208TIP3    H121588   6.258   5.013   0.736 -1.9222  0.8737  1.8364
 7208TIP3    H221589   6.199   4.874   0.724 -0.7041  0.3773  1.4626
 7209TIP3   OH221590   3.214   5.578   1.134 -0.2024 -0.1362 -0.7013
 7209TIP3    H121591   3.151   5.563   1.064  0.1418  0.7218 -1.2070
 7209TIP3    H221592   3.261   5.495   1.143  0.1444 -0.0793 -1.8901
 7210TIP3   OH221593   3.936   3.940   4.782 -0.1402  0.1400  0.1885
 7210TIP3    H121594   3.843   3.953   4.798  0.0221  1.5017  0.1945
 7210TIP3    H221595   3.979   3.970   4.862  0.3231  0.1802 -0.0683
 7211TIP3   OH221596   0.560   2.770   1.588 -0.6335  0.5842  0.1706
 7211TIP3    H121597   0.609   2.768   1.670 -0.0145  1.1255 -0.1714
 7211TIP3    H221598   0.627   2.776   1.520 -1.0996 -0.6710 -0.4319
 7212TIP3   OH221599   4.824   1.685   5.458  0.1848  0.3348  0.0555
 7212TIP3    H121600   4.806   1.749   5.389  1.2592  0.7997  0.1970
 7212TIP3    H221601   4.907   1.645   5.433  0.1349 -0.1250  0.6206
 7213TIP3   OH221602   0.577   0.237   1.051  0.7320 -0.3927 -0.5182
 7213TIP3    H121603   0.584   0.237   1.146  0.3495 -4.5256 -0.2939
 7213TIP3    H221604   0.495   0.282   1.032  0.0741 -0.8026  1.2489
 7214TIP3   OH221605   7.139   0.603   1.891 -0.5232 -0.3878  0.0131
 7214TIP3    H121606   7.126   0.539   1.961 -0.2023  2.2667  2.7389
 7214TIP3    H221607   7.167   0.551   1.815 -0.8646 -3.4551  1.8124
 7215TIP3   OH221608   1.021   0.927   5.415  0.0222 -0.4629 -0.3544
 7215TIP3    H121609   1.023   0.839   5.377  1.3526  0.1616 -1.8483
 7215TIP3    H221610   0.931   0.937   5.447 -0.6018 -1.7941 -1.5662
 7216TIP3   OH221611   4.249   5.639   2.326  0.0219  0.2140 -0.2939
 7216TIP3    H121612   4.300   5.617   2.404  0.8824 -1.2980 -1.2348
 7216TIP3    H221613   4.286   5.721   2.296  0.3527  0.3010  0.3223
 7217TIP3   OH221614   2.273   3.354   0.107 -0.1636  0.2779  0.4798
 7217TIP3    H121615   2.202   3.364   0.170  0.4651  2.5884  0.9015
 7217TIP3    H221616   2.352   3.372   0.157  0.3612  1.9973 -0.8692
 7218TIP3   OH221617   3.540   4.363   5.291  0.2248  0.5456  0.1175
 7218TIP3    H121618   3.484   4.305   5.240  0.2677  0.7023 -0.1111
 7218TIP3    H221619   3.504   4.361   5.379  0.4075 -0.0644  0.1802
 7219TIP3   OH221620   4.156   1.212   1.712  0.1466  0.1610  0.0260
 7219TIP3    H121621   4.115   1.249   1.634  1.0369  0.7958 -0.1641
 7219TIP3    H221622   4.112   1.254   1.785 -1.6655 -1.4721 -0.0651
 7220TIP3   OH221623   4.716   5.318   3.527 -0.4616  0.0562 -1.1089
 7220TIP3    H121624   4.809   5.294   3.528 -0.9140 -1.8985 -1.7408
 7220TIP3    H221625   4.694   5.329   3.435 -1.1729 -0.9730 -1.0865
 7221TIP3   OH221626   1.048   5.506   1.745 -0.0511 -0.2129 -0.0715
 7221TIP3    H121627   1.037   5.523   1.839  0.3952  1.3302 -0.2543
 7221TIP3    H221628   1.040   5.593   1.705  0.3507 -0.7724 -1.4003
 7222TIP3   OH221629   4.778   4.765   5.888  0.2336 -0.2435  0.0956
 7222TIP3    H121630   4.743   4.828   5.825  0.0398 -1.6319 -1.2573
 7222TIP3    H221631   4.706   4.702   5.901  0.5001 -0.3334  1.2172
 7223TIP3   OH221632   2.723   5.405   1.889 -0.4567  0.3375  0.0725
 7223TIP3    H121633   2.680   5.320   1.899 -0.1401  0.0428 -0.9899
 7223TIP3    H221634   2.792   5.404   1.956 -0.9308  0.0702  0.5681
 7224TIP3   OH221635   6.958   1.287   2.479 -0.4036 -0.5008  0.1312
 7224TIP3    H121636   6.992   1.373   2.453  1.2425 -0.1393  3.0779
 7224TIP3    H221637   7.011   1.224   2.430  0.4691  0.1368  0.2504
 7225TIP3   OH221638   3.721   5.673   2.163 -0.2525 -0.1165  0.6146
 7225TIP3    H121639   3.732   5.751   2.109 -0.1112 -0.7690 -0.3260
 7225TIP3    H221640   3.796   5.675   2.223  0.1634  0.0867  0.1029
 7226TIP3   OH221641   3.075   6.502   3.532  0.2338  0.3258 -0.6908
 7226TIP3    H121642   3.006   6.562   3.561  0.4127 -0.1783  0.8935
 7226TIP3    H221643   3.027   6.425   3.501  0.0393 -0.4298  1.3334
 7227TIP3   OH221644   2.961   2.265   0.329 -0.3741 -0.2794  0.6021
 7227TIP3    H121645   3.014   2.187   0.310 -0.0491 -0.1272  0.8597
 7227TIP3    H221646   2.913   2.242   0.408 -1.1794 -0.6499  0.0121
 7228TIP3   OH221647   1.232   5.770   3.822 -0.6127  0.6022  0.0873
 7228TIP3    H121648   1.153   5.823   3.832  0.1205  1.5569  1.0186
 7228TIP3    H221649   1.199   5.682   3.803 -1.9232  0.8810  0.9123
 7229TIP3   OH221650   1.605   0.071   1.269  0.1754  0.3808  0.1052
 7229TIP3    H121651   1.543   0.083   1.197 -0.3411  0.0687  0.4875
 7229TIP3    H221652   1.631  -0.021   1.263  1.4175  0.7675 -0.6886
 7230TIP3   OH221653   0.215   2.842   1.139 -0.5894 -0.6315 -0.3464
 7230TIP3    H121654   0.159   2.791   1.197 -2.1616  2.4414  1.1036
 7230TIP3    H221655   0.266   2.898   1.198  0.4911  0.0114 -1.8217
 7231TIP3   OH221656   0.674   5.096   0.602  0.2429 -0.3618 -0.3329
 7231TIP3    H121657   0.647   5.050   0.523  0.5362 -0.7212 -0.2272
 7231TIP3    H221658   0.749   5.149   0.574  0.2806 -0.4073 -0.3168
 7232TIP3   OH221659   3.009   3.831   2.038  0.2603  0.0174 -0.4447
 7232TIP3    H121660   3.064   3.799   2.111 -1.5698 -0.8149  0.6355
 7232TIP3    H221661   3.015   3.926   2.044  1.3434 -0.0455 -0.1833
 7233TIP3   OH221662   2.115   4.634   2.133  0.0118 -0.1656 -0.5327
 7233TIP3    H121663   2.185   4.692   2.105 -0.0993  0.0764 -0.3087
 7233TIP3    H221664   2.042   4.692   2.155 -1.4076 -0.4751 -3.7126
 7234TIP3   OH221665   1.112   2.384   3.468 -0.5656 -0.7174  0.7255
 7234TIP3    H121666   1.201   2.417   3.476 -0.5551 -0.5941  0.1602
 7234TIP3    H221667   1.077   2.387   3.557 -0.4100  0.3888  0.7643
 7235TIP3   OH221668   1.391   5.757   4.758  0.1652  0.1251 -0.1396
 7235TIP3    H121669   1.344   5.684   4.718 -1.5980 -0.2931  2.3899
 7235TIP3    H221670   1.483   5.738   4.743 -0.3333 -1.2331 -1.7713
 7236TIP3   OH221671   2.480   0.580   3.663  0.2814  0.0485  0.4262
 7236TIP3    H121672   2.394   0.545   3.689  0.4657 -0.4432  0.3947
 7236TIP3    H221673   2.525   0.504   3.626  0.1102  0.6774 -1.1383
 7237TIP3   OH221674   5.752   0.410   5.769  0.0647 -0.2279 -0.3269
 7237TIP3    H121675   5.734   0.366   5.686 -0.9406  0.7180 -0.6308
 7237TIP3    H221676   5.843   0.439   5.761 -0.2290  0.4732 -1.4086
 7238TIP3   OH221677   5.993   1.609   1.098  0.4324 -0.1784 -0.4137
 7238TIP3    H121678   5.915   1.555   1.113 -0.8200  1.4431 -0.8299
 7238TIP3    H221679   6.018   1.640   1.186 -0.2167  0.3623 -0.4087
 7239TIP3   OH221680   1.651   0.522   0.524 -0.3723  0.2351  0.0237
 7239TIP3    H121681   1.685   0.528   0.434  1.7279 -0.2917  0.7280
 7239TIP3    H221682   1.658   0.429   0.546 -1.3071  0.2870  0.5984
 7240TIP3   OH221683   1.420   0.656   3.589  0.3360 -0.2796  0.3268
 7240TIP3    H121684   1.347   0.617   3.636  1.7947  0.8767  3.9109
 7240TIP3    H221685   1.497   0.609   3.620  1.4895  1.1360 -0.2487
 7241TIP3   OH221686   6.612   5.713   0.474  0.3443  0.1196  0.0089
 7241TIP3    H121687   6.521   5.735   0.497  0.3115  1.2080 -1.0657
 7241TIP3    H221688   6.653   5.691   0.558 -0.8593 -0.2233  0.5354
 7242TIP3   OH221689   3.195   0.893   1.018  0.0263 -0.4672  0.2438
 7242TIP3    H121690   3.253   0.819   0.999 -1.5054 -1.6554  0.0388
 7242TIP3    H221691   3.150   0.910   0.936  0.3481  0.7054  0.2940
 7243TIP3   OH221692   6.100   1.963  -0.022  0.5027 -0.4390  0.0545
 7243TIP3    H121693   6.100   2.026   0.050  0.1284 -0.7136  0.2988
 7243TIP3    H221694   6.158   1.893   0.008  1.6052  0.1789 -0.5733
 7244TIP3   OH221695   6.550   2.858   4.587 -0.1237  0.3313 -0.4644
 7244TIP3    H121696   6.578   2.931   4.643 -1.4210  0.2679  0.3213
 7244TIP3    H221697   6.626   2.801   4.582  0.7980  1.5447 -0.7802
 7245TIP3   OH221698   1.330   5.921   4.323 -0.0357  0.5747 -0.0140
 7245TIP3    H121699   1.323   5.835   4.367 -0.3270  0.0344 -1.0913
 7245TIP3    H221700   1.306   5.903   4.232  0.3821  1.7187 -0.3586
 7246TIP3   OH221701   5.737   0.881   3.493 -0.4031 -0.1614  0.2371
 7246TIP3    H121702   5.656   0.857   3.448 -1.3986  0.1910  1.7501
 7246TIP3    H221703   5.762   0.964   3.453 -1.3478  0.2234  0.4043
 7247TIP3   OH221704   0.818   5.171   2.358  0.0377 -0.0647  0.4769
 7247TIP3    H121705   0.820   5.076   2.353  1.7457 -0.0018 -1.4007
 7247TIP3    H221706   0.727   5.194   2.342 -0.1904 -1.3645 -0.2211
 7248TIP3   OH221707   0.186   1.460   0.235 -0.2562 -0.6157 -0.0847
 7248TIP3    H121708   0.212   1.461   0.143 -0.8883 -0.7247 -0.2721
 7248TIP3    H221709   0.103   1.413   0.235 -0.4090 -0.3482  0.4988
 7249TIP3   OH221710   3.858   5.611   2.706 -0.7806  0.0614  0.8317
 7249TIP3    H121711   3.874   5.566   2.789 -0.3331  0.5081  0.9917
 7249TIP3    H221712   3.903   5.695   2.715  1.3110 -0.7790 -0.7392
 7250TIP3   OH221713   6.851   6.179   0.113  0.2925 -0.0926 -0.0610
 7250TIP3    H121714   6.755   6.185   0.107  0.1782  2.1996  2.2472
 7250TIP3    H221715   6.871   6.205   0.202  3.1864  0.9983 -0.9127
 7251TIP3   OH221716   4.435   0.889   2.542  0.0772 -0.7969 -0.3017
 7251TIP3    H121717   4.456   0.863   2.453 -0.9884  2.5637 -1.7044
 7251TIP3    H221718   4.501   0.955   2.564 -1.2350  0.3858  0.2700
 7252TIP3   OH221719   3.523   3.967   1.442  0.2282  0.1624  0.1855
 7252TIP3    H121720   3.484   4.036   1.388 -0.3407 -0.1809  0.1548
 7252TIP3    H221721   3.458   3.897   1.442 -0.3465  0.6187  2.3075
 7253TIP3   OH221722   6.603   1.814   5.824 -0.4989 -0.0512 -0.6287
 7253TIP3    H121723   6.525   1.783   5.779 -0.7252 -0.8369  0.2781
 7253TIP3    H221724   6.651   1.735   5.847  0.7331  0.4227 -1.4315
 7254TIP3   OH221725   1.019   3.180   3.203  0.6677 -0.1822 -0.2196
 7254TIP3    H121726   0.982   3.119   3.140 -1.6956  0.0324  0.8552
 7254TIP3    H221727   1.081   3.127   3.253 -0.1341 -1.3111 -0.3633
 7255TIP3   OH221728   3.718   1.445   2.991  0.0311 -0.2766  0.2230
 7255TIP3    H121729   3.728   1.388   2.914 -1.1747  0.2740 -0.3677
 7255TIP3    H221730   3.724   1.534   2.956 -1.2906 -0.0082  0.6259
 7256TIP3   OH221731   4.331   5.492   5.399  0.3883 -0.0701 -0.3104
 7256TIP3    H121732   4.294   5.539   5.324 -2.7822  0.3757  1.3265
 7256TIP3    H221733   4.305   5.544   5.475 -1.6023 -3.2926  1.4765
 7257TIP3   OH221734   1.469   1.604   4.196 -0.0334  0.2614  0.5222
 7257TIP3    H121735   1.423   1.529   4.235 -2.0059  1.0301 -0.2082
 7257TIP3    H221736   1.467   1.586   4.102 -2.2203  2.0410  0.1395
 7258TIP3   OH221737   4.090   5.922   3.436  0.3810 -0.1632  1.2161
 7258TIP3    H121738   4.180   5.904   3.406  0.9765 -1.5599  3.5332
 7258TIP3    H221739   4.041   5.844   3.412  0.1170  0.0196  1.1581
 7259TIP3   OH221740   6.338   3.474   3.448  0.3564  0.3433 -0.1320
 7259TIP3    H121741   6.265   3.487   3.387  1.1411  0.8042 -1.0088
 7259TIP3    H221742   6.351   3.379   3.449 -1.9221 -0.0484  2.0973
 7260TIP3   OH221743   4.219   3.608   3.553  0.2694 -0.1956  0.1753
 7260TIP3    H121744   4.159   3.682   3.543  1.1281  0.7124  1.3862
 7260TIP3    H221745   4.275   3.611   3.476  0.6223  0.7653  0.4492
 7261TIP3   OH221746   5.199   2.726   4.696 -0.3383 -0.1075  0.3736
 7261TIP3    H121747   5.123   2.747   4.643 -0.1124 -2.3324 -0.9606
 7261TIP3    H221748   5.168   2.660   4.758  0.6838 -1.8428 -0.8946
 7262TIP3   OH221749   2.834   0.781   2.973  0.0680  0.7563  0.5723
 7262TIP3    H121750   2.753   0.826   2.947 -0.7683 -1.7246 -1.5848
 7262TIP3    H221751   2.903   0.846   2.961 -1.3172  2.1815 -0.0040
 7263TIP3   OH221752   6.894   0.951   5.368 -0.3769  0.4916  0.4413
 7263TIP3    H121753   6.976   0.936   5.321 -0.5531 -2.0562  0.8252
 7263TIP3    H221754   6.919   0.951   5.460 -0.2651  3.9712  0.5495
 7264TIP3   OH221755   6.557   3.544   1.566  0.2827 -0.3271  0.0106
 7264TIP3    H121756   6.651   3.536   1.549  1.3985  3.1474  3.2429
 7264TIP3    H221757   6.524   3.598   1.494  0.3608 -2.5072 -1.7862
 7265TIP3   OH221758   4.829   4.262   4.573  0.0096 -0.3152  0.3156
 7265TIP3    H121759   4.781   4.289   4.651  0.0099  0.8157 -0.0505
 7265TIP3    H221760   4.893   4.198   4.604 -1.1040 -1.1273  0.9578
 7266TIP3   OH221761   7.026   0.944   5.659 -0.5917  0.1991  0.3114
 7266TIP3    H121762   6.933   0.924   5.673 -0.7296  1.7098  1.8464
 7266TIP3    H221763   7.045   1.014   5.721  1.4705  0.2598 -0.3233
 7267TIP3   OH221764   3.385   3.173   2.528  0.4882  0.4032 -0.3548
 7267TIP3    H121765   3.428   3.137   2.606 -1.8861 -0.6863  0.5786
 7267TIP3    H221766   3.398   3.106   2.461  1.5390  0.7985 -0.5552
 7268TIP3   OH221767   0.276   4.614   0.282  0.5315 -0.5335  0.0641
 7268TIP3    H121768   0.242   4.671   0.351  0.9868  1.1074 -1.0086
 7268TIP3    H221769   0.277   4.527   0.321  1.4509  0.4387  2.3864
 7269TIP3   OH221770   5.432   2.228   2.212 -0.3605  0.1781  0.6382
 7269TIP3    H121771   5.352   2.250   2.259  0.6577 -0.0776  2.6352
 7269TIP3    H221772   5.426   2.134   2.197 -1.1659  0.4345 -0.7417
 7270TIP3   OH221773   0.054   5.470   5.689  0.1944  0.5871  0.3963
 7270TIP3    H121774  -0.017   5.506   5.636  1.6440 -0.2777 -2.3284
 7270TIP3    H221775   0.133   5.509   5.653  1.6483 -3.3159 -1.2129
 7271TIP3   OH221776   1.639   5.211   1.250  0.0972  0.5352 -0.1116
 7271TIP3    H121777   1.563   5.168   1.289 -0.3456  1.5787  0.2130
 7271TIP3    H221778   1.647   5.173   1.163 -1.1142  0.7724 -0.3379
 7272TIP3   OH221779   3.564   2.824   4.098 -0.4292  0.2694  0.2735
 7272TIP3    H121780   3.551   2.749   4.040  0.2132 -1.1933  1.9312
 7272TIP3    H221781   3.478   2.867   4.102 -0.4788  0.4412 -1.7214
 7273TIP3   OH221782   0.938   6.356   0.099  0.5106  0.0775 -0.0129
 7273TIP3    H121783   0.920   6.373   0.006  0.5333 -2.2038 -0.5050
 7273TIP3    H221784   0.938   6.442   0.140 -0.6302  1.0559 -1.9261
 7274TIP3   OH221785   5.300   5.178   5.102  0.0040  0.0464 -0.2199
 7274TIP3    H121786   5.222   5.179   5.158  1.0420  1.4093  1.3052
 7274TIP3    H221787   5.328   5.269   5.100  0.7039 -0.1830 -2.0080
 7275TIP3   OH221788   2.233   0.332   2.582 -0.3160  0.2814 -0.0825
 7275TIP3    H121789   2.321   0.308   2.611 -0.6162 -0.6041  0.1384
 7275TIP3    H221790   2.213   0.413   2.629 -0.0979 -0.1765  0.8214
 7276TIP3   OH221791   4.124   1.907   1.091  0.3520  0.3082 -0.2957
 7276TIP3    H121792   4.141   1.919   0.997  1.1249  0.8549 -0.0931
 7276TIP3    H221793   4.051   1.967   1.109 -0.7850 -0.8506 -0.8240
 7277TIP3   OH221794   4.356   4.078   4.983  0.2697 -0.5733 -0.4020
 7277TIP3    H121795   4.412   4.054   5.056 -1.3360  0.4953  1.2539
 7277TIP3    H221796   4.284   4.015   4.985 -1.9332  1.7844  1.5860
 7278TIP3   OH221797   3.897   4.511   4.393 -0.2319 -0.3816 -0.3137
 7278TIP3    H121798   3.858   4.599   4.391 -1.2186 -0.7836  0.7152
 7278TIP3    H221799   3.825   4.453   4.414  0.6715 -1.3000  0.3055
 7279TIP3   OH221800   0.270   5.776   1.251  0.7695  0.1906  0.0068
 7279TIP3    H121801   0.217   5.697   1.247 -1.4901  1.4962  1.5911
 7279TIP3    H221802   0.248   5.815   1.336  0.8296  3.1317 -1.2006
 7280TIP3   OH221803   1.325   3.250   1.169  0.5573 -0.4572 -0.2741
 7280TIP3    H121804   1.311   3.338   1.204  2.0974 -0.0116 -0.7078
 7280TIP3    H221805   1.322   3.193   1.245 -0.3827 -0.0293  0.0214
 7281TIP3   OH221806   5.226   0.929   3.725  0.5633 -0.8041  0.2724
 7281TIP3    H121807   5.211   0.993   3.656 -1.0463 -0.3610  0.9876
 7281TIP3    H221808   5.186   0.967   3.803 -1.7229 -3.2271  0.4170
 7282TIP3   OH221809   4.102   1.246   3.280  0.6030  0.6870 -0.9228
 7282TIP3    H121810   4.128   1.157   3.302  1.0038  0.8426 -0.7681
 7282TIP3    H221811   4.053   1.276   3.356  2.6777  1.5178  0.1771
 7283TIP3   OH221812   6.867   3.850   1.325 -0.0308  0.2894 -0.1488
 7283TIP3    H121813   6.810   3.894   1.262  2.5076  2.3350 -1.1494
 7283TIP3    H221814   6.927   3.798   1.271 -1.1704 -2.3305  0.9087
 7284TIP3   OH221815   0.761   0.279   0.512 -0.1833 -0.1369  0.1414
 7284TIP3    H121816   0.672   0.313   0.499  0.5157  1.4212 -0.7820
 7284TIP3    H221817   0.817   0.356   0.508  1.4369 -1.3304 -1.4828
 7285TIP3   OH221818   7.158   6.340   2.324  0.1479 -0.2533  0.2010
 7285TIP3    H121819   7.130   6.250   2.309  1.9945 -0.8176 -0.1119
 7285TIP3    H221820   7.100   6.393   2.270 -0.1372 -1.3651 -0.6049
 7286TIP3   OH221821   2.819   1.133   4.243 -0.1893  0.1919  0.1032
 7286TIP3    H121822   2.889   1.194   4.265 -0.8354  1.0897 -0.2418
 7286TIP3    H221823   2.761   1.183   4.185 -0.7085 -0.7743 -0.2409
 7287TIP3   OH221824   1.396   5.970   1.694  0.0949 -0.1887  0.1900
 7287TIP3    H121825   1.374   5.888   1.651 -2.3878  0.3095  0.3176
 7287TIP3    H221826   1.383   6.037   1.627  2.0251  0.1581  0.1068
 7288TIP3   OH221827   0.924   2.680   3.466 -0.0470  0.1652 -0.2207
 7288TIP3    H121828   0.895   2.709   3.553  0.2588 -0.3469  0.0553
 7288TIP3    H221829   1.020   2.682   3.471 -0.0283  0.1336 -0.5506
 7289TIP3   OH221830   0.121   6.025   2.757  0.9644  0.9026 -0.5367
 7289TIP3    H121831   0.034   6.063   2.760  0.0361 -1.0077 -1.3194
 7289TIP3    H221832   0.177   6.087   2.803 -0.7718  2.2512 -0.1755
 7290TIP3   OH221833   0.856   2.877   1.961  0.0721  0.5009  0.0670
 7290TIP3    H121834   0.824   2.816   2.027  0.2206  1.1224  0.7354
 7290TIP3    H221835   0.951   2.880   1.975 -0.1988  3.4097  2.3851
 7291TIP3   OH221836   2.373   2.684   3.108  0.2168 -0.1918 -0.3272
 7291TIP3    H121837   2.293   2.662   3.061 -0.8856  1.9940  0.3540
 7291TIP3    H221838   2.428   2.728   3.043  0.9411 -1.7621 -0.8148
 7292TIP3   OH221839   4.480   6.385   1.695  0.0920 -0.2267  0.5011
 7292TIP3    H121840   4.492   6.291   1.683  1.6467 -0.0287  0.3075
 7292TIP3    H221841   4.504   6.402   1.786 -1.9568 -0.2473  1.0973
 7293TIP3   OH221842   6.436   5.544   2.371 -0.0314 -0.0423  0.0707
 7293TIP3    H121843   6.428   5.449   2.374 -1.4566  0.0836  1.0212
 7293TIP3    H221844   6.439   5.566   2.278  2.1646 -1.1183 -0.1725
 7294TIP3   OH221845   3.630   2.264   2.959  0.1926 -0.0709 -0.7268
 7294TIP3    H121846   3.606   2.356   2.968 -0.5768 -0.2481 -0.8911
 7294TIP3    H221847   3.723   2.266   2.936  0.2320  0.6533 -0.5543
 7295TIP3   OH221848   4.350   4.821   0.791  0.0485  0.0858  0.1562
 7295TIP3    H121849   4.428   4.804   0.845 -0.8239  0.2426  1.5037
 7295TIP3    H221850   4.279   4.780   0.839 -0.6204 -0.6247 -1.3984
 7296TIP3   OH221851   2.334   6.377   4.815  0.1074  0.1276  0.3295
 7296TIP3    H121852   2.359   6.435   4.743  1.6766 -0.6140  0.2198
 7296TIP3    H221853   2.348   6.430   4.894  1.7981 -0.1471  0.2468
 7297TIP3   OH221854   4.523   4.267   4.252  0.4688  0.0524  0.1721
 7297TIP3    H121855   4.468   4.189   4.265  2.0308 -0.7401  3.0341
 7297TIP3    H221856   4.607   4.231   4.223  1.1956  0.6319  1.4993
 7298TIP3   OH221857   3.862   2.793   4.682  0.1814 -0.1133  0.0396
 7298TIP3    H121858   3.801   2.865   4.668 -1.5500 -1.1834  1.6388
 7298TIP3    H221859   3.807   2.720   4.711  2.1599 -1.2957  1.0292
 7299TIP3   OH221860   5.471   2.534   1.526 -0.1360  0.6050 -0.2298
 7299TIP3    H121861   5.479   2.627   1.547 -1.1723  0.9381 -1.1891
 7299TIP3    H221862   5.382   2.525   1.490  0.6026 -0.3922 -1.9335
 7300TIP3   OH221863   1.454   2.045   2.244  0.2056  0.0376 -0.3766
 7300TIP3    H121864   1.410   1.978   2.296 -1.4093  1.3005 -0.0286
 7300TIP3    H221865   1.447   2.015   2.154  1.2919 -1.2105 -0.0809
 7301TIP3   OH221866   3.726   0.754   4.338 -0.0973  0.1881 -0.1241
 7301TIP3    H121867   3.744   0.666   4.305 -0.3730  0.1928 -0.2847
 7301TIP3    H221868   3.743   0.749   4.432  1.4495  0.3623 -0.3630
 7302TIP3   OH221869   5.429   0.502   0.152  0.5177  0.0836  0.3786
 7302TIP3    H121870   5.514   0.540   0.130 -0.2238  1.9873  0.5892
 7302TIP3    H221871   5.367   0.546   0.095 -0.3528 -1.2794  0.2230
 7303TIP3   OH221872   0.077   4.890   1.039 -0.2302 -0.0316 -0.1426
 7303TIP3    H121873   0.131   4.962   1.071 -0.1523 -1.0991  2.3820
 7303TIP3    H221874  -0.012   4.924   1.040 -0.1243  0.2484  0.4666
 7304TIP3   OH221875   2.011   6.043   5.850  0.0256 -0.2637 -1.0746
 7304TIP3    H121876   2.041   6.129   5.881 -2.2008  0.2287 -0.1308
 7304TIP3    H221877   2.065   6.026   5.773  0.5716  1.9706 -1.2677
 7305TIP3   OH221878   7.080   5.088   0.976  0.1175  0.2544 -0.2922
 7305TIP3    H121879   6.986   5.098   0.961  0.0133  1.0234  0.7691
 7305TIP3    H221880   7.101   5.156   1.039  0.8866 -1.4800  1.4245
 7306TIP3   OH221881   2.118   2.865   5.295 -0.0714 -0.0448 -0.1422
 7306TIP3    H121882   2.210   2.838   5.291 -0.4527 -1.4389  0.0011
 7306TIP3    H221883   2.078   2.805   5.358 -1.8029 -1.7827 -2.7031
 7307TIP3   OH221884   2.709   2.692   3.460  0.4501 -0.3355 -0.3389
 7307TIP3    H121885   2.641   2.728   3.517  0.1600 -1.2886 -0.0709
 7307TIP3    H221886   2.662   2.648   3.390  0.7906 -0.7498 -0.3121
 7308TIP3   OH221887   0.482   4.256   5.480 -0.2033 -0.3270 -0.3443
 7308TIP3    H121888   0.505   4.316   5.551 -1.3020 -1.6562  1.2230
 7308TIP3    H221889   0.462   4.312   5.406 -0.6415  1.2157  0.9001
 7309TIP3   OH221890   1.772   5.521   1.134 -1.0065  0.3300  0.0305
 7309TIP3    H121891   1.769   5.483   1.221 -0.3205  1.1057  0.4147
 7309TIP3    H221892   1.776   5.446   1.075 -0.5866 -0.2006  0.7171
 7310TIP3   OH221893   3.676   0.342   1.104  0.2271  0.0743  0.0842
 7310TIP3    H121894   3.726   0.379   1.177  3.0325 -0.5223 -1.3504
 7310TIP3    H221895   3.637   0.417   1.061 -1.6108  0.4241  2.1902
 7311TIP3   OH221896   5.720   3.497   5.350 -0.3791 -0.1970  0.1005
 7311TIP3    H121897   5.795   3.556   5.351 -1.1008  0.7538  0.8953
 7311TIP3    H221898   5.758   3.410   5.359  0.7011  0.1399 -0.9418
 7312TIP3   OH221899   7.165   3.158   2.802  0.5917  0.1792  0.6803
 7312TIP3    H121900   7.155   3.229   2.865  0.7781  1.1348 -0.3272
 7312TIP3    H221901   7.118   3.188   2.724  0.2529 -1.0261  0.3976
 7313TIP3   OH221902   4.708   1.228   1.091 -0.1637  0.7530 -0.6767
 7313TIP3    H121903   4.716   1.137   1.061 -0.5694  0.8235 -1.0177
 7313TIP3    H221904   4.773   1.276   1.040 -1.3045  0.9884 -1.9788
 7314TIP3   OH221905   3.563   2.437   5.730 -0.4174  0.7206 -0.1344
 7314TIP3    H121906   3.499   2.508   5.727  0.1245  1.2044 -0.5328
 7314TIP3    H221907   3.627   2.465   5.796 -0.3633  0.4626 -0.0759
 7315TIP3   OH221908   5.728   5.862   3.318  0.0631  0.2775 -0.3888
 7315TIP3    H121909   5.800   5.860   3.256  0.0531  0.4614 -0.4087
 7315TIP3    H221910   5.769   5.843   3.403  0.4290  1.9540 -0.1370
 7316TIP3   OH221911   6.318   0.135   3.807 -0.3864 -0.0618  0.5888
 7316TIP3    H121912   6.225   0.111   3.802 -0.2286 -0.4528 -0.8955
 7316TIP3    H221913   6.364   0.058   3.774  0.3173  0.9833 -0.9821
 7317TIP3   OH221914   2.658   6.183   3.403 -0.0217  0.7655 -0.4927
 7317TIP3    H121915   2.697   6.112   3.454  2.0566  0.8351 -1.8423
 7317TIP3    H221916   2.702   6.178   3.318 -1.7682  2.0202 -1.5270
 7318TIP3   OH221917   3.702   0.419   3.869 -0.4645 -0.5486  0.3896
 7318TIP3    H121918   3.611   0.420   3.839  0.0838 -0.1025 -1.3743
 7318TIP3    H221919   3.728   0.511   3.869  0.2788 -0.7494 -0.1329
 7319TIP3   OH221920   3.796   4.429   5.179  0.6246  0.1698 -0.4298
 7319TIP3    H121921   3.845   4.417   5.260 -0.9476  1.6778  0.8265
 7319TIP3    H221922   3.704   4.426   5.206  0.0436 -0.1787 -2.3118
 7320TIP3   OH221923   4.189   6.745   3.247 -0.2334  0.1013  0.5752
 7320TIP3    H121924   4.246   6.800   3.194 -1.3242  1.3201  0.6182
 7320TIP3    H221925   4.105   6.747   3.202 -1.2158  1.2625  2.3557
 7321TIP3   OH221926   7.054   5.882   3.024  0.0038  0.1620 -0.0353
 7321TIP3    H121927   7.008   5.871   3.107 -0.4109  0.7190 -0.1852
 7321TIP3    H221928   7.125   5.818   3.027 -1.2093 -1.2507 -0.1182
 7322TIP3   OH221929   0.095   0.425   1.363  0.2670 -0.1942  0.4207
 7322TIP3    H121930   0.169   0.364   1.363  0.0746 -0.4518  1.3049
 7322TIP3    H221931   0.022   0.374   1.327  0.7817  0.4424 -1.6507
 7323TIP3   OH221932   2.847   1.842   1.513  0.5694  0.1730 -0.1532
 7323TIP3    H121933   2.929   1.795   1.502 -1.0315 -3.2470  0.9541
 7323TIP3    H221934   2.805   1.840   1.427  0.3478 -0.8684 -0.0305
 7324TIP3   OH221935   1.467   0.818   1.625 -0.0063  0.2084  0.0237
 7324TIP3    H121936   1.542   0.832   1.566  0.6372 -1.9687  0.2406
 7324TIP3    H221937   1.462   0.723   1.635 -2.1423  0.3642  0.9074
 7325TIP3   OH221938   5.166   2.830   0.568  0.8160  0.3743  0.0941
 7325TIP3    H121939   5.149   2.829   0.662  1.0608 -0.8990  0.1431
 7325TIP3    H221940   5.222   2.753   0.553  1.6263  1.1358 -0.9360
 7326TIP3   OH221941   3.242   3.198   1.085  0.2492 -0.1117 -0.8993
 7326TIP3    H121942   3.276   3.114   1.115 -0.4557  0.4284  1.6831
 7326TIP3    H221943   3.319   3.245   1.051  1.2642 -0.5881  0.6525
 7327TIP3   OH221944   6.827   5.529   4.596 -0.2066 -0.0603 -0.3995
 7327TIP3    H121945   6.764   5.492   4.658 -0.1690 -0.9072 -0.8549
 7327TIP3    H221946   6.861   5.453   4.548  0.3570  0.5015 -0.9033
 7328TIP3   OH221947   1.114   1.985   4.049  0.1395  0.2531  0.7188
 7328TIP3    H121948   1.095   2.002   3.956  0.3668  2.8465  1.0890
 7328TIP3    H221949   1.158   1.900   4.048 -0.1868  0.0276 -1.4978
 7329TIP3   OH221950   4.554   6.464   1.192 -0.2736  0.4147  0.4606
 7329TIP3    H121951   4.615   6.496   1.125  0.5335 -0.2415  0.8662
 7329TIP3    H221952   4.467   6.487   1.158  0.1909  1.3043 -0.1560
 7330TIP3   OH221953   1.663   5.064   0.607 -0.6874 -0.7078 -0.0997
 7330TIP3    H121954   1.675   5.062   0.512 -1.9743 -1.6276 -0.2645
 7330TIP3    H221955   1.570   5.082   0.619 -0.8637 -2.1997  0.9572
 7331TIP3   OH221956   0.782   6.490   3.384  0.2418 -0.5603 -0.2972
 7331TIP3    H121957   0.829   6.574   3.377 -1.0319  0.2513  0.4438
 7331TIP3    H221958   0.842   6.426   3.346  1.4198  0.6226 -0.5212
 7332TIP3   OH221959   2.868   0.469   4.374  0.2268 -0.0482 -0.0127
 7332TIP3    H121960   2.822   0.486   4.457 -1.3934 -1.4137 -0.5731
 7332TIP3    H221961   2.919   0.390   4.391  0.6097  0.1909 -0.0529
 7333TIP3   OH221962   3.813   2.192   4.580  0.0471  0.2482 -0.3304
 7333TIP3    H121963   3.738   2.238   4.617  1.1551  2.3767 -0.5548
 7333TIP3    H221964   3.775   2.120   4.530 -1.8360  1.2782 -0.4767
 7334TIP3   OH221965   4.482   3.730   0.785 -0.2669 -0.1002  0.0025
 7334TIP3    H121966   4.412   3.789   0.759 -2.1194 -1.9916  0.4962
 7334TIP3    H221967   4.462   3.706   0.876  1.1199 -0.5532  0.2209
 7335TIP3   OH221968   3.770   5.034   2.979 -0.1591 -0.0716 -0.1179
 7335TIP3    H121969   3.806   5.117   2.947  0.1913  0.9396  2.5968
 7335TIP3    H221970   3.847   4.978   2.991 -0.4106 -0.9527 -2.1173
 7336TIP3   OH221971   4.855   1.816   2.731  0.3146 -0.0893  0.1279
 7336TIP3    H121972   4.787   1.872   2.769 -0.5709 -1.2744  0.3393
 7336TIP3    H221973   4.902   1.873   2.671  0.9680  1.5308  2.0431
 7337TIP3   OH221974   5.881   1.984   0.527  0.2466 -0.2016  0.4035
 7337TIP3    H121975   5.830   2.049   0.575  1.4507  0.2759  1.0852
 7337TIP3    H221976   5.891   1.911   0.588 -0.9439 -0.9915 -0.2953
 7338TIP3   OH221977   3.607   0.143   5.398 -0.4427 -0.1226 -0.1450
 7338TIP3    H121978   3.640   0.161   5.310 -1.0097  1.9210  0.0075
 7338TIP3    H221979   3.685   0.119   5.448  0.4778  1.9730 -0.4376
 7339TIP3   OH221980   0.387   0.159   5.696  0.4164 -0.2133  0.6955
 7339TIP3    H121981   0.367   0.252   5.700  0.9685 -0.1030  1.0480
 7339TIP3    H221982   0.423   0.146   5.608 -0.0591 -0.1788  0.4951
 7340TIP3   OH221983   6.789   5.494   5.594  0.2103  0.2047 -0.3050
 7340TIP3    H121984   6.750   5.490   5.682 -0.8493 -1.0853 -0.7863
 7340TIP3    H221985   6.824   5.582   5.587  1.1728  0.0626  1.7621
 7341TIP3   OH221986   5.555   3.903   3.483  0.7384 -0.1369  0.1093
 7341TIP3    H121987   5.607   3.854   3.420 -0.2529 -0.7213 -0.2822
 7341TIP3    H221988   5.620   3.947   3.539  1.6692 -1.7587  0.3732
 7342TIP3   OH221989   6.677   5.138   1.714 -0.3387 -0.6850  0.4193
 7342TIP3    H121990   6.712   5.191   1.785 -1.4905  0.8894 -0.1498
 7342TIP3    H221991   6.652   5.055   1.755 -0.2524 -0.0966  1.6855
 7343TIP3   OH221992   6.954   5.330   2.638 -0.5225  0.1272 -0.2796
 7343TIP3    H121993   6.972   5.335   2.732 -1.1553 -1.6386 -0.0097
 7343TIP3    H221994   7.016   5.391   2.597  1.6920 -1.0852  1.0645
 7344TIP3   OH221995   0.532   6.398   1.629  0.1177 -0.2799  0.3452
 7344TIP3    H121996   0.543   6.339   1.555 -0.0255  0.3222 -0.1706
 7344TIP3    H221997   0.462   6.359   1.682 -0.8578  0.0637 -0.6471
 7345TIP3   OH221998   0.568   5.400   3.548  0.3521  0.7508 -0.2053
 7345TIP3    H121999   0.498   5.335   3.542 -0.7500  1.8269  0.7197
 7345TIP3    H222000   0.563   5.449   3.466  0.3507  0.5123 -0.3489
 7346TIP3   OH222001   1.507   5.524   3.932 -0.4767 -0.1311 -0.2657
 7346TIP3    H122002   1.442   5.529   3.862 -1.5073  1.2019  0.7364
 7346TIP3    H222003   1.514   5.431   3.951 -1.1335 -0.4015 -1.2589
 7347TIP3   OH222004   4.086   5.098   2.425 -0.0277 -0.2139  0.3536
 7347TIP3    H122005   4.077   5.154   2.348 -0.1056 -0.0456  0.4844
 7347TIP3    H222006   4.115   5.014   2.390 -1.3298 -0.5372 -0.0151
 7348TIP3   OH222007   4.310   5.055   4.860  0.0190 -0.8029 -0.3511
 7348TIP3    H122008   4.304   4.983   4.922  1.0500 -1.3971 -0.9124
 7348TIP3    H222009   4.220   5.069   4.830 -0.2141 -1.7518 -0.1182
 7349TIP3   OH222010   6.437   4.871   4.125  0.0875 -0.3017 -0.4907
 7349TIP3    H122011   6.517   4.912   4.156 -1.7722  1.2854  2.7936
 7349TIP3    H222012   6.455   4.777   4.127  1.9193  0.0183 -0.1171
 7350TIP3   OH222013   6.591   6.333   0.616 -0.2777  0.2599 -0.2121
 7350TIP3    H122014   6.497   6.331   0.634 -0.4276  0.5718 -0.9245
 7350TIP3    H222015   6.600   6.388   0.538  0.6297  1.4106  0.6538
 7351TIP3   OH222016   3.199   4.854   1.921 -0.0513  0.1329  0.1488
 7351TIP3    H122017   3.232   4.770   1.887 -1.1064 -0.0361 -0.5012
 7351TIP3    H222018   3.139   4.885   1.854  1.1786  2.0063 -0.1550
 7352TIP3   OH222019   0.275   2.560   3.278 -0.6728 -0.3218 -0.1123
 7352TIP3    H122020   0.198   2.531   3.326 -0.9935 -0.4600 -0.7100
 7352TIP3    H222021   0.242   2.588   3.193 -0.3612  1.6770  0.3729
 7353TIP3   OH222022   6.065   3.958  -0.020  0.2785  0.2982  0.1573
 7353TIP3    H122023   6.130   3.969   0.049  1.1287 -1.3118 -0.3355
 7353TIP3    H222024   5.989   4.009   0.010  1.2721  1.1090  1.3813
 7354TIP3   OH222025   1.217   5.704   2.345 -0.2056 -0.7355 -0.4510
 7354TIP3    H122026   1.222   5.630   2.285 -0.4846 -0.2886 -1.0326
 7354TIP3    H222027   1.305   5.741   2.346  0.6553 -2.5353  1.7727
 7355TIP3   OH222028   6.937   4.285   4.255  0.0889  0.0513  0.1991
 7355TIP3    H122029   6.900   4.288   4.343  2.2272  0.6602  1.1548
 7355TIP3    H222030   6.986   4.367   4.247  1.7650 -0.9672 -0.6560
 7356TIP3   OH222031   0.574   5.928   3.820  0.0426 -0.3246  0.1645
 7356TIP3    H122032   0.524   5.847   3.831  0.8532 -0.7156  1.0846
 7356TIP3    H222033   0.586   5.936   3.725  0.4069 -1.5772  0.0830
 7357TIP3   OH222034   3.791   2.067   1.692 -0.0304  0.4336  0.1515
 7357TIP3    H122035   3.766   2.155   1.721  0.9049  1.7104 -2.5299
 7357TIP3    H222036   3.803   2.017   1.772 -0.4873  2.7844  1.7789
 7358TIP3   OH222037   0.349   6.467   3.109  0.2291  0.2358  0.2749
 7358TIP3    H122038   0.284   6.408   3.146 -1.0934  2.2385  1.3442
 7358TIP3    H222039   0.423   6.463   3.169  0.0464 -0.1391  0.4731
 7359TIP3   OH222040   1.850   0.253   1.380 -0.6724  0.1471 -0.2165
 7359TIP3    H122041   1.942   0.259   1.355 -0.2647  1.3277  1.3762
 7359TIP3    H222042   1.811   0.195   1.315  1.2857 -0.7651 -0.6578
 7360TIP3   OH222043   1.516   0.004   2.815 -0.0337  0.1121 -0.0193
 7360TIP3    H122044   1.433   0.033   2.852 -1.2068 -0.1824 -2.2497
 7360TIP3    H222045   1.561   0.085   2.790  0.7054  0.3033  1.8270
 7361TIP3   OH222046   3.659   3.338   0.905  0.1590 -0.1664  0.5090
 7361TIP3    H122047   3.726   3.273   0.883  1.1489  0.7574  0.6916
 7361TIP3    H222048   3.701   3.422   0.889 -1.0392  0.4439  0.4441
 7362TIP3   OH222049   6.832   6.606   4.511  0.0459 -0.2587  0.1108
 7362TIP3    H122050   6.757   6.618   4.569 -0.3165  1.1780 -0.6219
 7362TIP3    H222051   6.864   6.518   4.532 -0.9859 -0.3582  1.4077
 7363TIP3   OH222052   7.046   4.812   0.587 -0.1261  0.8073  0.5923
 7363TIP3    H122053   7.021   4.901   0.614  0.0215  0.4579  1.9311
 7363TIP3    H222054   7.140   4.807   0.604  0.0452  0.6711 -0.3236
 7364TIP3   OH222055   3.015   4.411   0.802  0.1355 -0.2169 -0.5439
 7364TIP3    H122056   3.012   4.331   0.750 -4.0198 -0.9655  0.4990
 7364TIP3    H222057   3.011   4.482   0.737 -1.2538 -1.0344 -1.3981
 7365TIP3   OH222058   0.447   1.177   2.400  0.3161 -0.7396 -0.2015
 7365TIP3    H122059   0.514   1.114   2.427  0.9126  0.2480  0.6941
 7365TIP3    H222060   0.455   1.180   2.305  0.8516 -1.3887 -0.1857
 7366TIP3   OH222061   2.972   5.365   2.579  0.3172  0.3026 -0.0445
 7366TIP3    H122062   2.903   5.389   2.517 -0.7011  0.1025  0.9659
 7366TIP3    H222063   2.926   5.358   2.663  1.3936 -0.8382  0.4755
 7367TIP3   OH222064   3.282   1.481   0.487  0.2940  0.8450 -0.0645
 7367TIP3    H122065   3.191   1.450   0.491  0.0651  1.5452  0.4053
 7367TIP3    H222066   3.295   1.525   0.571  1.7215 -0.9757  0.7375
 7368TIP3   OH222067   1.258   5.634   0.392 -0.0240 -0.2305  0.2431
 7368TIP3    H122068   1.342   5.620   0.349 -0.3278 -0.0861 -0.4052
 7368TIP3    H222069   1.274   5.706   0.454  0.2510  0.0190 -0.1150
 7369TIP3   OH222070   1.755   4.793   0.672  0.1741 -0.2962  0.4701
 7369TIP3    H122071   1.708   4.876   0.664  1.4863  0.3973 -0.5152
 7369TIP3    H222072   1.692   4.733   0.711 -0.9347  1.0595  0.8467
 7370TIP3   OH222073   7.017   4.206   2.179  0.4316 -0.6759  0.2461
 7370TIP3    H122074   7.042   4.245   2.095  1.3250 -2.1577 -0.2007
 7370TIP3    H222075   6.957   4.270   2.218  0.5028  0.3285 -1.2255
 7371TIP3   OH222076   2.726   4.418   5.514 -0.1615  0.7305  0.0165
 7371TIP3    H122077   2.669   4.342   5.523 -1.2690  1.4443 -0.6911
 7371TIP3    H222078   2.753   4.439   5.604  0.5994 -0.7850  0.1741
 7372TIP3   OH222079   6.327   5.595   0.336  0.1318 -0.1299  0.6800
 7372TIP3    H122080   6.297   5.515   0.294 -0.0528  0.8106 -1.0777
 7372TIP3    H222081   6.362   5.648   0.265  0.4256  1.2779  1.8175
 7373TIP3   OH222082   5.423   3.715   1.039  0.7522  0.3637  0.5500
 7373TIP3    H122083   5.364   3.756   1.102  0.5450  0.6263  0.1849
 7373TIP3    H222084   5.372   3.644   1.001  1.0320 -0.0968  1.0078
 7374TIP3   OH222085   5.137   0.701   5.819 -0.3324  0.4610  0.9049
 7374TIP3    H122086   5.051   0.693   5.776  0.8170 -0.1495 -1.4181
 7374TIP3    H222087   5.158   0.794   5.814  1.0854  0.0723 -2.7316
 7375TIP3   OH222088   4.076   4.863   2.026  0.1340  0.1159  0.1732
 7375TIP3    H122089   4.035   4.947   2.004  0.2373  0.7645  2.2378
 7375TIP3    H222090   4.146   4.885   2.087  1.1170 -1.3618 -0.3483
 7376TIP3   OH222091   0.412   3.430   0.844  0.3497  0.1137  1.0280
 7376TIP3    H122092   0.505   3.414   0.824  0.2724 -0.2706  0.9558
 7376TIP3    H222093   0.389   3.504   0.789  0.7272  0.4885  1.3688
 7377TIP3   OH222094   3.587   2.182   3.262 -0.5646 -0.0806 -0.4408
 7377TIP3    H122095   3.614   2.090   3.262  0.9687  0.3207  0.5435
 7377TIP3    H222096   3.643   2.224   3.197 -1.3481  0.1500 -0.9816
 7378TIP3   OH222097   3.950   4.759   4.865 -0.0248  0.2108 -0.4410
 7378TIP3    H122098   3.969   4.724   4.777  0.0802 -0.1937 -0.2610
 7378TIP3    H222099   3.905   4.687   4.910 -0.4271  0.5540 -0.2896
 7379TIP3   OH222100   2.398   5.675   5.153  0.0960 -0.4742 -0.0549
 7379TIP3    H122101   2.423   5.586   5.177  0.9756 -0.0128  0.8303
 7379TIP3    H222102   2.481   5.719   5.134 -0.3674  0.0336 -0.9484
 7380TIP3   OH222103   2.693   4.001   1.048  0.4620 -0.2956 -0.3695
 7380TIP3    H122104   2.644   4.057   1.107 -0.3667 -0.0506 -1.2641
 7380TIP3    H222105   2.725   3.930   1.103  1.4100  0.9506  0.7521
 7381TIP3   OH222106   5.744   1.452   1.082 -0.2996  0.1843 -0.2457
 7381TIP3    H122107   5.657   1.415   1.095 -0.3075  0.4721  0.5495
 7381TIP3    H222108   5.756   1.452   0.986 -0.3510 -1.7100 -0.2996
 7382TIP3   OH222109   3.272   4.232   3.094  0.0440  0.4767 -0.4757
 7382TIP3    H122110   3.176   4.228   3.091 -0.0075  0.5796  0.5970
 7382TIP3    H222111   3.300   4.160   3.038 -0.6713  0.2293 -0.5364
 7383TIP3   OH222112   0.547   4.001   5.386 -0.4707  0.1033 -0.1302
 7383TIP3    H122113   0.547   4.096   5.395  0.0414  0.1223 -0.3312
 7383TIP3    H222114   0.472   3.983   5.329  0.6810  0.5707 -1.8800
 7384TIP3   OH222115   6.247   5.319   2.152  0.0725 -0.5396  0.4770
 7384TIP3    H122116   6.280   5.299   2.239  0.3432 -2.2143  0.0373
 7384TIP3    H222117   6.321   5.361   2.107 -0.2223  0.7659  1.1715
 7385TIP3   OH222118   5.176   6.762   3.302 -0.3698 -0.5838  1.0037
 7385TIP3    H122119   5.201   6.808   3.222 -0.1655  2.8213  2.8087
 7385TIP3    H222120   5.090   6.726   3.284 -0.0794 -0.3873 -0.9144
 7386TIP3   OH222121   5.607   6.547   0.907 -0.4135 -0.2869  0.2264
 7386TIP3    H122122   5.596   6.639   0.929  1.7277 -0.3543  1.8831
 7386TIP3    H222123   5.542   6.502   0.961  0.4442  0.0798  1.6236
 7387TIP3   OH222124   6.426   4.509   0.646 -0.0842 -0.2711 -0.1869
 7387TIP3    H122125   6.496   4.468   0.696 -0.8226 -2.1276 -0.6185
 7387TIP3    H222126   6.471   4.550   0.571  0.9873  2.2808  1.7081
 7388TIP3   OH222127   1.094   2.576   3.713  0.4205 -0.2283  0.3326
 7388TIP3    H122128   1.012   2.624   3.712  1.0922  0.9662  0.5707
 7388TIP3    H222129   1.150   2.624   3.652  0.9624 -0.9947  0.2131
 7389TIP3   OH222130   3.716   3.637   2.190  0.4457  0.4332  0.3602
 7389TIP3    H122131   3.685   3.552   2.222 -0.5804  1.1855  1.4575
 7389TIP3    H222132   3.811   3.626   2.181  0.2665 -0.9915 -0.0744
 7390TIP3   OH222133   3.432   3.625   3.984 -0.3391 -0.0994 -1.2857
 7390TIP3    H122134   3.377   3.638   3.907 -0.4284  0.4070 -1.1410
 7390TIP3    H222135   3.502   3.690   3.974  0.3103 -0.8165 -1.5308
 7391TIP3   OH222136   4.347   3.190   4.613  0.2259  0.2297  0.3645
 7391TIP3    H122137   4.421   3.130   4.615 -0.0110 -0.0504  2.1845
 7391TIP3    H222138   4.377   3.263   4.559  0.8444 -1.0576 -1.1270
 7392TIP3   OH222139   6.618   5.183   2.182  0.6692  0.5242 -0.1975
 7392TIP3    H122140   6.540   5.132   2.203 -0.4255  2.5908  1.1433
 7392TIP3    H222141   6.685   5.153   2.245  0.9994 -1.2202 -1.3211
 7393TIP3   OH222142   0.634   5.237   4.795  0.3128  0.3316 -0.0952
 7393TIP3    H122143   0.705   5.193   4.749 -0.3549 -0.2159 -0.6220
 7393TIP3    H222144   0.586   5.284   4.727 -1.1245 -1.0883 -0.1493
 7394TIP3   OH222145   5.293   3.132   2.355 -0.0644 -0.1418 -0.1113
 7394TIP3    H122146   5.356   3.102   2.421 -0.0101  1.1530  0.4668
 7394TIP3    H222147   5.338   3.203   2.310 -1.6239  1.9761  1.4317
 7395TIP3   OH222148   4.735   0.266   5.610  0.2158 -0.3899 -0.6158
 7395TIP3    H122149   4.782   0.233   5.686  1.0843 -0.1910 -1.0430
 7395TIP3    H222150   4.703   0.352   5.637  0.3622 -0.3977 -0.4130
 7396TIP3   OH222151   0.972   5.869   5.476 -0.1553  0.4333  0.2503
 7396TIP3    H122152   0.993   5.815   5.400 -1.7426  0.7813 -0.4810
 7396TIP3    H222153   1.041   5.936   5.478 -0.2025  0.5401 -1.0136
 7397TIP3   OH222154   0.733   0.050   0.057  0.8323 -0.3440  0.0773
 7397TIP3    H122155   0.662   0.006   0.010  0.6146 -0.9376  0.9377
 7397TIP3    H222156   0.787   0.088  -0.012 -0.3147  0.1168 -0.6060
 7398TIP3   OH222157   3.041   1.186   2.309 -0.0904 -0.3194  0.0115
 7398TIP3    H122158   2.963   1.134   2.288  0.4125 -0.5005 -1.5239
 7398TIP3    H222159   3.114   1.128   2.287  0.4743  0.5925 -0.5771
 7399TIP3   OH222160   5.588   4.544   4.960  0.3063 -0.6300 -0.3744
 7399TIP3    H122161   5.561   4.460   4.925  1.1080 -1.9343  1.9437
 7399TIP3    H222162   5.558   4.544   5.051  0.8379  1.3507 -0.1368
 7400TIP3   OH222163   1.171   0.609   2.489 -0.0526  0.1125 -0.6056
 7400TIP3    H122164   1.175   0.649   2.576 -0.1711  0.7991 -0.9123
 7400TIP3    H222165   1.243   0.546   2.488 -0.5062 -0.4317  0.2537
 7401TIP3   OH222166   4.432   5.639   0.982  0.1056 -0.0387 -0.3257
 7401TIP3    H122167   4.374   5.619   0.908  0.1801 -0.7535 -0.1982
 7401TIP3    H222168   4.379   5.692   1.041 -0.3256 -0.4305 -0.3568
 7402TIP3   OH222169   3.092   3.766   0.888  0.3231 -0.4105 -0.3002
 7402TIP3    H122170   3.068   3.774   0.980  1.6753  0.8740 -0.0343
 7402TIP3    H222171   3.186   3.751   0.889  0.9140  2.5609 -1.5172
 7403TIP3   OH222172   5.674   1.187   1.302  0.1129 -0.1421 -0.3849
 7403TIP3    H122173   5.689   1.099   1.267  1.8080  0.3179 -0.9222
 7403TIP3    H222174   5.579   1.198   1.302 -0.0413 -1.1415 -2.4318
 7404TIP3   OH222175   4.900   6.228   2.326  0.4342  0.1610 -0.5571
 7404TIP3    H122176   4.865   6.261   2.408  1.9402  1.5226 -0.4117
 7404TIP3    H222177   4.841   6.156   2.302  0.8725 -1.3938  2.5196
 7405TIP3   OH222178   3.126   0.630   3.371  0.2355  0.5223  0.0493
 7405TIP3    H122179   3.162   0.553   3.328  2.0448  0.5646  1.3900
 7405TIP3    H222180   3.031   0.617   3.368  0.4294 -0.8889 -1.2671
 7406TIP3   OH222181   1.784   4.416   5.378  0.1148 -0.0074 -0.3148
 7406TIP3    H122182   1.730   4.343   5.408  0.8642 -0.3724  0.1695
 7406TIP3    H222183   1.817   4.388   5.292  0.3969 -0.2457 -0.1322
 7407TIP3   OH222184   3.360   2.715   4.824  0.1078 -0.9928  0.6037
 7407TIP3    H122185   3.442   2.763   4.836  0.3631 -1.1269 -0.5060
 7407TIP3    H222186   3.291   2.779   4.844  0.4648 -0.5620  0.4680
 7408TIP3   OH222187   2.346   0.427   1.696  0.2707 -0.1704  0.5489
 7408TIP3    H122188   2.312   0.513   1.719  2.2553  0.4066  1.5301
 7408TIP3    H222189   2.334   0.374   1.775 -1.0073 -0.8657 -0.0712
 7409TIP3   OH222190   3.277   5.423   3.838  0.2363  0.2541  0.3621
 7409TIP3    H122191   3.295   5.439   3.931  2.1110  0.2921  0.0291
 7409TIP3    H222192   3.289   5.328   3.828  0.5936  0.3276  0.0645
 7410TIP3   OH222193   6.290   4.528   0.044  0.1647  0.6542 -0.3340
 7410TIP3    H122194   6.225   4.551  -0.023 -0.4439 -1.7527 -0.6785
 7410TIP3    H222195   6.244   4.467   0.101  1.2148  1.3433  1.3020
 7411TIP3   OH222196   6.675   0.744   2.907 -0.2922 -0.1639 -0.2292
 7411TIP3    H122197   6.653   0.837   2.914  0.5184  0.0600 -0.4795
 7411TIP3    H222198   6.771   0.742   2.912 -0.3379 -1.0524  0.4425
 7412TIP3   OH222199   0.050   2.968   1.732 -0.1173 -0.1180  0.1347
 7412TIP3    H122200   0.045   3.063   1.736 -0.0204 -0.1458  1.1520
 7412TIP3    H222201   0.106   2.944   1.805  2.1100 -0.7964 -1.6835
 7413TIP3   OH222202   1.356   5.678   4.462  0.1074 -0.0418  0.0136
 7413TIP3    H122203   1.431   5.641   4.509  0.4586 -0.8564 -1.1487
 7413TIP3    H222204   1.280   5.632   4.497  0.2637  0.0221  0.4415
 7414TIP3   OH222205   4.780   4.588   2.198 -0.5406 -0.4365  0.7165
 7414TIP3    H122206   4.869   4.556   2.186 -0.0771  0.8631  0.5401
 7414TIP3    H222207   4.786   4.649   2.272 -0.2416  3.2483 -2.0388
 7415TIP3   OH222208   3.294   5.387   0.586 -0.1854  0.4405  0.4729
 7415TIP3    H122209   3.351   5.462   0.567  0.1813  0.2478  0.8065
 7415TIP3    H222210   3.321   5.358   0.673  1.9874 -2.1756 -0.9508
 7416TIP3   OH222211   1.628   1.092   4.732 -0.3359  0.5524 -0.0143
 7416TIP3    H122212   1.540   1.115   4.760 -0.1011  2.6172 -0.7874
 7416TIP3    H222213   1.624   1.091   4.636  0.2021 -0.5846 -0.0425
 7417TIP3   OH222214   5.205   2.505   3.197 -0.2890 -0.3116 -0.3606
 7417TIP3    H122215   5.185   2.415   3.223 -0.8257  0.7231  3.3999
 7417TIP3    H222216   5.295   2.501   3.165 -0.6769 -2.3080 -1.3724
 7418TIP3   OH222217   6.311   4.756   2.496 -0.8459  0.2120  0.2396
 7418TIP3    H122218   6.369   4.679   2.496 -0.9040  0.1683  0.2703
 7418TIP3    H222219   6.237   4.730   2.440 -0.5845  0.4576 -0.2245
 7419TIP3   OH222220   6.762   4.519   0.348 -0.4925 -0.0305 -0.4502
 7419TIP3    H122221   6.706   4.590   0.315 -0.3436 -0.0604 -0.7634
 7419TIP3    H222222   6.847   4.560   0.364 -0.8123  0.1930  0.7705
 7420TIP3   OH222223   0.787   4.197   4.511  0.2460 -0.1501  0.1972
 7420TIP3    H122224   0.809   4.262   4.578  0.4128  0.4977 -0.4627
 7420TIP3    H222225   0.692   4.194   4.509  0.2426 -0.3228  0.6003
 7421TIP3   OH222226   6.261   3.104   4.371 -0.1843 -0.2855  0.0561
 7421TIP3    H122227   6.268   3.057   4.454  1.0842  0.8690  0.6307
 7421TIP3    H222228   6.206   3.180   4.391 -2.8882 -1.8021 -1.0495
 7422TIP3   OH222229   1.406   2.310   3.784 -0.3301 -0.2914  0.2891
 7422TIP3    H122230   1.373   2.314   3.694  0.2454  0.2204  0.0888
 7422TIP3    H222231   1.500   2.328   3.775 -0.3997  0.5394  1.0748
 7423TIP3   OH222232   1.418   1.665   4.976 -0.2005  0.1847  0.0325
 7423TIP3    H122233   1.468   1.623   4.907  1.0200  0.7834  0.5237
 7423TIP3    H222234   1.404   1.755   4.945  0.2948  0.4354  0.5154
 7424TIP3   OH222235   2.665   6.761   1.413  0.5538 -0.4727 -0.2878
 7424TIP3    H122236   2.647   6.800   1.499  1.9783 -0.8326  0.2020
 7424TIP3    H222237   2.746   6.710   1.426 -0.1536 -1.9610 -1.4029
 7425TIP3   OH222238   6.931   1.582   0.113  0.4286  0.8597  0.0367
 7425TIP3    H122239   6.863   1.649   0.106 -0.3154  0.1750  0.5444
 7425TIP3    H222240   6.923   1.549   0.203  0.5116 -0.1997 -0.3353
 7426TIP3   OH222241   5.555   6.721   4.559  0.4380  0.0594  0.4207
 7426TIP3    H122242   5.620   6.653   4.576 -0.4521 -0.9990 -0.2852
 7426TIP3    H222243   5.581   6.758   4.475  1.7137  1.5771  1.4307
 7427TIP3   OH222244   6.488   5.385   0.585 -0.5038  0.0412  0.5289
 7427TIP3    H122245   6.488   5.425   0.672  0.2737 -0.4763  0.7784
 7427TIP3    H222246   6.395   5.370   0.566 -0.6205 -1.8042  2.2156
 7428TIP3   OH222247   0.004   1.145   0.644  0.7145  0.4642  0.1869
 7428TIP3    H122248   0.049   1.115   0.723 -1.8455 -0.1772  1.5095
 7428TIP3    H222249  -0.046   1.222   0.672  0.0091  0.4085 -0.8573
 7429TIP3   OH222250   4.845   3.972   1.254 -0.0703 -0.4134 -0.1306
 7429TIP3    H122251   4.749   3.977   1.253 -0.0449  0.0539 -1.0772
 7429TIP3    H222252   4.868   3.980   1.347 -1.0606 -3.3338  0.4629
 7430TIP3   OH222253   6.939   0.440   3.557  0.2681  0.6889 -0.2868
 7430TIP3    H122254   6.872   0.469   3.619  0.6440  2.0729 -0.4809
 7430TIP3    H222255   7.016   0.423   3.612  0.7855  2.5017 -0.3842
 7431TIP3   OH222256   5.188   1.440   4.123 -0.0909 -0.7468 -0.6546
 7431TIP3    H122257   5.218   1.350   4.114 -0.9461 -1.2291  0.9131
 7431TIP3    H222258   5.095   1.432   4.145 -0.7246  0.5975 -2.5955
 7432TIP3   OH222259   5.721   4.660   3.530 -0.4287 -0.3144  0.4720
 7432TIP3    H122260   5.645   4.628   3.579  0.0141  0.3898  1.6713
 7432TIP3    H222261   5.721   4.610   3.449 -2.0698 -0.4467  0.5318
 7433TIP3   OH222262   6.435   6.573   3.331  0.5829  0.0947 -1.0037
 7433TIP3    H122263   6.391   6.625   3.264  0.6847  0.2625 -0.9379
 7433TIP3    H222264   6.434   6.628   3.409  0.5283 -0.0726 -0.8854
 7434TIP3   OH222265   1.674   6.499   3.476  0.0873 -0.2421 -0.5838
 7434TIP3    H122266   1.732   6.576   3.475  0.4407 -0.4425  1.0143
 7434TIP3    H222267   1.620   6.512   3.554 -0.6870 -1.0277 -0.9792
 7435TIP3   OH222268   3.631   3.503   1.226 -0.0157  0.2321 -0.1395
 7435TIP3    H122269   3.642   3.585   1.177 -0.2170  0.4712  0.2128
 7435TIP3    H222270   3.550   3.465   1.192  0.5902 -0.3342 -1.0232
 7436TIP3   OH222271   1.348   3.134   0.412 -0.2020  0.7598 -0.7862
 7436TIP3    H122272   1.342   3.165   0.502  1.6458  2.3137 -1.1273
 7436TIP3    H222273   1.333   3.040   0.418  0.3706  0.7520  1.2281
 7437TIP3   OH222274   1.704   3.897   0.539 -0.2067  0.0537 -0.6490
 7437TIP3    H122275   1.692   3.940   0.623 -0.5777 -0.3261 -0.5011
 7437TIP3    H222276   1.689   3.966   0.474  2.0453  0.8431 -0.4157
 7438TIP3   OH222277   2.303   1.676   4.571 -0.0057 -0.2405 -0.0192
 7438TIP3    H122278   2.309   1.581   4.561 -1.9455 -0.5913  1.3827
 7438TIP3    H222279   2.250   1.704   4.496 -0.9744 -0.5677  0.5152
 7439TIP3   OH222280   5.698   3.263   1.354 -0.0807 -0.6711  0.0353
 7439TIP3    H122281   5.701   3.291   1.445  0.6317  0.5868 -0.3539
 7439TIP3    H222282   5.782   3.220   1.339  1.0514  1.6066 -0.7376
 7440TIP3   OH222283   1.984   1.610   1.954  0.1848  0.4000  0.2422
 7440TIP3    H122284   1.971   1.694   1.997  2.5252  0.7951  0.2726
 7440TIP3    H222285   1.942   1.620   1.869  0.0301  1.4262  0.4280
 7441TIP3   OH222286   0.068   4.604   0.572 -0.7254  0.2961  0.3673
 7441TIP3    H122287   0.148   4.608   0.625 -0.3990  0.9818 -0.1611
 7441TIP3    H222288   0.076   4.677   0.510 -1.4170 -0.0785 -0.1826
 7442TIP3   OH222289   4.644   1.509   2.197 -0.0287 -0.7861  0.6414
 7442TIP3    H122290   4.549   1.505   2.207 -0.0393 -0.8365  0.5137
 7442TIP3    H222291   4.660   1.491   2.105  0.1452 -1.4942  0.8013
 7443TIP3   OH222292   6.839   5.143   1.501  0.2457  0.0441 -0.4613
 7443TIP3    H122293   6.786   5.151   1.579  1.5720  1.5005  0.3507
 7443TIP3    H222294   6.894   5.066   1.517  1.0821  0.8071  0.4237
 7444TIP3   OH222295   6.836   1.436   4.570 -0.3091  0.0749 -0.4344
 7444TIP3    H122296   6.898   1.474   4.632 -1.3606  0.1377  0.6284
 7444TIP3    H222297   6.816   1.507   4.509  1.5801 -0.3024 -1.5995
 7445TIP3   OH222298   5.543   3.444   3.379  1.0059 -0.3652 -0.5420
 7445TIP3    H122299   5.570   3.489   3.299  0.3587  0.0649 -0.5257
 7445TIP3    H222300   5.616   3.456   3.440  1.6449 -0.9821 -1.1718
 7446TIP3   OH222301   2.721   1.342   0.917  0.0501 -0.0771 -0.7040
 7446TIP3    H122302   2.739   1.265   0.863 -1.4259 -0.2115 -1.0460
 7446TIP3    H222303   2.773   1.328   0.996  1.7121 -0.2029 -1.7700
 7447TIP3   OH222304   3.364   5.153   3.824  0.1390 -0.3738 -0.1379
 7447TIP3    H122305   3.458   5.152   3.808 -0.1920 -0.0228 -2.4746
 7447TIP3    H222306   3.325   5.131   3.739 -1.9097  0.3761  0.5444
 7448TIP3   OH222307   5.124   5.927   0.245 -0.8394 -0.1950  0.0134
 7448TIP3    H122308   5.063   5.954   0.177  0.2899  0.6500 -0.6966
 7448TIP3    H222309   5.166   5.848   0.211 -1.0013 -0.3485  0.1711
 7449TIP3   OH222310   0.831   3.065   4.505 -0.3450 -0.1559 -0.2125
 7449TIP3    H122311   0.835   3.160   4.493  1.2008 -0.2392 -0.6259
 7449TIP3    H222312   0.917   3.042   4.541  0.1036 -1.6193 -2.0421
 7450TIP3   OH222313   4.677   0.061   3.652  0.2908 -0.2361 -0.2193
 7450TIP3    H122314   4.587   0.073   3.622 -0.2856  1.7467  1.9531
 7450TIP3    H222315   4.727   0.129   3.607  0.0295  0.6992  0.8379
 7451TIP3   OH222316   0.233   3.326   2.711  0.5475  0.6886  0.8255
 7451TIP3    H122317   0.143   3.355   2.725  0.4204  0.6542  0.1186
 7451TIP3    H222318   0.276   3.399   2.667  0.2779 -0.0693 -0.7836
 7452TIP3   OH222319   1.077   2.538   5.739  0.6563  0.2095 -0.4358
 7452TIP3    H122320   1.009   2.563   5.677  1.9650  0.0799 -1.9955
 7452TIP3    H222321   1.075   2.606   5.806 -1.4357 -0.1600 -0.0356
 7453TIP3   OH222322   0.471   5.665   5.056 -0.4682 -0.0410  0.3733
 7453TIP3    H122323   0.466   5.656   4.961  1.6575 -0.0255  0.2067
 7453TIP3    H222324   0.451   5.758   5.072  1.5543  0.5909 -0.3604
 7454TIP3   OH222325   4.496   3.903   5.668  0.0545  0.0995 -0.0004
 7454TIP3    H122326   4.561   3.833   5.668 -0.4005 -0.3822 -2.0706
 7454TIP3    H222327   4.535   3.973   5.614  0.5333  1.5385  2.0785
 7455TIP3   OH222328   5.454   3.932   2.169 -0.0056  0.3953 -0.7142
 7455TIP3    H122329   5.503   3.940   2.087 -1.9122 -0.5857 -2.0443
 7455TIP3    H222330   5.377   3.989   2.155  0.0388  0.8384  0.7350
 7456TIP3   OH222331   2.101   0.422   5.434  0.9662  0.7820  0.3539
 7456TIP3    H122332   2.157   0.347   5.455 -0.0040 -0.1512 -0.3020
 7456TIP3    H222333   2.075   0.458   5.519  0.3853 -0.4417  0.7133
 7457TIP3   OH222334   1.198   3.515   1.587  0.0220 -0.2712 -0.2568
 7457TIP3    H122335   1.195   3.453   1.659  1.9208  0.9227  0.9321
 7457TIP3    H222336   1.124   3.575   1.603 -0.1136 -0.5541  0.1867
 7458TIP3   OH222337   6.736   5.572   2.104 -0.0048  0.1665  0.0565
 7458TIP3    H122338   6.680   5.590   2.179 -0.8385 -0.4873 -0.3811
 7458TIP3    H222339   6.801   5.641   2.104 -0.5261  0.6647  0.8736
 7459TIP3   OH222340   7.083   4.077   0.276 -0.2655 -0.0660  0.3388
 7459TIP3    H122341   7.030   4.096   0.353  0.2602  1.0120  0.4515
 7459TIP3    H222342   7.077   4.155   0.222  0.9873 -0.0081  0.2356
 7460TIP3   OH222343   6.985   1.151   3.319  0.4625 -0.3403 -0.7010
 7460TIP3    H122344   7.042   1.202   3.261  0.4943  0.2191 -0.1887
 7460TIP3    H222345   6.983   1.063   3.279  2.4461 -0.6555 -0.2307
 7461TIP3   OH222346   2.279   5.882   0.279  0.1465 -0.7318 -0.5270
 7461TIP3    H122347   2.239   5.805   0.238 -0.6303  0.7074 -2.6758
 7461TIP3    H222348   2.356   5.900   0.226 -0.1969  0.4874 -0.6419
 7462TIP3   OH222349   1.308   2.921   2.057  0.1151 -0.7100 -0.5713
 7462TIP3    H122350   1.258   3.003   2.055  0.4950 -0.4863 -1.0512
 7462TIP3    H222351   1.295   2.887   2.146 -1.1090 -0.7920 -0.7671
 7463TIP3   OH222352   6.777   1.515   5.451  0.4398  0.4231  0.2501
 7463TIP3    H122353   6.832   1.511   5.373 -0.0498 -1.4446 -0.0537
 7463TIP3    H222354   6.715   1.585   5.433  1.4767  1.2479 -0.2337
 7464TIP3   OH222355   5.696   6.779   5.902  0.4736  0.0132 -0.1201
 7464TIP3    H122356   5.731   6.860   5.865  0.6995  0.6338  1.3720
 7464TIP3    H222357   5.732   6.710   5.847 -0.5055  0.9435 -2.0390
 7465TIP3   OH222358   1.431   3.668   1.539 -0.1253 -0.4481 -0.3070
 7465TIP3    H122359   1.503   3.606   1.551  0.0830 -0.2313 -0.4246
 7465TIP3    H222360   1.352   3.614   1.545  0.0913 -1.0886 -2.4235
 7466TIP3   OH222361   2.860   4.226   1.531  0.2864  0.0918  0.0980
 7466TIP3    H122362   2.830   4.308   1.570  1.8831  1.5680 -1.5693
 7466TIP3    H222363   2.789   4.165   1.546 -0.8871  1.7127  1.5797
 7467TIP3   OH222364   4.942   2.686   3.692 -0.0837 -0.4216 -0.4842
 7467TIP3    H122365   4.908   2.680   3.603 -1.7007  0.9608 -0.0225
 7467TIP3    H222366   4.865   2.673   3.748  0.3083  1.5544  0.6391
 7468TIP3   OH222367   5.744   3.249   5.460  0.4270 -0.1176  0.7262
 7468TIP3    H122368   5.731   3.287   5.547 -0.2772  1.5382 -0.0436
 7468TIP3    H222369   5.659   3.209   5.438  0.1352  0.7225  0.2584
 7469TIP3   OH222370   6.313   3.695   4.712  0.2268 -0.1686 -0.3881
 7469TIP3    H122371   6.392   3.723   4.666 -0.0013  0.8185 -0.1992
 7469TIP3    H222372   6.265   3.776   4.728 -0.3640 -0.6554  0.3523
 7470TIP3   OH222373   3.509   2.655   4.500 -0.7089 -0.4846 -0.2833
 7470TIP3    H122374   3.537   2.675   4.589  0.6599 -0.3388 -0.7249
 7470TIP3    H222375   3.458   2.574   4.509 -0.5229 -0.5156  0.6161
 7471TIP3   OH222376   1.758   1.661   4.290  0.1754  0.0207 -0.0962
 7471TIP3    H122377   1.669   1.696   4.288 -1.0382 -2.8177 -2.3508
 7471TIP3    H222378   1.753   1.586   4.349  1.1708 -0.0363 -0.0716
 7472TIP3   OH222379   0.406   5.147   5.000 -0.0704 -0.3053  0.2883
 7472TIP3    H122380   0.377   5.230   5.040 -0.9588 -1.1478  1.4765
 7472TIP3    H222381   0.432   5.171   4.911  1.4674  1.5741  1.1615
 7473TIP3   OH222382   5.067   1.235   3.753  0.0694  0.0342 -0.4919
 7473TIP3    H122383   5.031   1.153   3.720 -0.5888 -0.0845  0.4874
 7473TIP3    H222384   4.996   1.274   3.804  1.2096 -0.0504  1.2311
 7474TIP3   OH222385   5.399   2.618  -0.003 -0.4556  0.3175 -0.2231
 7474TIP3    H122386   5.312   2.581   0.010 -0.3996  0.0604 -0.5396
 7474TIP3    H222387   5.449   2.590   0.073  0.0217 -1.6131 -1.1884
 7475TIP3   OH222388   4.366   4.097   2.639 -0.0732  0.2855  0.0162
 7475TIP3    H122389   4.309   4.155   2.588 -0.3810  1.6912  1.8644
 7475TIP3    H222390   4.440   4.080   2.581 -1.7867 -0.6899 -2.0186
 7476TIP3   OH222391   5.535   4.106   5.061  0.1281  0.1007 -0.4733
 7476TIP3    H122392   5.507   4.077   5.147  1.1491  0.2382 -0.0760
 7476TIP3    H222393   5.474   4.065   5.000 -0.5717 -0.0343  0.3113
 7477TIP3   OH222394   0.345   3.066   5.371  0.1995  0.1210 -0.0770
 7477TIP3    H122395   0.253   3.081   5.392  0.1808  0.9490 -0.6823
 7477TIP3    H222396   0.370   3.143   5.321  0.9681 -0.5524 -0.7469
 7478TIP3   OH222397   6.876   1.935   4.314 -0.4242 -0.0149 -0.3119
 7478TIP3    H122398   6.945   1.886   4.269 -0.4243 -1.6681  1.3761
 7478TIP3    H222399   6.884   2.024   4.280  1.4613 -0.5327 -1.3664
 7479TIP3   OH222400   5.278   3.320   0.757 -0.2360  0.0055 -0.1913
 7479TIP3    H122401   5.271   3.293   0.666 -0.3786 -1.3562  0.2020
 7479TIP3    H222402   5.242   3.408   0.759 -1.5170 -0.4646 -1.2092
 7480TIP3   OH222403   6.585   5.015   0.527 -0.3066  0.5544 -0.3863
 7480TIP3    H122404   6.630   4.938   0.562 -0.3875  1.6723  2.4092
 7480TIP3    H222405   6.500   4.982   0.497  0.6798 -0.8510 -1.7862
 7481TIP3   OH222406   2.309   3.900   1.497 -0.4647 -0.1482 -0.5793
 7481TIP3    H122407   2.390   3.857   1.525 -0.8647 -0.6277 -0.1247
 7481TIP3    H222408   2.325   3.924   1.406  0.4602  0.4452 -0.2776
 7482TIP3   OH222409   3.760   2.794   2.048  0.4671  0.1656 -0.7468
 7482TIP3    H122410   3.815   2.818   1.974  2.0700  1.9888  0.9098
 7482TIP3    H222411   3.790   2.706   2.072  1.1590  0.2760 -1.1777
 7483TIP3   OH222412   4.320   0.838   0.283 -0.3489 -0.6281  0.0662
 7483TIP3    H122413   4.310   0.924   0.324  0.8494 -0.6118  0.3495
 7483TIP3    H222414   4.334   0.858   0.190 -0.3515 -0.5300  0.0863
 7484TIP3   OH222415   0.972   1.555   0.579  0.4018 -0.1516 -0.5747
 7484TIP3    H122416   0.954   1.508   0.498 -0.0293 -1.7414  0.3943
 7484TIP3    H222417   1.067   1.564   0.580  0.2994  1.7587 -2.2136
 7485TIP3   OH222418   2.764   6.219   1.012  0.0006  0.5678  0.1322
 7485TIP3    H122419   2.683   6.270   1.022 -1.7780 -1.9175 -0.6600
 7485TIP3    H222420   2.814   6.267   0.946 -0.7322  2.2059  0.6948
 7486TIP3   OH222421   0.650   5.343   5.343  0.3923 -0.1733  0.1551
 7486TIP3    H122422   0.698   5.310   5.419  0.7663 -0.1755 -0.0768
 7486TIP3    H222423   0.670   5.281   5.273  1.1013  0.5340 -0.2856
 7487TIP3   OH222424   5.927   5.228   4.276  0.0442 -0.1366 -0.4313
 7487TIP3    H122425   5.884   5.239   4.192  0.9567  1.6494 -0.7011
 7487TIP3    H222426   5.883   5.153   4.316 -3.0837  1.3406 -0.8228
 7488TIP3   OH222427   7.057   3.977   3.533 -0.4121  0.4960 -0.2289
 7488TIP3    H122428   7.106   4.047   3.490 -0.0772  0.3002 -0.1732
 7488TIP3    H222429   7.088   3.977   3.623 -0.3135  0.1956 -0.2604
 7489TIP3   OH222430   5.251   1.667   3.916 -0.0707  0.0503  0.6046
 7489TIP3    H122431   5.320   1.732   3.929 -1.3293  1.3958  0.7081
 7489TIP3    H222432   5.241   1.625   4.002  1.1076 -0.6922  0.4043
 7490TIP3   OH222433   2.098   4.216   5.212 -0.1866 -0.1821 -0.1594
 7490TIP3    H122434   2.091   4.288   5.275 -1.4323 -0.5555  0.1556
 7490TIP3    H222435   2.010   4.178   5.208  0.2188 -1.0972 -1.0307
 7491TIP3   OH222436   1.320   3.365   1.815  0.1345  1.0622  0.3726
 7491TIP3    H122437   1.345   3.422   1.741  0.2143  0.4170 -0.1069
 7491TIP3    H222438   1.340   3.277   1.784  0.2353  0.7916  1.2050
 7492TIP3   OH222439   5.011   4.686   5.694  0.4632 -0.4177 -0.4078
 7492TIP3    H122440   4.956   4.665   5.619  2.2064  1.4569 -2.3778
 7492TIP3    H222441   5.089   4.631   5.682  0.4327 -0.6504  0.4610
 7493TIP3   OH222442   5.763   1.799   4.730  0.1695  0.0606  0.3631
 7493TIP3    H122443   5.807   1.870   4.682  0.1543 -0.2372 -0.0992
 7493TIP3    H222444   5.702   1.844   4.788  0.8637  0.4624  0.7834
 7494TIP3   OH222445   5.162   2.550   1.068 -0.6985  0.2175  0.6309
 7494TIP3    H122446   5.226   2.597   1.015 -0.1769  0.2704  1.2939
 7494TIP3    H222447   5.202   2.544   1.155 -1.9760  1.0272  1.2997
 7495TIP3   OH222448   1.052   5.609   3.491  0.4279 -0.3168 -0.5652
 7495TIP3    H122449   1.051   5.537   3.427  1.8793 -0.4986 -0.4098
 7495TIP3    H222450   1.092   5.571   3.569  1.5983  0.7632 -0.6146
 7496TIP3   OH222451   4.580   0.536   2.964 -0.1236  0.1515 -0.1514
 7496TIP3    H122452   4.569   0.613   3.020  0.2959 -0.0888  0.2679
 7496TIP3    H222453   4.563   0.568   2.876  0.6152  0.8584 -0.0412
 7497TIP3   OH222454   1.740   4.650   0.116  0.1177  0.0325  0.2356
 7497TIP3    H122455   1.806   4.584   0.092 -0.3164 -0.0735 -0.7309
 7497TIP3    H222456   1.756   4.668   0.208  1.2182 -0.3173  0.1242
 7498TIP3   OH222457   7.160   5.507   1.962 -0.4450  0.2273 -0.6216
 7498TIP3    H122458   7.199   5.424   1.991  0.1087  1.2062  1.6452
 7498TIP3    H222459   7.172   5.567   2.036 -3.2137  1.5917 -1.1244
 7499TIP3   OH222460   2.839   6.234   2.897 -0.8331 -0.5983 -0.3651
 7499TIP3    H122461   2.860   6.298   2.830 -1.0128 -0.6496 -0.4726
 7499TIP3    H222462   2.749   6.206   2.877 -1.6135  0.7599  0.9833
 7500TIP3   OH222463   1.824   6.062   0.814 -0.3423  0.0492  0.0244
 7500TIP3    H122464   1.795   6.133   0.871  0.8454  1.0251 -0.5681
 7500TIP3    H222465   1.854   5.993   0.875 -0.8889  0.2944  0.5857
 7501TIP3   OH222466   5.879   1.559   4.389 -0.5691  0.4223 -0.3489
 7501TIP3    H122467   5.862   1.478   4.340  0.3482  0.0691 -0.1050
 7501TIP3    H222468   5.798   1.610   4.380 -0.3493  0.4796 -2.4149
 7502TIP3   OH222469   2.282   1.062   3.424  0.0150 -0.1439 -0.2743
 7502TIP3    H122470   2.278   1.043   3.518  1.8506  1.1790  0.1151
 7502TIP3    H222471   2.226   0.995   3.385 -0.6411 -0.8626  1.7277
 7503TIP3   OH222472   5.821   2.710   0.452  0.8885  0.1757  0.0002
 7503TIP3    H122473   5.741   2.744   0.413  0.3742 -0.0284  0.8515
 7503TIP3    H222474   5.845   2.774   0.518  0.5705 -0.5058  0.7952
 7504TIP3   OH222475   0.855   0.980   1.849 -0.0665  0.0912 -0.5774
 7504TIP3    H122476   0.846   1.020   1.936  1.4422  0.9111 -0.7763
 7504TIP3    H222477   0.767   0.986   1.811 -0.2806  1.6189  0.0854
 7505TIP3   OH222478   1.894   0.084   4.720  1.3135 -0.3539 -0.4847
 7505TIP3    H122479   1.907  -0.003   4.757 -3.4181 -0.9848  0.3344
 7505TIP3    H222480   1.926   0.144   4.787  0.4806 -1.5296  1.0464
 7506TIP3   OH222481   3.762   4.945   3.816 -0.5736  0.3407  0.2007
 7506TIP3    H122482   3.710   4.865   3.828  0.4902 -0.7361 -1.7802
 7506TIP3    H222483   3.768   4.955   3.721  1.1649  1.5338  0.3884
 7507TIP3   OH222484   6.021   2.088   4.453 -0.6391  0.3200 -0.3811
 7507TIP3    H122485   6.113   2.112   4.437 -0.6514  0.0590 -0.8663
 7507TIP3    H222486   5.970   2.156   4.410 -0.6715 -0.3789 -1.5016
 7508TIP3   OH222487   1.169   1.523   2.075 -0.3159 -0.0368 -0.0117
 7508TIP3    H122488   1.109   1.538   2.148 -1.3517  1.0890 -1.0311
 7508TIP3    H222489   1.209   1.608   2.059 -0.5028 -0.1254 -1.0575
 7509TIP3   OH222490   3.884   0.732   2.533 -0.6069  0.1937 -0.2280
 7509TIP3    H122491   3.861   0.776   2.615 -0.9515  1.4193 -0.9535
 7509TIP3    H222492   3.971   0.765   2.511 -0.7526  0.3130 -0.6403
 7510TIP3   OH222493   1.496   0.986   3.607 -0.1860 -0.1831  0.4655
 7510TIP3    H122494   1.427   0.987   3.673 -1.4073 -0.5399 -0.7382
 7510TIP3    H222495   1.456   1.029   3.531  1.8078  1.9297  0.5254
 7511TIP3   OH222496   3.335   0.243   1.526  0.0957 -0.4773 -0.9497
 7511TIP3    H122497   3.253   0.289   1.542  0.0664 -0.8990  0.1868
 7511TIP3    H222498   3.312   0.150   1.530  0.7615 -0.6133  0.2603
 7512TIP3   OH222499   3.280   4.587   5.821  0.1397  0.2637  0.1841
 7512TIP3    H122500   3.322   4.619   5.741  0.1052  0.3453  0.1990
 7512TIP3    H222501   3.256   4.666   5.869  2.2996  0.2310  1.4260
 7513TIP3   OH222502   4.455   3.186  -0.012  0.0510  0.0579  0.1961
 7513TIP3    H122503   4.542   3.155   0.012  0.9930  1.9662 -0.5602
 7513TIP3    H222504   4.399   3.159   0.061  1.2172 -1.3843  0.5983
 7514TIP3   OH222505   6.185   2.204   0.175  0.4010 -0.1009  0.3303
 7514TIP3    H122506   6.187   2.143   0.248  0.7290 -0.6567 -0.1334
 7514TIP3    H222507   6.274   2.239   0.170  0.5541 -0.5401 -0.1832
 7515TIP3   OH222508   5.983   1.789   2.105 -0.2601  0.5005 -0.4480
 7515TIP3    H122509   5.898   1.794   2.148 -0.2652  1.4765 -0.5469
 7515TIP3    H222510   6.037   1.854   2.150  0.0769  0.7370 -1.1748
 7516TIP3   OH222511   3.752   5.147   5.808 -0.2017  0.1130 -0.0203
 7516TIP3    H122512   3.797   5.069   5.775  3.1346  1.8537  0.0038
 7516TIP3    H222513   3.800   5.221   5.770 -0.4490  2.2067  3.3202
 7517TIP3   OH222514   2.575   6.149   2.855  0.4767  0.2387  1.1030
 7517TIP3    H122515   2.523   6.156   2.935 -1.3364  1.2152 -0.0945
 7517TIP3    H222516   2.511   6.145   2.784  1.9966 -1.4922 -0.2946
 7518TIP3   OH222517   6.519   1.207   2.863  0.2826 -0.3728 -0.1394
 7518TIP3    H122518   6.524   1.300   2.885 -1.2111 -0.3214  0.0304
 7518TIP3    H222519   6.449   1.201   2.798  0.1053 -1.4348  0.1368
 7519TIP3   OH222520   0.790   1.101   3.118 -0.1100  0.5457  0.2755
 7519TIP3    H122521   0.860   1.118   3.181  0.3067  0.3610 -0.1247
 7519TIP3    H222522   0.819   1.145   3.038  0.3396 -0.8435 -0.3698
 7520TIP3   OH222523   3.010   1.444   0.190  0.4609  0.0794  0.2125
 7520TIP3    H122524   2.956   1.408   0.260  0.0566  0.9753  0.3758
 7520TIP3    H222525   3.009   1.378   0.121  0.2881 -0.5016  0.7712
 7521TIP3   OH222526   6.727   3.972   0.345  1.2225 -0.3354  0.0196
 7521TIP3    H122527   6.689   3.998   0.261  0.7509  0.4500  0.4613
 7521TIP3    H222528   6.712   3.878   0.350  1.6731 -0.4792 -0.9795
 7522TIP3   OH222529   0.598   1.799   2.603  0.1616 -0.1950 -0.3574
 7522TIP3    H122530   0.632   1.870   2.656 -1.5099  1.2775 -1.1603
 7522TIP3    H222531   0.590   1.836   2.515 -1.3672 -1.1396 -0.6545
 7523TIP3   OH222532   1.291   0.997   1.682  0.0169 -0.1892 -0.3015
 7523TIP3    H122533   1.350   1.071   1.670 -1.0682  0.5367 -1.4885
 7523TIP3    H222534   1.342   0.920   1.656  0.8301  0.2549 -0.0382
 7524TIP3   OH222535   5.910   0.389   2.893  0.0924  0.3371 -0.0276
 7524TIP3    H122536   5.914   0.434   2.977  0.0652  0.4436 -0.0831
 7524TIP3    H222537   5.962   0.310   2.906 -0.8650 -0.2294  0.4427
 7525TIP3   OH222538   6.980   2.725   1.335  0.0159  0.2989 -0.2709
 7525TIP3    H122539   6.898   2.694   1.296  0.0470 -0.1458  0.0077
 7525TIP3    H222540   6.967   2.819   1.346 -0.4018  0.2557 -0.3638
 7526TIP3   OH222541   3.537   1.883   5.581 -0.4054  0.2686  0.3834
 7526TIP3    H122542   3.626   1.856   5.602 -0.7537 -3.4475 -1.9109
 7526TIP3    H222543   3.490   1.875   5.664  0.9469 -0.0238  1.1484
 7527TIP3   OH222544   1.701   4.118   1.271  0.4841 -0.3204 -0.3777
 7527TIP3    H122545   1.632   4.055   1.289  0.5081 -0.8156 -1.8245
 7527TIP3    H222546   1.672   4.163   1.191  0.2724  1.8246  0.8241
 7528TIP3   OH222547   3.433   4.814   5.074 -0.0775 -0.2942  0.4744
 7528TIP3    H122548   3.367   4.860   5.126 -0.5252 -0.9664  0.5043
 7528TIP3    H222549   3.477   4.884   5.025 -0.5754  0.1961  0.7132
 7529TIP3   OH222550   5.499   1.926   1.201 -0.5814  0.5532  0.0653
 7529TIP3    H122551   5.421   1.929   1.256 -0.7286  2.7168 -0.1670
 7529TIP3    H222552   5.465   1.920   1.111 -0.3689 -1.5473  0.0781
 7530TIP3   OH222553   1.716   3.884   4.725  0.2961 -0.2552 -0.6446
 7530TIP3    H122554   1.748   3.886   4.635 -1.1309 -2.6828 -1.3224
 7530TIP3    H222555   1.621   3.870   4.716  0.2048 -1.0947  1.2115
 7531TIP3   OH222556   4.606   0.317   1.628  0.0585  0.3995 -0.2856
 7531TIP3    H122557   4.523   0.273   1.646 -0.8170  1.6661 -1.0981
 7531TIP3    H222558   4.587   0.376   1.555  2.1261 -0.5942 -1.7196
 7532TIP3   OH222559   6.704   0.298   1.363 -0.3851 -0.6053 -0.0025
 7532TIP3    H122560   6.709   0.265   1.453  0.2563  0.2296  0.2838
 7532TIP3    H222561   6.615   0.332   1.355 -0.6136 -1.1729  0.1408
 7533TIP3   OH222562   6.045   3.454   3.213 -0.3287 -0.4248  0.1537
 7533TIP3    H122563   6.003   3.492   3.136 -0.1558 -0.3188  0.1117
 7533TIP3    H222564   6.138   3.455   3.193 -0.3730 -1.5484 -0.1536
 7534TIP3   OH222565   4.583   1.785   5.057  0.0300 -0.2091 -0.0312
 7534TIP3    H122566   4.568   1.880   5.062 -0.9738 -0.4154  1.9833
 7534TIP3    H222567   4.557   1.761   4.968  0.3275  1.3973 -0.5852
 7535TIP3   OH222568   3.336   6.549   0.253 -0.8466 -0.4144  0.5667
 7535TIP3    H122569   3.257   6.573   0.204  0.4092  2.7910 -0.1655
 7535TIP3    H222570   3.407   6.558   0.189  0.3019 -1.5717  1.6285
 7536TIP3   OH222571   3.940   4.011   3.544  0.4061  0.0625 -0.5918
 7536TIP3    H122572   4.017   4.021   3.600  1.5343 -0.3447 -2.0071
 7536TIP3    H222573   3.873   4.064   3.585  1.7752  1.3152  0.1061
 7537TIP3   OH222574   5.152   2.611   4.081  0.8167 -0.2164  0.0414
 7537TIP3    H122575   5.079   2.672   4.091  0.4791 -0.7317  0.8672
 7537TIP3    H222576   5.228   2.667   4.065  1.0328  0.6812  3.4120
 7538TIP3   OH222577   2.856   3.070   3.354  0.0762  0.4446  0.4213
 7538TIP3    H122578   2.815   3.154   3.332  0.0482 -0.0590 -1.6199
 7538TIP3    H222579   2.923   3.092   3.419 -2.3419  1.4945  2.7460
 7539TIP3   OH222580   0.331   6.428   1.045 -0.8711 -0.2904 -0.3814
 7539TIP3    H122581   0.369   6.378   0.972  0.7780  0.2410  0.0646
 7539TIP3    H222582   0.406   6.450   1.100 -2.1671 -1.5118  2.0276
 7540TIP3   OH222583   0.905   5.372   2.598 -0.0128  0.1686 -0.8238
 7540TIP3    H122584   0.874   5.293   2.643 -1.7626 -0.7985 -3.4905
 7540TIP3    H222585   0.964   5.339   2.530  0.8496  1.3823 -0.6861
 7541TIP3   OH222586   2.070   5.360   3.667 -0.2415  0.1187 -0.3567
 7541TIP3    H122587   2.142   5.328   3.612  0.4000  1.6729 -0.4748
 7541TIP3    H222588   2.009   5.400   3.604  1.0156  2.8944  0.0483
 7542TIP3   OH222589   6.688   6.731   0.566 -0.3933  0.0270  0.0789
 7542TIP3    H122590   6.733   6.789   0.628 -0.8334 -0.1406  0.5606
 7542TIP3    H222591   6.595   6.748   0.580 -0.5042 -0.2469 -0.3120
 7543TIP3   OH222592   0.925   5.826   3.069 -0.0848  0.6720  0.5101
 7543TIP3    H122593   0.839   5.800   3.035  0.5984 -0.9450 -0.0924
 7543TIP3    H222594   0.970   5.743   3.085  1.0988  1.4813  1.5443
 7544TIP3   OH222595   0.253   6.055   0.099 -0.4110 -0.4425  0.7492
 7544TIP3    H122596   0.260   6.102   0.182 -1.3756  0.6843  0.2185
 7544TIP3    H222597   0.256   5.963   0.124 -0.3031 -0.1226  1.9967
 7545TIP3   OH222598   4.949   1.575   4.537 -0.5763 -0.2628 -0.1146
 7545TIP3    H122599   4.886   1.515   4.497 -1.5941 -1.1347  2.6046
 7545TIP3    H222600   5.015   1.518   4.577 -1.6443  0.2934  2.6546
 7546TIP3   OH222601   6.333   0.333   3.322 -0.3843 -0.4661 -0.4290
 7546TIP3    H122602   6.318   0.248   3.362 -0.9434  0.2077  0.8566
 7546TIP3    H222603   6.304   0.396   3.388  0.1421  0.7255 -1.2947
 7547TIP3   OH222604   1.559   1.879   0.319  0.0862  0.4551  0.6219
 7547TIP3    H122605   1.525   1.921   0.398  2.8185 -0.0510  2.2073
 7547TIP3    H222606   1.594   1.950   0.266 -1.9893  0.8249 -0.3460
 7548TIP3   OH222607   1.457   5.611   2.202 -0.1386 -0.5220  0.1322
 7548TIP3    H122608   1.447   5.658   2.119  1.1024 -0.0617  0.2250
 7548TIP3    H222609   1.494   5.526   2.178  0.2971 -0.3579  0.2141
 7549TIP3   OH222610   4.308   5.198   0.109 -0.0921 -0.0359  0.2260
 7549TIP3    H122611   4.280   5.289   0.124  0.4300  0.2139 -0.2971
 7549TIP3    H222612   4.403   5.203   0.104  0.0468 -0.8262  1.5973
 7550TIP3   OH222613   5.425   1.840   0.448  0.1309 -0.4215 -0.4837
 7550TIP3    H122614   5.332   1.839   0.424 -0.0680 -1.0656  0.2934
 7550TIP3    H222615   5.445   1.932   0.463 -1.3991 -0.5387  3.1470
 7551TIP3   OH222616   3.485   0.494   3.702 -0.2428 -0.1276  0.6526
 7551TIP3    H122617   3.533   0.476   3.621 -1.1201  0.1137  0.0674
 7551TIP3    H222618   3.399   0.455   3.688 -0.3867 -0.1274  1.4988
 7552TIP3   OH222619   3.294   6.518   3.371 -0.3675 -0.0249  0.3625
 7552TIP3    H122620   3.366   6.455   3.379 -0.9351 -1.1347 -2.2895
 7552TIP3    H222621   3.234   6.496   3.443  0.0119 -1.7468  0.1833
 7553TIP3   OH222622   2.211   2.412   1.185 -0.1325  0.4731  0.1127
 7553TIP3    H122623   2.143   2.427   1.250 -0.5003 -0.7256  0.0279
 7553TIP3    H222624   2.217   2.316   1.178  1.5092  0.5523  0.0701
 7554TIP3   OH222625   2.892   1.194   4.828 -0.2331  0.2921 -0.7662
 7554TIP3    H122626   2.925   1.282   4.845 -2.3987  0.8537  0.9909
 7554TIP3    H222627   2.805   1.208   4.790 -0.4138 -1.0922 -0.9017
 7555TIP3   OH222628   1.581   4.277   5.500  0.0683  0.7041 -0.1434
 7555TIP3    H122629   1.535   4.194   5.517  2.3249 -0.7911 -0.8654
 7555TIP3    H222630   1.560   4.332   5.576 -2.3239 -0.1105 -0.1504
 7556TIP3   OH222631   5.454   6.097   2.565  0.2475  0.1529 -0.5345
 7556TIP3    H122632   5.402   6.033   2.613  0.2900  0.1720 -0.4617
 7556TIP3    H222633   5.470   6.057   2.480  0.3759  0.0170 -0.4465
 7557TIP3   OH222634   1.803   4.160   4.842 -0.5372  0.0920 -0.3145
 7557TIP3    H122635   1.817   4.232   4.782  1.7961  0.6983  0.8254
 7557TIP3    H222636   1.785   4.084   4.786  1.4966  0.6317 -1.7929
 7558TIP3   OH222637   1.813   3.065   2.787  0.0340  0.0403  0.5799
 7558TIP3    H122638   1.894   3.093   2.830 -0.4950 -0.3844  1.8973
 7558TIP3    H222639   1.783   2.991   2.839 -0.7406 -0.3749 -0.4272
 7559TIP3   OH222640   4.944   2.194   4.280  0.0744  0.7233  0.2662
 7559TIP3    H122641   4.941   2.188   4.375  2.6243 -0.6693  0.3568
 7559TIP3    H222642   4.958   2.287   4.262  1.4618  0.7726  1.4067
 7560TIP3   OH222643   4.228   3.241   2.748  0.5022 -0.2079  0.2203
 7560TIP3    H122644   4.225   3.151   2.781 -1.3568 -0.2869 -0.0231
 7560TIP3    H222645   4.210   3.295   2.826  0.8109 -0.1054  0.2187
 7561TIP3   OH222646   1.808   1.895   4.926 -0.0043  0.2074 -0.1761
 7561TIP3    H122647   1.892   1.854   4.903 -0.0264 -0.2628  0.5570
 7561TIP3    H222648   1.765   1.909   4.842  0.7982  0.4416 -0.5652
 7562TIP3   OH222649   2.068   4.829   5.232  0.1421 -0.3248 -0.6962
 7562TIP3    H122650   2.131   4.768   5.195 -0.7592 -0.7581 -1.5813
 7562TIP3    H222651   2.065   4.808   5.325  1.9007  0.2690 -0.4663
 7563TIP3   OH222652   5.205   0.529   1.661  0.6693 -0.6415 -0.0662
 7563TIP3    H122653   5.231   0.606   1.712  0.8945 -1.6927  1.4619
 7563TIP3    H222654   5.109   0.533   1.660  0.6531 -0.7454  0.6605
 7564TIP3   OH222655   5.843   4.932   1.801  0.2313  0.2400  0.3221
 7564TIP3    H122656   5.837   4.968   1.713  0.5849  0.4806  0.3935
 7564TIP3    H222657   5.936   4.915   1.814 -0.0123 -1.6033 -0.0624
 7565TIP3   OH222658   3.577   3.990   4.270  0.1157 -0.0797 -0.5174
 7565TIP3    H122659   3.533   3.906   4.280  1.2547 -0.5569  0.7766
 7565TIP3    H222660   3.558   4.037   4.351  0.6232  0.3578 -0.6474
 7566TIP3   OH222661   5.270   2.930   0.282 -0.2233  0.3188 -0.1851
 7566TIP3    H122662   5.239   2.839   0.289  0.1100  0.2011 -0.2192
 7566TIP3    H222663   5.252   2.955   0.191 -2.2200  0.9917  0.3361
 7567TIP3   OH222664   2.935   6.406   2.071 -0.3709 -0.0990  1.0552
 7567TIP3    H122665   2.893   6.409   1.985  1.1845 -1.5616  0.1824
 7567TIP3    H222666   2.924   6.495   2.105  0.0192  0.9039 -1.2092
 7568TIP3   OH222667   3.774   6.058   0.775  0.5123 -0.5287  0.1063
 7568TIP3    H122668   3.771   6.138   0.722  0.8404 -0.6851 -0.1517
 7568TIP3    H222669   3.753   6.087   0.864  2.2304  0.1230  0.3292
 7569TIP3   OH222670   2.805   5.201   0.278 -0.3428  0.3756  0.4948
 7569TIP3    H122671   2.753   5.166   0.350 -1.8500  0.7681 -0.3412
 7569TIP3    H222672   2.793   5.296   0.284 -0.4796  0.4158 -0.2422
 7570TIP3   OH222673   4.940   2.359   5.519 -0.0336 -0.0844  0.2893
 7570TIP3    H122674   4.926   2.352   5.424  1.9536  1.0355 -0.1323
 7570TIP3    H222675   4.967   2.272   5.546  1.1352  0.0153 -0.5162
 7571TIP3   OH222676   2.164   4.802   2.382  0.3237  0.1695  0.0569
 7571TIP3    H122677   2.243   4.770   2.424  0.2352  0.9772  0.8876
 7571TIP3    H222678   2.193   4.833   2.296  0.6790 -0.6587 -0.1247
 7572TIP3   OH222679   1.170   1.576   3.420 -0.0587 -0.0468 -0.6921
 7572TIP3    H122680   1.243   1.569   3.481  0.0694  1.2039 -0.6869
 7572TIP3    H222681   1.096   1.606   3.473 -0.3941 -0.5866 -0.8383
 7573TIP3   OH222682   2.742   6.542   1.908 -0.1832 -0.5011 -0.0822
 7573TIP3    H122683   2.691   6.617   1.939  0.9166  0.3878 -0.3489
 7573TIP3    H222684   2.701   6.517   1.825  0.2438  0.7061 -0.6883
 7574TIP3   OH222685   3.758   4.167   2.183  0.0759 -0.9895  0.1562
 7574TIP3    H122686   3.729   4.196   2.096 -1.5994 -0.2998  0.8879
 7574TIP3    H222687   3.851   4.187   2.186 -0.0431 -0.1443 -1.1372
 7575TIP3   OH222688   0.156   3.727   3.885  0.1308  0.3011 -0.2461
 7575TIP3    H122689   0.246   3.758   3.884 -0.2755  1.5143 -0.9382
 7575TIP3    H222690   0.145   3.683   3.800  0.4924 -1.1977  0.4419
 7576TIP3   OH222691   0.934   2.987   3.016  0.4593  0.4163 -0.1096
 7576TIP3    H122692   0.994   3.006   2.944  2.3289 -1.3815  0.8593
 7576TIP3    H222693   0.863   2.938   2.976  0.5868  0.9417 -1.0009
 7577TIP3   OH222694   4.769   1.440   1.960  0.8837 -0.4872 -0.5045
 7577TIP3    H122695   4.715   1.385   1.903  1.2405 -1.1244 -0.2436
 7577TIP3    H222696   4.795   1.514   1.904 -0.5447  0.0323 -0.5266
 7578TIP3   OH222697   6.802   3.002   0.248 -0.3759  0.3409 -0.2706
 7578TIP3    H122698   6.838   2.970   0.165  1.5732  1.6577  0.0004
 7578TIP3    H222699   6.878   3.008   0.306 -1.1824  2.3030  0.6527
 7579TIP3   OH222700   3.206   3.113   1.380 -0.0200  0.1658 -0.0957
 7579TIP3    H122701   3.257   3.191   1.356 -0.7651  0.5066 -0.6284
 7579TIP3    H222702   3.134   3.147   1.433 -1.2865  0.0915 -1.6803
 7580TIP3   OH222703   6.033   6.194   2.284  0.5870 -0.2356  0.1766
 7580TIP3    H122704   6.000   6.178   2.373 -1.0152 -1.3979 -0.5908
 7580TIP3    H222705   5.969   6.254   2.245  0.9677 -0.1924 -0.3931
 7581TIP3   OH222706   6.563   5.958   4.586  0.4542  0.0257 -0.4181
 7581TIP3    H122707   6.509   5.942   4.664  0.5440  1.7005  0.0405
 7581TIP3    H222708   6.508   5.931   4.513  0.5742 -2.1039  0.2105
 7582TIP3   OH222709   2.198   3.680   0.160  0.0204 -0.1193  0.0938
 7582TIP3    H122710   2.122   3.737   0.171  1.9923  2.6634  0.4319
 7582TIP3    H222711   2.253   3.698   0.236  0.6632 -2.7833  0.3646
 7583TIP3   OH222712   5.754   6.276   5.200 -0.1906 -0.5447  0.3312
 7583TIP3    H122713   5.786   6.366   5.194  0.2302 -0.7379 -0.4923
 7583TIP3    H222714   5.733   6.264   5.293  0.9917 -0.0283  0.6787
 7584TIP3   OH222715   4.513   2.593   2.364 -0.4066 -0.3817  0.1089
 7584TIP3    H122716   4.548   2.534   2.431  0.9606  0.3808  0.0989
 7584TIP3    H222717   4.423   2.611   2.393 -0.4495 -1.5119  0.7399
 7585TIP3   OH222718   5.105   0.979   2.948  0.0725  0.0568 -0.2884
 7585TIP3    H122719   5.082   0.967   2.856 -1.1255 -0.8931  0.1164
 7585TIP3    H222720   5.108   1.074   2.960 -1.9576  0.2307 -0.7953
 7586TIP3   OH222721   5.313   5.921   2.739 -0.3840 -0.0755 -0.3196
 7586TIP3    H122722   5.317   5.825   2.732 -2.3673 -0.1597 -0.7672
 7586TIP3    H222723   5.314   5.939   2.833  1.0451 -0.4355 -0.2351
 7587TIP3   OH222724   1.888   0.056   1.645 -0.6050 -0.1131 -0.4311
 7587TIP3    H122725   1.875   0.098   1.730 -0.9537 -1.7175  0.3530
 7587TIP3    H222726   1.802   0.020   1.622  0.0313 -1.9147 -0.1778
 7588TIP3   OH222727   3.011   1.863   2.112 -0.2738  0.6352  0.2673
 7588TIP3    H122728   3.075   1.841   2.180 -0.1665  0.6169  0.1606
 7588TIP3    H222729   3.046   1.823   2.033  0.1408  1.5430 -0.0179
 7589TIP3   OH222730   2.314   1.529   0.320 -0.0177  0.3429 -0.2519
 7589TIP3    H122731   2.267   1.517   0.237 -0.4538 -0.9658  0.1563
 7589TIP3    H222732   2.278   1.609   0.357 -0.7022  0.2830 -0.7582
 7590TIP3   OH222733   5.572   3.727   4.597 -0.1381 -0.2742  0.1812
 7590TIP3    H122734   5.488   3.681   4.586  0.1777 -0.9833  0.6620
 7590TIP3    H222735   5.633   3.658   4.621 -0.0112  0.6326  2.6621
 7591TIP3   OH222736   2.774   4.647   0.877  0.0247  0.1453 -0.7011
 7591TIP3    H122737   2.769   4.554   0.852 -1.2804  0.3629 -1.3175
 7591TIP3    H222738   2.688   4.667   0.913  0.6030  0.8939  0.2888
 7592TIP3   OH222739   7.170   1.290   2.068 -0.0473  0.3783  0.4776
 7592TIP3    H122740   7.203   1.264   1.982 -0.4759 -0.8573  0.6703
 7592TIP3    H222741   7.208   1.377   2.083  2.8944 -0.7925  0.5593
 7593TIP3   OH222742   3.412   5.953   5.258  0.4271  0.1402  0.2715
 7593TIP3    H122743   3.446   5.883   5.314  0.4006  1.2586  1.7751
 7593TIP3    H222744   3.488   5.982   5.208  0.1515 -1.8005 -1.3693
 7594TIP3   OH222745   5.879   1.667   3.095  0.1673  0.4478 -0.2046
 7594TIP3    H122746   5.884   1.579   3.056 -1.6770 -1.7856  3.9839
 7594TIP3    H222747   5.796   1.702   3.062 -1.5847 -1.5733  1.7305
 7595TIP3   OH222748   6.368   0.858   5.765  0.1644 -0.1217  0.4258
 7595TIP3    H122749   6.389   0.943   5.726 -0.1562  0.1493  0.8252
 7595TIP3    H222750   6.440   0.842   5.827 -0.6146  0.6680  1.5804
 7596TIP3   OH222751   6.571   4.065   0.544 -0.3065 -0.3729  0.1123
 7596TIP3    H122752   6.591   4.158   0.554 -2.2773 -0.0082  1.1754
 7596TIP3    H222753   6.641   4.031   0.489  0.9670  1.5396  0.4602
 7597TIP3   OH222754   7.171   5.181   0.330 -0.4874  0.5568 -0.3398
 7597TIP3    H122755   7.121   5.143   0.258  1.4080 -2.8814 -0.0408
 7597TIP3    H222756   7.105   5.199   0.398 -1.8323  0.5557 -1.5807
 7598TIP3   OH222757   4.585   3.355   3.714  0.2908 -0.3195 -0.3396
 7598TIP3    H122758   4.655   3.385   3.772 -0.7304 -0.6736  1.1347
 7598TIP3    H222759   4.573   3.263   3.737 -0.3952 -0.3611 -0.8413
 7599TIP3   OH222760   3.610   0.922   1.470 -0.0722 -0.5386  0.6585
 7599TIP3    H122761   3.526   0.879   1.451  0.4663 -1.3915  0.1067
 7599TIP3    H222762   3.643   0.948   1.384 -0.3468  0.9287  0.9842
 7600TIP3   OH222763   3.601   2.287   4.739 -0.2174 -0.6491 -0.4803
 7600TIP3    H122764   3.590   2.357   4.803  0.4787 -2.0113  1.2192
 7600TIP3    H222765   3.545   2.312   4.666 -0.1430  1.5478  0.1525
 7601TIP3   OH222766   2.887   2.352   0.971  0.1495  0.1298  0.2261
 7601TIP3    H122767   2.881   2.353   1.067  2.0367  3.0337  0.4615
 7601TIP3    H222768   2.836   2.428   0.943  0.0738 -0.3690 -1.0419
 7602TIP3   OH222769   3.020   4.603   5.669  0.3524 -0.0867 -0.1055
 7602TIP3    H122770   3.011   4.521   5.621 -0.9984 -0.4614  0.7426
 7602TIP3    H222771   3.055   4.577   5.754  0.6663  0.3129 -0.1116
 7603TIP3   OH222772   6.528   5.085   3.409 -0.3486 -0.1629  0.0465
 7603TIP3    H122773   6.520   4.990   3.406 -0.9076 -0.0882 -1.7513
 7603TIP3    H222774   6.566   5.109   3.325  0.0893  1.1930  0.6017
 7604TIP3   OH222775   3.570   5.555   4.688  0.0290 -0.0451  0.7670
 7604TIP3    H122776   3.522   5.638   4.692 -0.1179 -0.1456  1.0964
 7604TIP3    H222777   3.505   5.492   4.656  0.4637  0.2059 -0.6807
 7605TIP3   OH222778   0.656   5.055   3.962  0.1181  0.4031 -0.1811
 7605TIP3    H122779   0.691   5.109   3.892 -2.9415  0.6357 -1.7029
 7605TIP3    H222780   0.664   4.965   3.930  1.2317  0.2771  0.4235
 7606TIP3   OH222781   2.282   1.746   0.719 -0.2946  0.0168  0.2934
 7606TIP3    H122782   2.211   1.737   0.782  0.5296 -0.6367  1.1443
 7606TIP3    H222783   2.243   1.719   0.636 -1.3319  0.6831  0.5345
 7607TIP3   OH222784   2.485   3.028   2.789  0.4887 -0.3569 -0.2632
 7607TIP3    H122785   2.429   3.085   2.738 -0.1207  0.2976  1.0977
 7607TIP3    H222786   2.438   2.944   2.792 -0.7184  0.3215  1.2730
 7608TIP3   OH222787   0.855   4.055   3.196  0.0917  0.0215 -0.4596
 7608TIP3    H122788   0.795   4.067   3.270 -1.4520  1.2694 -1.8573
 7608TIP3    H222789   0.852   3.960   3.179 -1.7085  0.0709 -0.6417
 7609TIP3   OH222790   2.851   4.488   4.987 -0.1513 -0.0940  0.3785
 7609TIP3    H122791   2.807   4.404   4.975 -0.9313  0.3410  0.1378
 7609TIP3    H222792   2.866   4.494   5.082 -0.7352 -0.1950  0.4798
 7610TIP3   OH222793   5.553   0.690   4.400 -0.6078 -0.2788  0.1080
 7610TIP3    H122794   5.503   0.719   4.475 -0.0321 -1.4876  0.9976
 7610TIP3    H222795   5.496   0.625   4.357 -0.0820 -1.2114  0.7800
 7611TIP3   OH222796   2.370   5.764   0.521 -0.2019  0.4267  0.0961
 7611TIP3    H122797   2.303   5.774   0.589  0.2824 -0.8629  0.7864
 7611TIP3    H222798   2.342   5.824   0.452 -2.3705 -0.4232  0.1467
 7612TIP3   OH222799   1.182   3.423   2.049 -0.3645 -0.3098  0.1398
 7612TIP3    H122800   1.241   3.411   1.975 -0.6117 -0.8272  0.0171
 7612TIP3    H222801   1.156   3.334   2.073 -1.2154 -0.0829  0.0898
 7613TIP3   OH222802   5.757   6.682   0.532 -0.3663 -0.0013 -0.1157
 7613TIP3    H122803   5.804   6.763   0.551  0.8194 -1.0624  1.8537
 7613TIP3    H222804   5.819   6.628   0.484 -0.8964 -0.0419 -0.7738
 7614TIP3   OH222805   4.543   4.245   1.790  0.1523 -0.0199  0.1346
 7614TIP3    H122806   4.581   4.332   1.796  0.0621  0.0231  0.0753
 7614TIP3    H222807   4.549   4.222   1.697  1.8688 -0.8314  0.3849
 7615TIP3   OH222808   3.473   4.196   1.296  0.3260  0.2477  0.0971
 7615TIP3    H122809   3.515   4.198   1.210 -0.3660  1.6750 -0.2472
 7615TIP3    H222810   3.389   4.154   1.281  0.7226 -0.6566  0.3500
 7616TIP3   OH222811   0.105   3.708   1.421  0.4008 -0.1319  0.1974
 7616TIP3    H122812   0.198   3.726   1.405  0.7508 -1.6703  0.2790
 7616TIP3    H222813   0.091   3.621   1.382 -0.5908 -0.6316  1.5767
 7617TIP3   OH222814   0.508   6.676   5.825  0.6869  0.2935 -0.0347
 7617TIP3    H122815   0.434   6.717   5.781 -0.0761 -2.0906 -1.1117
 7617TIP3    H222816   0.579   6.681   5.761  0.2211 -1.1493 -0.6986
 7618TIP3   OH222817   1.771   2.566   3.829  0.0185  0.4987 -0.5527
 7618TIP3    H122818   1.840   2.625   3.799 -0.0394  0.2860 -1.1361
 7618TIP3    H222819   1.811   2.479   3.824 -0.2638  0.3819 -0.8303
 7619TIP3   OH222820   2.289   2.834   0.396 -0.1710 -0.0500 -0.0877
 7619TIP3    H122821   2.346   2.779   0.343 -1.0807 -0.2677 -0.8696
 7619TIP3    H222822   2.311   2.923   0.371  1.3024 -0.0215  1.1754
 7620TIP3   OH222823   2.138   2.757   5.572  0.0577 -0.4683  0.3149
 7620TIP3    H122824   2.048   2.789   5.580 -0.0022 -0.7715  0.9091
 7620TIP3    H222825   2.185   2.800   5.644  0.5958  0.3651 -0.5093
 7621TIP3   OH222826   0.181   3.570   5.503 -0.3435  0.0133  0.0415
 7621TIP3    H122827   0.139   3.654   5.523 -1.3745 -0.1775 -1.1753
 7621TIP3    H222828   0.263   3.594   5.458 -0.5524  0.3701 -0.1520
 7622TIP3   OH222829   0.454   4.141   1.712 -0.6700 -0.0627  0.2227
 7622TIP3    H122830   0.414   4.102   1.790  0.1272  1.3563  1.3834
 7622TIP3    H222831   0.426   4.232   1.713  0.0274  0.1772 -0.6897
 7623TIP3   OH222832   2.759   2.811   1.084  0.0988 -0.4923 -0.1151
 7623TIP3    H122833   2.763   2.899   1.121 -0.1908 -1.5213  2.5233
 7623TIP3    H222834   2.686   2.769   1.128 -0.4777 -1.7755 -2.1272
 7624TIP3   OH222835   3.166   0.188   5.536  0.3150  0.0649 -0.0669
 7624TIP3    H122836   3.156   0.277   5.502 -3.7907 -0.4102 -0.6148
 7624TIP3    H222837   3.211   0.140   5.466 -1.5544  0.7737 -1.8671
 7625TIP3   OH222838   0.131   4.325   1.108 -0.0348 -0.6434 -0.1578
 7625TIP3    H122839   0.202   4.266   1.135 -0.6668 -1.7592 -0.8391
 7625TIP3    H222840   0.099   4.363   1.190 -0.5176 -2.3237  0.4797
 7626TIP3   OH222841   2.672   3.104   2.586 -0.2975 -0.1825  1.0337
 7626TIP3    H122842   2.598   3.119   2.644 -0.0677 -0.5317  1.4297
 7626TIP3    H222843   2.710   3.190   2.572 -1.3227  0.1290  0.0700
 7627TIP3   OH222844   6.516   6.125   3.328  0.5237  0.0102  0.5868
 7627TIP3    H122845   6.491   6.119   3.235 -0.9993 -2.5155  1.0495
 7627TIP3    H222846   6.435   6.146   3.373  0.5064 -1.8839  1.5632
 7628TIP3   OH222847   0.642   3.409   3.385 -0.6248  0.1753  0.3549
 7628TIP3    H122848   0.618   3.322   3.415 -0.8222 -0.2299 -0.9217
 7628TIP3    H222849   0.720   3.396   3.331 -0.8873  0.7384 -0.1721
 7629TIP3   OH222850   4.111   5.177   2.070 -0.0357 -0.0569  0.4407
 7629TIP3    H122851   4.200   5.157   2.102 -0.3682  0.0240  1.4684
 7629TIP3    H222852   4.074   5.232   2.139 -1.0382 -0.4517  0.2232
 7630TIP3   OH222853   4.993   3.035   3.801  0.1172  0.1379  0.0579
 7630TIP3    H122854   4.946   3.082   3.733 -1.0648 -0.8437  0.1553
 7630TIP3    H222855   5.067   2.994   3.756  0.4798  1.1067 -0.2393
 7631TIP3   OH222856   1.423   3.737   0.087 -0.4632  0.1810  0.3675
 7631TIP3    H122857   1.406   3.699   0.001 -0.6616 -1.2937  1.0428
 7631TIP3    H222858   1.504   3.696   0.116 -1.0808 -0.3130  1.4380
 7632TIP3   OH222859   2.822   4.859   2.489  0.0849  0.3177 -0.0120
 7632TIP3    H122860   2.856   4.843   2.401  3.8483  0.1363  1.2717
 7632TIP3    H222861   2.819   4.955   2.496 -0.4782  0.3311 -0.4190
 7633TIP3   OH222862   4.845   5.951   0.492 -0.5151 -0.3104 -0.2259
 7633TIP3    H122863   4.920   6.001   0.459 -1.7927  1.3620 -0.7377
 7633TIP3    H222864   4.868   5.930   0.582  0.7345 -0.2098 -0.4901
 7634TIP3   OH222865   5.679   5.927   2.871 -0.2863 -0.3695  0.0679
 7634TIP3    H122866   5.694   5.932   2.776 -0.6293  0.0520  0.0309
 7634TIP3    H222867   5.589   5.895   2.879 -0.4886  0.2327  0.2407
 7635TIP3   OH222868   6.130   3.098   4.032  0.3911  0.2415 -0.5161
 7635TIP3    H122869   6.156   3.064   4.118 -0.6595 -1.6138 -0.8562
 7635TIP3    H222870   6.131   3.193   4.042  1.2224  0.0900  1.2523
 7636TIP3   OH222871   0.299   4.128   0.257 -0.9579  0.0164  0.2269
 7636TIP3    H122872   0.204   4.142   0.256 -1.0353 -0.4774  0.3004
 7636TIP3    H222873   0.310   4.043   0.300 -0.5688 -0.6195 -1.0793
 7637TIP3   OH222874   5.340   1.304   3.785 -0.6497 -0.2350 -0.1566
 7637TIP3    H122875   5.357   1.248   3.861 -1.8358  0.5256  0.7021
 7637TIP3    H222876   5.249   1.286   3.761 -0.9641  1.0923 -0.0483
 7638TIP3   OH222877   3.931   0.750   4.857 -0.1391  0.0898  0.1862
 7638TIP3    H122878   4.019   0.773   4.885 -0.5783  0.2188  1.5610
 7638TIP3    H222879   3.879   0.754   4.937 -1.2042 -0.9279 -0.4230
 7639TIP3   OH222880   1.384   2.606   3.271 -0.1281  0.6251  0.6736
 7639TIP3    H122881   1.443   2.550   3.222  0.1697  0.5835  1.0684
 7639TIP3    H222882   1.296   2.585   3.239  0.1110  1.0960 -0.3224
 7640TIP3   OH222883   0.897   5.220   3.019 -0.2336  0.4421  0.2805
 7640TIP3    H122884   0.850   5.245   3.099 -1.6502  1.5976 -0.8450
 7640TIP3    H222885   0.960   5.290   3.006  0.1437  0.1434  0.4951
 7641TIP3   OH222886   5.522   0.049   5.439 -0.1159 -0.4706 -0.0929
 7641TIP3    H122887   5.485   0.136   5.425  1.3379 -0.1061 -1.8757
 7641TIP3    H222888   5.450  -0.000   5.480 -1.7984  0.8499 -1.3158
 7642TIP3   OH222889   1.433   0.245   5.828 -0.8307  0.3212 -0.6205
 7642TIP3    H122890   1.348   0.270   5.790 -0.4385  2.7454 -0.0599
 7642TIP3    H222891   1.421   0.256   5.922  0.1632  0.8486 -0.5516
 7643TIP3   OH222892   6.633   1.050   3.874  0.0721  0.0061  0.5745
 7643TIP3    H122893   6.641   1.055   3.779 -0.9818  0.3188  0.4811
 7643TIP3    H222894   6.547   1.010   3.889  0.1189  0.1832  1.3900
 7644TIP3   OH222895   5.811   2.186   4.273 -0.1773  0.1550  0.3494
 7644TIP3    H122896   5.793   2.254   4.338  1.5389 -1.4020  2.5840
 7644TIP3    H222897   5.887   2.218   4.226 -0.9609  0.9328 -0.4373
 7645TIP3   OH222898   4.874   0.630   3.916 -0.7038  0.4132 -0.5112
 7645TIP3    H122899   4.861   0.650   4.009  0.4584  0.1175 -0.2705
 7645TIP3    H222900   4.795   0.663   3.874 -1.5369  0.0110  0.6599
 7646TIP3   OH222901   2.003   5.114   5.253  0.4951  0.2099 -0.4779
 7646TIP3    H122902   2.076   5.144   5.308  0.3946 -0.5143  0.0550
 7646TIP3    H222903   2.005   5.019   5.260 -0.9166  0.1954  0.0757
 7647TIP3   OH222904   2.113   4.208   5.596  0.8537 -0.0267 -0.2361
 7647TIP3    H122905   2.125   4.262   5.674  1.6546 -0.3875 -0.0908
 7647TIP3    H222906   2.102   4.119   5.630  1.2538 -0.1926 -0.5257
 7648TIP3   OH222907   5.941   6.733   0.026 -0.1006  0.6286  0.1338
 7648TIP3    H122908   5.922   6.647  -0.012 -0.4641  1.4087 -1.5277
 7648TIP3    H222909   6.037   6.734   0.035  0.0747  0.6890 -1.4914
 7649TIP3   OH222910   0.585   6.130   4.003 -0.3407 -0.4930  0.2498
 7649TIP3    H122911   0.569   6.214   3.959 -2.4380 -0.9698 -0.0492
 7649TIP3    H222912   0.577   6.065   3.933  0.2581 -1.0137  0.6552
 7650TIP3   OH222913   4.670   2.601   3.768 -0.4049  0.3196 -0.0816
 7650TIP3    H122914   4.658   2.538   3.697  0.4542  0.6901 -0.5687
 7650TIP3    H222915   4.660   2.549   3.848 -1.8857 -0.0042 -0.4499
 7651TIP3   OH222916   0.051   3.088   1.250 -0.6525 -1.0390  0.0079
 7651TIP3    H122917  -0.031   3.053   1.216 -0.2141 -2.0901 -0.0292
 7651TIP3    H222918   0.101   3.011   1.276  0.5461 -0.4706 -0.4935
 7652TIP3   OH222919   2.065   0.915   5.087  0.4170 -0.1115  1.1226
 7652TIP3    H122920   2.052   0.858   5.163  0.2335  1.4452  2.2933
 7652TIP3    H222921   1.997   0.981   5.094  1.8530  1.4594  0.9392
 7653TIP3   OH222922   6.354   1.107   4.361  0.4595 -0.0803  0.0329
 7653TIP3    H122923   6.300   1.140   4.289  0.2824  1.7256  0.9397
 7653TIP3    H222924   6.443   1.135   4.340  0.2685  1.2913  0.9410
 7654TIP3   OH222925   4.461   5.795   3.382 -0.2630  0.5857  0.1207
 7654TIP3    H122926   4.460   5.768   3.473 -0.1565  1.3564  0.3585
 7654TIP3    H222927   4.432   5.718   3.333  1.0962 -0.3125  0.6754
 7655TIP3   OH222928   2.214   2.460   5.515 -0.2091 -0.1653  0.6278
 7655TIP3    H122929   2.119   2.451   5.511 -0.1958  0.0293 -0.3150
 7655TIP3    H222930   2.228   2.547   5.552 -0.4399  0.6335 -1.0404
 7656TIP3   OH222931   1.514   2.322   2.814  0.1767 -0.1787  0.1839
 7656TIP3    H122932   1.543   2.277   2.735  0.8865  1.5685 -0.6216
 7656TIP3    H222933   1.448   2.384   2.783  1.2847  1.3406  0.7139
 7657TIP3   OH222934   6.498   4.465   1.403 -0.0158  0.1049 -0.0159
 7657TIP3    H122935   6.481   4.547   1.358 -0.5329  0.1122  0.1811
 7657TIP3    H222936   6.434   4.404   1.367 -0.3011  0.0581  0.5535
 7658TIP3   OH222937   3.897   2.217   3.927  0.1966  0.0398 -0.7700
 7658TIP3    H122938   3.904   2.162   4.005  3.4092  0.7256 -0.4084
 7658TIP3    H222939   3.958   2.177   3.864  3.0381  3.2297 -0.3360
 7659TIP3   OH222940   1.653   2.562   5.371 -0.5408  0.1241  0.1989
 7659TIP3    H122941   1.580   2.623   5.367 -0.2310  0.5187  0.4998
 7659TIP3    H222942   1.694   2.568   5.284 -0.9532 -0.2204 -0.0281
 7660TIP3   OH222943   6.706   1.236   2.148  0.9336  0.1917  0.4862
 7660TIP3    H122944   6.733   1.273   2.232 -2.1750 -1.6008  2.4537
 7660TIP3    H222945   6.709   1.142   2.162 -2.1920 -0.1396 -0.4059
 7661TIP3   OH222946   6.027   6.364   4.393 -0.0590 -0.3696  0.3530
 7661TIP3    H122947   5.981   6.386   4.312  1.2793  0.2222 -0.2829
 7661TIP3    H222948   5.992   6.278   4.418 -0.8156 -0.3598 -0.5951
 7662TIP3   OH222949   1.044   2.452   0.320 -0.1005  0.3397  0.0183
 7662TIP3    H122950   1.074   2.420   0.235  1.0265 -0.5267  0.7128
 7662TIP3    H222951   0.951   2.428   0.323  0.1080 -0.6005 -0.5384
 7663TIP3   OH222952   3.923   6.761   3.147  0.1442  0.2992 -0.2225
 7663TIP3    H122953   3.868   6.684   3.162  1.9655 -1.1374 -0.5939
 7663TIP3    H222954   3.954   6.752   3.057  0.5693  1.3413 -0.1932
 7664TIP3   OH222955   5.469   1.296   3.004  0.2384  0.2304 -0.3752
 7664TIP3    H122956   5.479   1.302   2.909 -1.7414 -0.5856 -0.6904
 7664TIP3    H222957   5.417   1.216   3.017 -0.4629  0.9278  1.3158
 7665TIP3   OH222958   5.146   3.848   5.587  0.1524  0.4060 -0.2755
 7665TIP3    H122959   5.124   3.789   5.659  0.4565  0.1859 -0.3581
 7665TIP3    H222960   5.108   3.808   5.509 -0.0035  0.5386 -0.2673
 7666TIP3   OH222961   2.772   3.038   1.846 -0.6294  0.0737 -0.2553
 7666TIP3    H122962   2.712   3.058   1.918  0.8616  1.3189  0.6949
 7666TIP3    H222963   2.773   2.943   1.842 -0.8388 -0.0185  1.2930
 7667TIP3   OH222964   5.559   5.593   1.981  0.2488 -0.1195 -0.2409
 7667TIP3    H122965   5.531   5.572   1.892  1.0091 -1.2321 -0.2453
 7667TIP3    H222966   5.606   5.515   2.010  1.6118  0.9152  0.4637
 7668TIP3   OH222967   6.703   0.696   1.886 -0.1409 -0.0356 -0.1654
 7668TIP3    H122968   6.775   0.716   1.946 -1.2057 -2.5376  2.1651
 7668TIP3    H222969   6.640   0.767   1.900 -0.3439 -0.5185  1.7604
 7669TIP3   OH222970   1.917   0.345   1.074 -0.0834 -0.0856 -0.1908
 7669TIP3    H122971   1.913   0.249   1.071  2.2440 -0.2219 -1.1573
 7669TIP3    H222972   1.999   0.364   1.118 -0.3232  1.4743 -0.3752
 7670TIP3   OH222973   4.904   4.230   2.262  0.5481 -0.3939  0.7421
 7670TIP3    H122974   4.986   4.243   2.309  0.6589  0.0643  0.4235
 7670TIP3    H222975   4.906   4.293   2.190 -0.2891 -0.0565  0.9952
 7671TIP3   OH222976   6.238   1.402   5.161  0.0029 -0.2654  0.3624
 7671TIP3    H122977   6.199   1.372   5.243  0.2145  1.3675  1.1023
 7671TIP3    H222978   6.304   1.466   5.188  0.7494 -0.3889 -1.0474
 7672TIP3   OH222979   4.459   1.309   0.995 -0.5620 -0.7013  0.4331
 7672TIP3    H122980   4.531   1.272   1.047 -0.9964  0.1328  1.6554
 7672TIP3    H222981   4.503   1.366   0.931 -0.0997 -0.6551  0.7863
 7673TIP3   OH222982   2.043   2.786   3.235 -0.3957 -0.3766 -0.5535
 7673TIP3    H122983   1.951   2.795   3.260 -0.5604  0.9315 -1.4798
 7673TIP3    H222984   2.090   2.841   3.297 -0.3179 -0.5149 -0.4904
 7674TIP3   OH222985   6.024   3.552   5.723  0.7582 -0.5715 -0.6085
 7674TIP3    H122986   5.937   3.516   5.743  0.2843  0.2523 -1.0997
 7674TIP3    H222987   6.084   3.479   5.737 -0.0862 -1.3322 -0.8505
 7675TIP3   OH222988   0.142   6.051   1.201 -0.0010  0.3633  0.3505
 7675TIP3    H122989   0.144   6.090   1.114 -1.9241 -0.2785 -0.0345
 7675TIP3    H222990   0.198   5.974   1.195  0.9381  1.0504  0.0883
 7676TIP3   OH222991   3.256   3.703   4.950 -0.1378  0.1456  0.1847
 7676TIP3    H122992   3.348   3.690   4.931  0.0334 -0.5276  1.3604
 7676TIP3    H222993   3.212   3.627   4.911  0.0138 -0.3732  0.9972
 7677TIP3   OH222994   2.067   2.090   0.153 -0.0106 -0.5569 -0.1555
 7677TIP3    H122995   2.022   2.041   0.084 -1.0130  0.3450 -0.1696
 7677TIP3    H222996   2.152   2.047   0.162 -1.2124 -2.9613  0.5543
 7678TIP3   OH222997   5.612   4.355   1.437  0.2971 -0.0389  0.5639
 7678TIP3    H122998   5.572   4.354   1.350  0.6281  0.6831  0.3994
 7678TIP3    H222999   5.549   4.310   1.493  0.2330 -0.8029 -0.1137
 7679TIP3   OH223000   6.161   4.781   4.887 -0.4464 -0.0732  0.6595
 7679TIP3    H123001   6.074   4.785   4.929 -0.4276 -1.1040  0.8325
 7679TIP3    H223002   6.145   4.736   4.804 -0.2233  0.5956  0.2438
 7680TIP3   OH223003   7.212   2.030   3.574  0.4671  0.4157 -0.3478
 7680TIP3    H123004   7.122   2.064   3.571  0.4137  0.5421  1.4990
 7680TIP3    H223005   7.249   2.068   3.654  1.0667 -2.2366  0.7214
 7681TIP3   OH223006   3.764   0.704   3.844 -0.1344 -0.1158  0.2037
 7681TIP3    H123007   3.677   0.731   3.817 -0.3484  0.0011  0.9857
 7681TIP3    H223008   3.819   0.780   3.827 -0.6685  0.7540  2.0557
 7682TIP3   OH223009   4.906   2.961   0.746 -0.1101 -0.1143  0.5230
 7682TIP3    H123010   4.814   2.987   0.747 -0.2486 -0.5838  2.3122
 7682TIP3    H223011   4.917   2.915   0.663 -1.7535 -0.9821  0.7604
 7683TIP3   OH223012   0.517   6.511   0.695  0.0501 -0.0990 -0.6317
 7683TIP3    H123013   0.437   6.463   0.719  0.4019  0.0297  0.9092
 7683TIP3    H223014   0.582   6.482   0.759  1.2948 -0.2727 -1.9298
 7684TIP3   OH223015   0.828   2.317   1.746  0.0998  0.2384 -0.2033
 7684TIP3    H123016   0.810   2.235   1.793 -0.4212 -1.0502 -2.4961
 7684TIP3    H223017   0.745   2.339   1.704  0.2926  1.8820  0.2373
 7685TIP3   OH223018   2.675   3.021   0.871  1.1276 -0.2881  0.2184
 7685TIP3    H123019   2.593   3.005   0.824  0.1288 -1.5191  2.2432
 7685TIP3    H223020   2.724   2.939   0.863  1.6553  0.0402  0.0137
 7686TIP3   OH223021   4.600   1.214   4.826 -0.3929 -0.1631 -0.7930
 7686TIP3    H123022   4.536   1.275   4.861  0.7819  0.0461  1.0844
 7686TIP3    H223023   4.644   1.262   4.756  0.0836  0.9419  0.2375
 7687TIP3   OH223024   5.385   5.839   4.590 -0.4734  0.2427 -0.2064
 7687TIP3    H123025   5.296   5.804   4.585 -0.3065 -0.0167 -2.2447
 7687TIP3    H223026   5.440   5.771   4.551  0.5273  0.7178  0.3392
 7688TIP3   OH223027   7.114   1.859   2.357  0.2043  0.0676  0.2424
 7688TIP3    H123028   7.085   1.877   2.267  1.3717 -1.1778 -0.4125
 7688TIP3    H223029   7.128   1.765   2.359  0.6647  0.1522  1.6066
 7689TIP3   OH223030   1.925   1.700   0.708 -0.0251  0.1986 -0.4558
 7689TIP3    H123031   1.845   1.648   0.710 -1.3021  2.1183  0.4489
 7689TIP3    H223032   1.980   1.662   0.777 -1.5816  0.9544  1.2785
 7690TIP3   OH223033   6.345   5.340   5.328  0.0564 -0.2698 -1.2276
 7690TIP3    H123034   6.356   5.263   5.272  1.4238 -1.4719  0.5720
 7690TIP3    H223035   6.418   5.336   5.390 -1.3337  1.0036  0.6278
 7691TIP3   OH223036   2.894   3.339   0.541 -0.8516  0.0247 -0.1180
 7691TIP3    H123037   2.855   3.257   0.568 -0.3367 -0.6523 -1.3195
 7691TIP3    H223038   2.898   3.392   0.620 -1.9709 -0.7859  0.4970
 7692TIP3   OH223039   0.842   5.708   1.298 -0.1897 -0.1223 -0.5240
 7692TIP3    H123040   0.770   5.738   1.354 -0.5192 -0.4133 -0.7837
 7692TIP3    H223041   0.907   5.672   1.359 -0.2670  0.1387 -0.2881
 7693TIP3   OH223042   2.562   0.763   4.108 -0.2219  0.2441 -0.3311
 7693TIP3    H123043   2.549   0.852   4.073 -0.5001 -0.4285 -2.0327
 7693TIP3    H223044   2.591   0.712   4.033  0.8902 -0.9170  0.8419
 7694TIP3   OH223045   5.505   4.570   0.007 -0.1189  0.0782  0.6856
 7694TIP3    H123046   5.564   4.643  -0.007  0.5430 -0.5655  0.0781
 7694TIP3    H223047   5.422   4.611   0.034  0.1215  1.0642 -0.0205
 7695TIP3   OH223048   0.709   2.095   5.132  0.2631  0.1191 -0.8815
 7695TIP3    H123049   0.627   2.139   5.155 -0.5917 -2.3947  1.5363
 7695TIP3    H223050   0.778   2.148   5.173 -0.5533  0.2562  0.3660
 7696TIP3   OH223051   2.506   1.159   0.701 -0.3772 -0.1698  0.4186
 7696TIP3    H123052   2.520   1.205   0.619  1.4522 -1.6441 -0.1679
 7696TIP3    H223053   2.594   1.141   0.734 -1.0195  1.2466  3.2701
 7697TIP3   OH223054   4.919   1.730   2.031 -0.3288  0.2703 -0.0570
 7697TIP3    H123055   4.942   1.743   1.939  1.2967  1.8296  0.5142
 7697TIP3    H223056   4.848   1.793   2.047  0.2409  0.8912  0.0532
 7698TIP3   OH223057   3.392   6.529   2.917 -0.1285  0.1511 -0.4442
 7698TIP3    H123058   3.354   6.559   2.834 -1.2268 -2.0852 -0.8252
 7698TIP3    H223059   3.334   6.563   2.984  0.6470  1.7994 -0.5696
 7699TIP3   OH223060   6.757   0.614   2.615 -0.5064 -0.3942  0.0047
 7699TIP3    H123061   6.763   0.672   2.540  0.3414 -0.0865  0.3088
 7699TIP3    H223062   6.674   0.638   2.657  0.0191  0.8751  0.3542
 7700TIP3   OH223063   0.407   5.875   3.032  0.6059  0.7244  0.6803
 7700TIP3    H123064   0.402   5.888   2.937  1.9831  1.1797  0.6580
 7700TIP3    H223065   0.435   5.784   3.042  0.7859  0.7777  0.6522
 7701TIP3   OH223066   4.934   6.318   4.746  0.0466  0.2864 -0.1396
 7701TIP3    H123067   5.016   6.278   4.716  0.1005 -0.3677  0.8470
 7701TIP3    H223068   4.962   6.400   4.788 -0.1125  1.7486 -2.6720
 7702TIP3   OH223069   4.988   4.895   4.917  0.0660 -0.3561  0.3034
 7702TIP3    H123070   4.931   4.967   4.944  2.4335  1.0547  1.8267
 7702TIP3    H223071   5.006   4.846   4.997  1.2869 -0.5449 -0.0636
 7703TIP3   OH223072   2.415   1.393   2.754  0.6815 -0.3319 -0.2747
 7703TIP3    H123073   2.507   1.419   2.753  0.5473  0.3273  1.5500
 7703TIP3    H223074   2.377   1.440   2.828 -1.0069 -1.0350 -0.6428
 7704TIP3   OH223075   5.987   0.211   1.571  0.2744 -0.4842 -0.0323
 7704TIP3    H123076   6.034   0.177   1.647  1.9218 -0.7066 -1.1001
 7704TIP3    H223077   5.895   0.192   1.589  0.6517 -0.7662  1.7651
 7705TIP3   OH223078   2.004   6.676   0.799 -0.3242  0.0128 -0.1134
 7705TIP3    H123079   2.021   6.680   0.705 -0.2376  0.9407 -0.0643
 7705TIP3    H223080   1.915   6.710   0.809  0.0717  0.9559  0.2476
 7706TIP3   OH223081   4.659   0.029   2.548 -0.1587  0.3501  0.2697
 7706TIP3    H123082   4.662   0.044   2.642  0.9033  0.9497  0.1498
 7706TIP3    H223083   4.745  -0.008   2.526  0.2583  1.8141 -0.7091
 7707TIP3   OH223084   1.938   5.194   4.293 -0.3316  0.7506 -0.4478
 7707TIP3    H123085   1.957   5.197   4.387 -0.2736 -1.8360 -0.3118
 7707TIP3    H223086   2.024   5.204   4.251  0.2274 -1.6661 -0.0603
 7708TIP3   OH223087   1.320   1.984   4.308  0.5083  0.6796 -0.2569
 7708TIP3    H123088   1.308   2.021   4.395  1.9384 -0.0065  0.2719
 7708TIP3    H223089   1.293   2.054   4.248 -0.8816  1.0099  0.7178
 7709TIP3   OH223090   2.037   1.912   3.351  0.4121 -0.3722 -0.7906
 7709TIP3    H123091   2.132   1.921   3.352  0.3872 -0.1576 -0.5039
 7709TIP3    H223092   2.006   1.991   3.306  0.1799  1.1946  1.9316
 7710TIP3   OH223093   4.377   5.577   0.357 -0.2310 -0.5132 -0.1026
 7710TIP3    H123094   4.360   5.623   0.274  1.5750  1.6906  0.6255
 7710TIP3    H223095   4.443   5.511   0.334  3.0738  2.4123 -0.0384
 7711TIP3   OH223096   6.509   4.369   0.070 -0.1292  0.2708 -0.3534
 7711TIP3    H123097   6.442   4.436   0.052  0.0029  0.5280  0.0863
 7711TIP3    H223098   6.505   4.310  -0.005 -0.8796  0.2619 -0.3200
 7712TIP3   OH223099   3.188   2.363   5.881 -0.0793 -0.1001  0.2540
 7712TIP3    H123100   3.162   2.455   5.886 -3.3423 -0.8826 -0.3039
 7712TIP3    H223101   3.218   2.351   5.791  0.0501  0.3264  0.2388
 7713TIP3   OH223102   2.776   5.241   0.008  0.3151 -0.6272  0.7368
 7713TIP3    H123103   2.749   5.167  -0.045 -4.3242  1.2003  0.1248
 7713TIP3    H223104   2.776   5.207   0.098 -0.0173 -1.7474  0.3314
 7714TIP3   OH223105   6.301   1.065   0.474  0.0368 -0.7283 -0.1124
 7714TIP3    H123106   6.284   1.159   0.480 -0.8178 -0.6497 -2.4791
 7714TIP3    H223107   6.393   1.059   0.448  0.3009 -0.5880  0.7789
 7715TIP3   OH223108   4.818   2.442   5.760 -0.1523 -0.2515 -0.2037
 7715TIP3    H123109   4.853   2.382   5.826  1.1315  0.1642 -0.4848
 7715TIP3    H223110   4.848   2.406   5.677  1.5365  1.3128 -0.3272
 7716TIP3   OH223111   6.482   2.659   0.744 -0.2760  0.1425  0.0699
 7716TIP3    H123112   6.454   2.639   0.655  1.4674 -1.4902 -0.1816
 7716TIP3    H223113   6.506   2.751   0.742 -0.8415  0.2850 -0.9632
 7717TIP3   OH223114   7.065   0.824   3.377  0.4044  0.7126 -1.0375
 7717TIP3    H123115   7.069   0.839   3.282 -1.4016 -3.1601 -1.9577
 7717TIP3    H223116   6.973   0.804   3.394  1.2253 -2.0825  0.8054
 7718TIP3   OH223117   0.478   6.187   4.549  0.4762  0.8923 -0.2514
 7718TIP3    H123118   0.444   6.185   4.638 -0.5398  1.0689 -0.6207
 7718TIP3    H223119   0.536   6.111   4.543 -2.2832 -1.3626 -0.5258
 7719TIP3   OH223120   6.517   2.092   3.613  0.5894  0.3213 -0.0902
 7719TIP3    H123121   6.423   2.105   3.596  0.2549 -0.7256  0.7671
 7719TIP3    H223122   6.529   1.997   3.607  1.5151  0.4084  0.2174
 7720TIP3   OH223123   0.105   4.495   1.795  0.1719  0.3167  0.3825
 7720TIP3    H123124   0.017   4.506   1.760  0.7811 -2.0343 -2.2751
 7720TIP3    H223125   0.152   4.574   1.768  0.2387 -0.7884 -3.2703
 7721TIP3   OH223126   0.711   5.881   5.544  0.3281  0.0688  0.6893
 7721TIP3    H123127   0.797   5.868   5.505 -0.2193 -0.0906 -0.5161
 7721TIP3    H223128   0.708   5.975   5.565  1.1474 -0.1032  1.6735
 7722TIP3   OH223129   0.998   5.111   4.452  0.1999  0.2900  0.2561
 7722TIP3    H123130   0.920   5.133   4.401  0.4664  1.0635  0.1715
 7722TIP3    H223131   1.071   5.121   4.391  0.4933  0.9452  0.6999
 7723TIP3   OH223132   0.183   3.292   4.082  0.1230 -0.5595 -0.1388
 7723TIP3    H123133   0.192   3.388   4.083  1.0078 -0.6348 -0.3083
 7723TIP3    H223134   0.089   3.278   4.077 -0.1252  0.2896  1.4036
 7724TIP3   OH223135   5.869   2.312   5.657 -0.0454  0.4485  0.2081
 7724TIP3    H123136   5.793   2.359   5.620 -1.6647 -1.7681  0.5058
 7724TIP3    H223137   5.912   2.272   5.581 -1.9559 -2.0865  0.3242
 7725TIP3   OH223138   3.312   5.629   2.353 -0.0683 -0.2992  0.5293
 7725TIP3    H123139   3.338   5.541   2.327 -1.8257 -0.6495 -0.1846
 7725TIP3    H223140   3.277   5.619   2.441  0.6210 -0.1423  0.8206
 7726TIP3   OH223141   2.053   4.946   4.040  0.0344  0.0769 -0.2021
 7726TIP3    H123142   2.112   5.021   4.037  1.4480 -1.0229 -3.2422
 7726TIP3    H223143   2.083   4.896   4.116  1.3143  0.8239 -0.1841
 7727TIP3   OH223144   6.673   1.192   3.603 -0.0205 -0.1789  0.1612
 7727TIP3    H123145   6.685   1.260   3.538 -0.0964 -0.2592  0.0632
 7727TIP3    H223146   6.653   1.239   3.684  0.8313 -0.0462  0.3025
 7728TIP3   OH223147   1.510   3.289   0.652 -0.5758 -0.0829 -0.3509
 7728TIP3    H123148   1.468   3.295   0.738 -0.5075 -0.7617 -0.2674
 7728TIP3    H223149   1.560   3.371   0.644 -0.3551 -0.1404  0.3769
 7729TIP3   OH223150   3.813   0.835   1.265 -0.3325 -0.1585  0.1215
 7729TIP3    H123151   3.750   0.764   1.272  0.6898 -1.1347 -0.2972
 7729TIP3    H223152   3.841   0.833   1.173  0.2400  0.3117  0.2787
 7730TIP3   OH223153   5.678   2.878   2.176  0.3965 -0.3054  0.0183
 7730TIP3    H123154   5.735   2.816   2.222 -0.7940 -0.5213  1.2790
 7730TIP3    H223155   5.738   2.933   2.126  1.5485 -1.8521 -0.3792
 7731TIP3   OH223156   0.609   5.576   3.328 -0.3225  0.2070  0.7995
 7731TIP3    H123157   0.589   5.571   3.235  0.7306  0.2976  0.5613
 7731TIP3    H223158   0.548   5.641   3.362  0.1542  1.1190 -0.0626
 7732TIP3   OH223159   4.780   5.360   2.181 -0.1365  0.4908  0.1151
 7732TIP3    H123160   4.873   5.336   2.173 -0.5782 -1.8345  1.1267
 7732TIP3    H223161   4.740   5.326   2.102 -0.4136 -0.1273  0.5182
 7733TIP3   OH223162   2.733   1.452   0.001 -0.0848 -0.4488 -0.2555
 7733TIP3    H123163   2.680   1.448   0.081  0.0797 -1.2307 -0.1792
 7733TIP3    H223164   2.691   1.389  -0.058 -1.2347  1.3218 -1.4354
 7734TIP3   OH223165   1.980   2.627   4.237  0.4730 -0.0714  0.3066
 7734TIP3    H123166   1.991   2.701   4.178 -0.1602  0.4203  0.7794
 7734TIP3    H223167   2.069   2.596   4.254  0.6946  0.1362 -0.4523
 7735TIP3   OH223168   0.125   3.688   2.958 -0.2233 -0.2776 -0.4734
 7735TIP3    H123169   0.155   3.663   2.871  0.0453 -1.2178 -0.1258
 7735TIP3    H223170   0.030   3.687   2.952 -0.2476 -2.3111 -0.2476
 7736TIP3   OH223171   5.561   5.624   2.902 -0.0534  0.4598  0.0583
 7736TIP3    H123172   5.571   5.585   2.989 -2.1298 -2.0469 -0.6901
 7736TIP3    H223173   5.483   5.679   2.909  0.0313  0.5997 -0.1088
 7737TIP3   OH223174   7.224   5.662   4.079 -0.2260  0.2433  0.0239
 7737TIP3    H123175   7.232   5.616   4.163 -2.6646  1.8511  1.2640
 7737TIP3    H223176   7.129   5.676   4.069  0.0520  0.7003 -2.7006
 7738TIP3   OH223177   1.732   2.131   1.710 -0.3402  0.1182  0.0230
 7738TIP3    H123178   1.771   2.218   1.706  1.6017 -0.6434  0.7872
 7738TIP3    H223179   1.655   2.142   1.766 -0.6565  1.4960 -0.6388
 7739TIP3   OH223180   5.623   6.623   0.273 -0.3463  0.5557  0.0598
 7739TIP3    H123181   5.640   6.670   0.355  1.5013 -0.3179  0.2251
 7739TIP3    H223182   5.640   6.688   0.204 -0.4995  0.8877  0.3334
 7740TIP3   OH223183   1.944   5.103   1.763 -0.3311 -0.1568 -0.1413
 7740TIP3    H123184   1.852   5.117   1.784 -0.2316  3.3209 -1.2840
 7740TIP3    H223185   1.984   5.075   1.846 -2.1546 -0.2341  0.7512
 7741TIP3   OH223186   6.817   5.563   5.045 -0.1441  0.1418  0.2878
 7741TIP3    H123187   6.884   5.505   5.007 -1.7697 -0.4678 -1.8870
 7741TIP3    H223188   6.808   5.534   5.135  1.3062 -0.8933  0.1323
 7742TIP3   OH223189   3.943   2.610   2.496 -0.2266  0.4222  0.0444
 7742TIP3    H123190   3.977   2.558   2.423 -1.0257 -1.4487  0.9562
 7742TIP3    H223191   4.009   2.678   2.510  1.3641 -0.9458 -0.5332
 7743TIP3   OH223192   6.861   0.640   5.397  0.4179 -0.5081 -0.1401
 7743TIP3    H123193   6.848   0.594   5.315  1.7996 -0.5420 -0.3515
 7743TIP3    H223194   6.936   0.697   5.382  0.5745 -0.3760  1.0385
 7744TIP3   OH223195   4.711   3.069   4.604 -0.6831 -0.0273  0.3176
 7744TIP3    H123196   4.665   3.018   4.537 -0.3775 -1.0128  0.8412
 7744TIP3    H223197   4.710   3.012   4.681 -1.2166  1.1684  1.2249
 7745TIP3   OH223198   0.011   3.029   3.090  0.0518  0.5608  0.0858
 7745TIP3    H123199   0.054   3.064   3.012 -0.6064  0.8799 -0.1461
 7745TIP3    H223200   0.012   3.103   3.152 -1.7924  1.2175 -0.5826
 7746TIP3   OH223201   1.146   2.038   0.408  0.2202 -0.0327 -0.3815
 7746TIP3    H123202   1.119   2.030   0.317 -0.8430 -1.1058  0.0058
 7746TIP3    H223203   1.070   2.012   0.459  1.0113 -0.1204  0.8133
 7747TIP3   OH223204   6.928   4.758   1.905 -0.1947 -0.3879 -0.1328
 7747TIP3    H123205   6.855   4.806   1.866  1.9717  2.4557 -0.9778
 7747TIP3    H223206   6.900   4.739   1.995 -2.3031 -0.2859 -0.7219
 7748TIP3   OH223207   3.913   3.271   2.922 -0.2677  0.2986 -0.1277
 7748TIP3    H123208   3.906   3.188   2.875 -2.1526  0.2035  0.2328
 7748TIP3    H223209   3.980   3.255   2.988  0.3921 -0.4769 -0.9547
 7749TIP3   OH223210   6.125   3.279   0.815 -0.0939 -0.7824  0.0995
 7749TIP3    H123211   6.159   3.215   0.751  0.9880  0.9775 -1.1727
 7749TIP3    H223212   6.046   3.314   0.774 -0.4582 -1.0141  0.6051
 7750TIP3   OH223213   6.132   5.069   2.017  0.0880  0.0646  0.3771
 7750TIP3    H123214   6.156   5.057   2.109 -0.1904  0.0889  0.4535
 7750TIP3    H223215   6.054   5.124   2.019  0.4701  0.6273  0.0913
 7751TIP3   OH223216   2.777   4.947   4.620 -0.1697 -0.2879  0.3700
 7751TIP3    H123217   2.797   5.039   4.636  0.2937 -0.5531  1.3627
 7751TIP3    H223218   2.686   4.937   4.649 -1.0336  0.3552 -1.8832
 7752TIP3   OH223219   5.361   5.109   4.071  0.3641 -0.5405  0.4387
 7752TIP3    H123220   5.379   5.151   4.155  0.8532  1.9345 -0.8104
 7752TIP3    H223221   5.380   5.016   4.086 -0.5556 -0.3480  3.2906
 7753TIP3   OH223222   4.173   1.622   3.101  0.1011  0.0493 -0.0067
 7753TIP3    H123223   4.207   1.703   3.139  1.1974  0.5098 -1.7967
 7753TIP3    H223224   4.177   1.637   3.006 -1.8073 -1.2782 -0.3589
 7754TIP3   OH223225   1.974   1.819   4.721  0.1967 -0.4372 -0.2125
 7754TIP3    H123226   2.055   1.858   4.752 -1.2041  0.6472  2.4245
 7754TIP3    H223227   1.970   1.843   4.628  2.5375  0.0107 -0.2623
 7755TIP3   OH223228   2.672   0.544   5.175 -0.1296 -0.1045 -0.2834
 7755TIP3    H123229   2.628   0.467   5.214  0.1269 -0.6488 -1.0508
 7755TIP3    H223230   2.731   0.574   5.243  0.0927 -0.8637 -0.1291
 7756TIP3   OH223231   2.814   4.770   2.927 -0.3298 -0.7947 -0.1914
 7756TIP3    H123232   2.838   4.789   3.017  0.6883  2.0496 -0.9772
 7756TIP3    H223233   2.898   4.758   2.882 -0.4641  2.4764 -1.5978
 7757TIP3   OH223234   4.042   4.314   0.734 -0.4145  0.2651  0.2513
 7757TIP3    H123235   4.083   4.327   0.820 -0.2286 -0.2084  0.2387
 7757TIP3    H223236   4.116   4.312   0.673 -0.2088 -2.7418  0.4616
 7758TIP3   OH223237   0.298   1.971   3.814  0.7417  0.0859  0.2982
 7758TIP3    H123238   0.390   1.992   3.799  0.1171  2.9829 -0.0019
 7758TIP3    H223239   0.262   2.050   3.853 -2.1343 -0.1290 -1.6814
 7759TIP3   OH223240   3.193   6.313   2.903 -0.0262 -0.0049  0.1066
 7759TIP3    H123241   3.269   6.370   2.895 -1.0944  1.3301 -1.0552
 7759TIP3    H223242   3.159   6.329   2.991  0.3159  0.3229  0.1790
 7760TIP3   OH223243   1.150   4.095   2.000 -0.3617  0.1281  0.2283
 7760TIP3    H123244   1.106   4.154   2.061 -0.0283  0.1043  0.4935
 7760TIP3    H223245   1.084   4.076   1.933 -0.3299  1.1776 -0.1238
 7761TIP3   OH223246   0.171   3.423   2.006 -0.8966  0.0539 -0.5915
 7761TIP3    H123247   0.185   3.510   2.042 -0.4406 -0.4108  0.3817
 7761TIP3    H223248   0.101   3.385   2.059 -0.8199 -0.3208 -0.7493
 7762TIP3   OH223249   0.355   4.484   5.830  1.1562 -0.3603 -0.3764
 7762TIP3    H123250   0.366   4.556   5.891 -0.0091  1.0074 -1.6954
 7762TIP3    H223251   0.423   4.497   5.764  0.0862  0.4171 -1.3806
 7763TIP3   OH223252   4.195   2.528   3.481  0.2684  0.4257  0.4285
 7763TIP3    H123253   4.119   2.542   3.426  0.0598  0.4169  0.7118
 7763TIP3    H223254   4.243   2.611   3.478  1.4895 -0.2850 -1.6161
 7764TIP3   OH223255   2.338   5.254   1.944  0.4359  0.1129  0.0483
 7764TIP3    H123256   2.308   5.163   1.946  0.1483  0.2249  1.2570
 7764TIP3    H223257   2.321   5.283   1.854  0.0410 -0.8573 -0.2003
 7765TIP3   OH223258   4.090   1.455   1.888 -0.0232 -0.6615 -0.0717
 7765TIP3    H123259   4.181   1.459   1.916  0.6631 -0.4036 -2.1463
 7765TIP3    H223260   4.042   1.502   1.956  1.4235 -0.5364  0.9110
 7766TIP3   OH223261   4.877   5.831   3.476  0.5274  0.2128  0.0128
 7766TIP3    H123262   4.799   5.782   3.451  0.1309  1.1519 -0.6600
 7766TIP3    H223263   4.869   5.845   3.570 -0.7802  1.3937 -0.2444
 7767TIP3   OH223264   2.655   5.604   3.978 -0.1451  0.3415 -0.1484
 7767TIP3    H123265   2.692   5.537   4.034 -0.1532 -0.2478 -0.8447
 7767TIP3    H223266   2.726   5.628   3.918 -0.5040  0.0868 -0.6819
 7768TIP3   OH223267   0.340   4.700   3.231 -0.0707 -0.4288  0.0786
 7768TIP3    H123268   0.354   4.618   3.184  0.5390 -1.5159  2.0312
 7768TIP3    H223269   0.422   4.717   3.277 -0.2234  1.2337 -0.1763
 7769TIP3   OH223270   0.579   0.302   1.920  0.8347  0.1335 -0.0527
 7769TIP3    H123271   0.531   0.384   1.905  0.6679  0.0314 -0.0825
 7769TIP3    H223272   0.527   0.236   1.874  0.3320 -0.1822  0.9515
 7770TIP3   OH223273   1.621   4.411   4.355  0.5838  0.1239  0.4185
 7770TIP3    H123274   1.711   4.428   4.325  1.0995 -1.9536  0.6236
 7770TIP3    H223275   1.571   4.486   4.323  2.0638  0.4841 -1.2696
 7771TIP3   OH223276   1.851   3.426   0.517 -0.7548 -0.3978 -0.5165
 7771TIP3    H123277   1.833   3.471   0.600 -0.7951  0.4150 -0.9552
 7771TIP3    H223278   1.839   3.494   0.450  2.9648  0.0008 -0.9557
 7772TIP3   OH223279   4.823   0.440   4.820  1.0204 -0.5140 -0.7389
 7772TIP3    H123280   4.889   0.437   4.751  0.4716 -0.0958 -1.2922
 7772TIP3    H223281   4.750   0.489   4.781  0.3074 -1.1409 -0.2089
 7773TIP3   OH223282   2.316   6.318   3.316  0.5278  0.1060  0.4633
 7773TIP3    H123283   2.234   6.269   3.327  0.8503 -0.6920 -0.5202
 7773TIP3    H223284   2.340   6.345   3.405 -1.0675  0.8181  0.7089
 7774TIP3   OH223285   4.531   3.941   2.458  0.0711  0.2946 -0.1061
 7774TIP3    H123286   4.475   3.894   2.396  0.0386  0.0596  0.0972
 7774TIP3    H223287   4.555   3.875   2.523 -1.6026  1.0080  1.3169
 7775TIP3   OH223288   1.836   5.214   2.716  0.3385  0.2368 -0.3475
 7775TIP3    H123289   1.804   5.154   2.649 -1.7215 -0.4985  1.1735
 7775TIP3    H223290   1.777   5.290   2.711 -1.3652 -0.7967  2.0055
 7776TIP3   OH223291   3.483   2.185   0.186 -0.7146  0.1993  0.0845
 7776TIP3    H123292   3.530   2.267   0.203 -1.0530  0.6926 -1.1638
 7776TIP3    H223293   3.417   2.210   0.121 -1.3312 -0.9133  0.2648
 7777TIP3   OH223294   5.419   1.913   0.932  0.0137  0.3324  0.6335
 7777TIP3    H123295   5.351   1.847   0.949  0.5835  0.0360  1.8737
 7777TIP3    H223296   5.425   1.917   0.837 -1.2762 -0.1168  0.5121
 7778TIP3   OH223297   5.686   6.076   4.529 -0.3380 -0.0486  0.3022
 7778TIP3    H123298   5.602   6.079   4.484  0.3442 -0.1359 -1.0299
 7778TIP3    H223299   5.696   5.985   4.556 -0.6981 -0.0215  0.5352
 7779TIP3   OH223300   5.140   3.161   3.379  1.2752  0.0817 -0.8920
 7779TIP3    H123301   5.073   3.169   3.311  1.5653  1.3601 -1.0552
 7779TIP3    H223302   5.146   3.067   3.396 -0.6692 -0.0633 -0.7545
 7780TIP3   OH223303   2.749   6.744   4.712  0.7090  0.4641 -0.1150
 7780TIP3    H123304   2.717   6.834   4.706 -0.8789 -0.1100 -0.7396
 7780TIP3    H223305   2.706   6.708   4.789  2.4122  0.6173  0.9510
 7781TIP3   OH223306   3.858   5.676   5.187 -0.0900  0.1597 -0.0598
 7781TIP3    H123307   3.881   5.761   5.149 -2.1395 -0.5980 -3.5356
 7781TIP3    H223308   3.790   5.642   5.128  0.1029 -3.5791  1.6087
 7782TIP3   OH223309   1.231   5.040   4.570  0.1313  0.1921  0.0538
 7782TIP3    H123310   1.246   5.133   4.584  0.9295  0.0982 -0.1399
 7782TIP3    H223311   1.150   5.037   4.519 -0.7380  0.6972  1.3648
 7783TIP3   OH223312   3.093   4.520   4.371  0.2257  0.3018  0.4828
 7783TIP3    H123313   3.172   4.557   4.410  2.6611 -0.8274 -2.8982
 7783TIP3    H223314   3.085   4.433   4.410  0.8880  0.2874  0.5946
 7784TIP3   OH223315   3.405   2.771   3.281 -0.2700  0.6867  0.1642
 7784TIP3    H123316   3.387   2.852   3.330 -0.5252  0.5129  0.3596
 7784TIP3    H223317   3.343   2.708   3.316 -1.7244  1.0412 -1.6205
 7785TIP3   OH223318   2.536   0.628   1.435  0.2313 -0.7291  0.2416
 7785TIP3    H123319   2.494   0.680   1.366 -0.3179 -0.4512  0.7777
 7785TIP3    H223320   2.588   0.691   1.484 -0.1530 -0.7441  0.6752
 7786TIP3   OH223321   0.719   3.725   2.187 -0.0620 -0.0047  0.2797
 7786TIP3    H123322   0.726   3.786   2.113 -1.8900  1.2839  1.1002
 7786TIP3    H223323   0.785   3.658   2.169 -0.0340  0.5854 -2.2104
 7787TIP3   OH223324   4.815   2.360   0.354 -0.3101 -0.6168 -0.0396
 7787TIP3    H123325   4.833   2.444   0.395 -0.5974 -1.0493  1.0338
 7787TIP3    H223326   4.896   2.336   0.310 -0.5440  0.6818 -1.2515
 7788TIP3   OH223327   5.822   0.946   1.264 -0.3680  0.4692 -0.5215
 7788TIP3    H123328   5.914   0.958   1.239 -0.4983  0.3924 -1.0360
 7788TIP3    H223329   5.827   0.902   1.349  0.1023 -2.5870 -1.9825
 7789TIP3   OH223330   5.513   5.040   4.857 -0.0841  0.6046  0.2199
 7789TIP3    H123331   5.560   5.028   4.939  1.3151 -2.5467 -0.8620
 7789TIP3    H223332   5.438   4.981   4.864  0.3321 -0.0934 -0.8902
 7790TIP3   OH223333   4.936   3.242   3.584  0.5166 -0.2920  0.5235
 7790TIP3    H123334   4.946   3.319   3.640  0.1791  0.9879 -1.1188
 7790TIP3    H223335   4.981   3.264   3.503  1.3458 -2.2613  0.3809
 7791TIP3   OH223336   0.531   4.323   0.205  0.3541  0.7375 -0.1171
 7791TIP3    H123337   0.478   4.256   0.248  1.7486 -0.3258  0.0449
 7791TIP3    H223338   0.570   4.373   0.276  0.4264  0.8080 -0.2050
 7792TIP3   OH223339   4.594   6.093   3.328 -0.1558  0.3990 -0.8454
 7792TIP3    H123340   4.669   6.082   3.270  0.4508 -0.1810  0.0189
 7792TIP3    H223341   4.614   6.171   3.380 -0.7898  1.0355 -1.5414
 7793TIP3   OH223342   1.980   1.296   5.613  0.4781  0.1252  0.4757
 7793TIP3    H123343   1.926   1.371   5.589 -0.2022 -0.3020  0.6639
 7793TIP3    H223344   2.014   1.264   5.529  0.6363  0.5361  0.3786
 7794TIP3   OH223345   6.961   4.617   3.484 -0.3921  0.5500 -0.8831
 7794TIP3    H123346   6.916   4.663   3.555  1.2356 -0.8629  1.1831
 7794TIP3    H223347   6.990   4.687   3.424  1.2080  2.2187  1.6548
 7795TIP3   OH223348   3.575   5.383   0.245 -0.1651 -0.7638 -0.2088
 7795TIP3    H123349   3.559   5.298   0.285  1.1794  0.1597  2.5768
 7795TIP3    H223350   3.647   5.420   0.296 -0.0209  1.6416 -1.9739
 7796TIP3   OH223351   5.337   4.229   5.597 -0.1676  0.0236  0.6977
 7796TIP3    H123352   5.287   4.203   5.520 -0.0138  0.9488  0.2692
 7796TIP3    H223353   5.325   4.157   5.659  0.1968 -1.0138 -0.4042
 7797TIP3   OH223354   6.281   2.316   4.825 -0.0050 -0.4994 -0.5533
 7797TIP3    H123355   6.207   2.258   4.840  0.8469 -1.1323  1.4784
 7797TIP3    H223356   6.260   2.395   4.875  0.8461 -0.8473  0.3904
 7798TIP3   OH223357   2.445   1.114   4.521 -0.2999 -0.2487  0.4222
 7798TIP3    H123358   2.349   1.110   4.524 -0.2610 -0.8097  1.3478
 7798TIP3    H223359   2.468   1.087   4.432 -1.0479  1.2550 -0.2629
 7799TIP3   OH223360   2.641   4.668   4.956 -0.3355 -0.1219  0.5487
 7799TIP3    H123361   2.609   4.667   4.865  0.6064  1.2892  0.1749
 7799TIP3    H223362   2.706   4.598   4.959  0.2218  0.3491 -0.1165
 7800TIP3   OH223363   2.444   3.059   2.330 -0.3219 -0.5781  0.0506
 7800TIP3    H123364   2.507   3.116   2.373  0.4583  0.1064 -1.8977
 7800TIP3    H223365   2.362   3.108   2.332 -0.5987 -1.0466  1.7086
 7801TIP3   OH223366   1.630   2.230   2.579  0.3184 -0.3094 -0.3242
 7801TIP3    H123367   1.690   2.156   2.574 -1.5827 -1.9969  0.7371
 7801TIP3    H223368   1.611   2.252   2.488  1.5968 -0.5131 -0.6594
 7802TIP3   OH223369   5.103   4.939   5.616 -0.6100  0.3424  0.6813
 7802TIP3    H123370   5.066   4.856   5.645  1.2059 -0.7887 -0.0089
 7802TIP3    H223371   5.107   4.993   5.695 -2.6643  0.1578  0.9599
 7803TIP3   OH223372   6.307   5.367   4.482  0.3165  0.2908  0.3537
 7803TIP3    H123373   6.213   5.349   4.483  0.4564 -0.4435  0.1971
 7803TIP3    H223374   6.316   5.446   4.428  0.0888 -1.3775 -2.2947
 7804TIP3   OH223375   6.202   0.721   2.550 -0.0733  0.4961  0.4007
 7804TIP3    H123376   6.181   0.799   2.601 -0.6780  1.9525 -1.9061
 7804TIP3    H223377   6.297   0.726   2.537 -0.0639  0.6687  0.5396
 7805TIP3   OH223378   5.501   0.418   3.433  0.0464  0.2640 -0.5761
 7805TIP3    H123379   5.557   0.484   3.391  0.6329 -0.9018 -1.6742
 7805TIP3    H223380   5.413   0.454   3.425  0.5452  1.9384  0.8061
 7806TIP3   OH223381   3.976   3.919   4.368  0.2947  0.1687  0.1214
 7806TIP3    H123382   3.976   4.013   4.350  1.9507  0.3646  0.9103
 7806TIP3    H223383   4.027   3.911   4.449  1.4990 -1.5117 -0.7418
 7807TIP3   OH223384   5.652   4.957   3.337  0.7329 -0.2709 -0.3111
 7807TIP3    H123385   5.707   4.930   3.410 -1.2051 -1.3533  0.8200
 7807TIP3    H223386   5.592   5.022   3.374 -0.5696 -1.1655 -0.7789
 7808TIP3   OH223387   3.678   1.496   1.793 -0.0246  0.1138  0.3199
 7808TIP3    H123388   3.659   1.411   1.832 -2.8885  0.3085 -0.3821
 7808TIP3    H223389   3.691   1.476   1.700  1.7392  0.2057  0.5285
 7809TIP3   OH223390   7.028   1.274   1.058 -0.3849  0.2092 -0.0787
 7809TIP3    H123391   7.079   1.293   0.979  3.2524 -0.0764  1.9802
 7809TIP3    H223392   6.957   1.337   1.057  1.9605  3.0770 -1.5412
 7810TIP3   OH223393   4.714   3.204   4.349  0.0124 -0.3114 -0.1796
 7810TIP3    H123394   4.794   3.193   4.299 -0.4082  0.5094 -1.0698
 7810TIP3    H223395   4.732   3.164   4.434  2.3392  2.2158  0.6740
 7811TIP3   OH223396   0.649   3.891   5.058 -0.2377  0.0438  0.2985
 7811TIP3    H123397   0.606   3.976   5.049 -0.5466 -0.1342  0.0418
 7811TIP3    H223398   0.577   3.828   5.062 -0.0163 -0.3512 -1.0450
 7812TIP3   OH223399   4.260   2.040   1.688  0.5309 -0.1848 -0.5185
 7812TIP3    H123400   4.355   2.026   1.686  0.4018 -1.7596  1.4298
 7812TIP3    H223401   4.231   2.019   1.600  1.8501 -0.8328 -0.8282
 7813TIP3   OH223402   4.657   0.373   2.673  0.1380 -0.1161 -0.4094
 7813TIP3    H123403   4.582   0.321   2.703  0.8994 -1.5104 -0.8061
 7813TIP3    H223404   4.620   0.457   2.647 -0.7456  0.7719  3.1949
 7814TIP3   OH223405   3.362   4.421   3.939 -0.5118  0.6277 -0.2318
 7814TIP3    H123406   3.294   4.363   3.905  0.1851  0.6951 -1.8833
 7814TIP3    H223407   3.314   4.493   3.981 -1.5470  1.2703 -2.3653
 7815TIP3   OH223408   6.240   5.329   2.701  0.8348 -0.2226 -0.3143
 7815TIP3    H123409   6.305   5.259   2.690  1.7944  0.8852 -2.3479
 7815TIP3    H223410   6.291   5.406   2.724 -0.2766 -0.2183  2.5779
 7816TIP3   OH223411   6.959   1.372   5.735 -0.3523 -0.5368 -0.6072
 7816TIP3    H123412   6.863   1.368   5.735 -0.3845 -1.1639 -2.8367
 7816TIP3    H223413   6.982   1.376   5.642  1.8524 -2.8487 -0.2754
 7817TIP3   OH223414   7.057   4.288   3.141 -0.1677 -0.0529 -0.1812
 7817TIP3    H123415   7.115   4.340   3.197  1.0619 -1.8021  0.2362
 7817TIP3    H223416   7.048   4.205   3.187 -1.6295 -0.4433 -1.1184
 7818TIP3   OH223417   5.783   1.662   1.593 -0.1581 -0.2650 -0.0914
 7818TIP3    H123418   5.808   1.747   1.556  1.0647 -0.1208  0.9855
 7818TIP3    H223419   5.826   1.598   1.536 -2.3405 -0.2865 -1.8468
 7819TIP3   OH223420   0.469   0.409   4.471 -0.5158  0.2999 -0.6444
 7819TIP3    H123421   0.410   0.480   4.495 -0.4076 -0.5855  2.6945
 7819TIP3    H223422   0.417   0.329   4.482  0.1664 -0.3078 -1.6231
 7820TIP3   OH223423   0.765   4.349   5.777 -0.3029  0.7503  0.5201
 7820TIP3    H123424   0.846   4.314   5.813 -0.0405  2.1025  1.3124
 7820TIP3    H223425   0.696   4.307   5.829 -0.0819  0.3103  0.4682
 7821TIP3   OH223426   0.759   6.554   1.080  0.0943  0.5993 -0.3420
 7821TIP3    H123427   0.839   6.560   1.133  0.5582 -0.2318 -0.9237
 7821TIP3    H223428   0.694   6.518   1.140  0.1945  1.1024  0.0822
 7822TIP3   OH223429   4.381   2.855   0.652  0.0262  0.6062 -0.5932
 7822TIP3    H123430   4.326   2.879   0.727 -0.9179  1.9418 -1.6621
 7822TIP3    H223431   4.380   2.760   0.651 -1.8520  0.5728 -0.2344
 7823TIP3   OH223432   4.814   5.438   0.338 -0.0196  0.4244 -0.0687
 7823TIP3    H123433   4.828   5.463   0.430  1.5376  0.4525 -0.2777
 7823TIP3    H223434   4.843   5.515   0.288 -0.2660  0.1748 -0.5961
 7824TIP3   OH223435   0.521   0.722   1.167 -0.0814  0.3133  0.6109
 7824TIP3    H123436   0.554   0.749   1.253 -3.8584  1.7602  1.7814
 7824TIP3    H223437   0.480   0.637   1.183  0.9898 -0.4249 -0.3304
 7825TIP3   OH223438   2.756   0.775   5.843 -0.2050 -0.1732  0.5154
 7825TIP3    H123439   2.772   0.738   5.930  1.6468  1.1000  0.7869
 7825TIP3    H223440   2.832   0.749   5.792 -1.0327 -0.4665 -0.6002
 7826TIP3   OH223441   3.286   3.032   4.240  0.0477 -0.0439  0.0304
 7826TIP3    H123442   3.366   3.076   4.267 -1.0173  0.3806  2.7700
 7826TIP3    H223443   3.266   2.972   4.312 -0.9219 -1.7916 -1.6060
 7827TIP3   OH223444   1.547   1.145   2.089 -0.3350 -0.2090  0.5310
 7827TIP3    H123445   1.462   1.142   2.133 -0.0766 -2.1959  0.9723
 7827TIP3    H223446   1.548   1.067   2.034  1.1798 -0.1946  0.4998
 7828TIP3   OH223447   3.521   4.469   1.723  0.8645 -0.4100  0.1708
 7828TIP3    H123448   3.587   4.537   1.707  1.4907 -0.7745  1.0949
 7828TIP3    H223449   3.510   4.426   1.638 -0.1690  1.3572 -0.6387
 7829TIP3   OH223450   4.280   5.061   5.537 -0.1503 -0.0598 -0.7431
 7829TIP3    H123451   4.215   5.119   5.497  1.0482  0.2874 -2.2709
 7829TIP3    H223452   4.244   4.973   5.527 -0.8917  0.2120 -0.5351
 7830TIP3   OH223453   0.881   3.260   0.603  0.6867  0.3395 -0.1793
 7830TIP3    H123454   0.971   3.237   0.625  0.5068  0.5162  0.7648
 7830TIP3    H223455   0.888   3.335   0.544  1.1396  0.7340  0.3762
 7831TIP3   OH223456   1.514   5.882   0.162 -0.3420  0.3782  0.7815
 7831TIP3    H123457   1.582   5.816   0.155  0.5517  1.2234  1.2815
 7831TIP3    H223458   1.439   5.845   0.115  1.0521  0.2296 -1.4347
 7832TIP3   OH223459   0.286   5.151   1.196 -0.0639 -0.0478 -0.5238
 7832TIP3    H123460   0.372   5.122   1.227 -0.3537 -0.0157  0.3230
 7832TIP3    H223461   0.227   5.135   1.270 -0.9563 -0.8641 -1.3725
 7833TIP3   OH223462   6.392   0.602   1.980 -0.5369 -0.6326  0.2329
 7833TIP3    H123463   6.349   0.576   1.898 -0.0893 -1.9065  0.3815
 7833TIP3    H223464   6.401   0.697   1.974 -0.4334 -0.7216 -1.2314
 7834TIP3   OH223465   1.029   3.576   1.224  0.1951 -0.1364  0.3140
 7834TIP3    H123466   1.037   3.647   1.160 -1.5491  0.0855  0.2907
 7834TIP3    H223467   1.013   3.498   1.171  1.4594 -0.4526  0.3727
 7835TIP3   OH223468   3.150   6.328   0.659 -0.2480 -0.0355 -0.5257
 7835TIP3    H123469   3.209   6.386   0.707 -1.6057  1.6029 -0.7596
 7835TIP3    H223470   3.183   6.329   0.569  0.8100 -1.1274 -0.1810
 7836TIP3   OH223471   3.843   5.590   5.725 -0.2678  0.1964 -0.1907
 7836TIP3    H123472   3.811   5.502   5.706 -0.5745 -0.0654  1.4163
 7836TIP3    H223473   3.764   5.644   5.729 -0.1252  0.4449 -0.6305
 7837TIP3   OH223474   3.354   5.221   3.495 -0.1973  0.3267  0.0501
 7837TIP3    H123475   3.315   5.279   3.429  0.3079  1.3034  0.6024
 7837TIP3    H223476   3.281   5.198   3.553 -0.0846  1.7286  0.7716
 7838TIP3   OH223477   0.566   4.521   1.807 -0.0497 -0.2732 -0.4340
 7838TIP3    H123478   0.546   4.594   1.866 -1.0438  0.0990 -1.2119
 7838TIP3    H223479   0.584   4.448   1.866 -1.5521 -0.0541  0.3604
 7839TIP3   OH223480   0.596   2.666   3.766 -0.6778 -0.2909 -0.0882
 7839TIP3    H123481   0.672   2.673   3.824 -0.2564  1.5343 -0.8105
 7839TIP3    H223482   0.632   2.629   3.685 -0.8789 -0.8884  0.0871
 7840TIP3   OH223483   4.883   2.595   2.911 -0.3648 -0.3007 -0.7606
 7840TIP3    H123484   4.856   2.638   2.993 -0.7703 -0.2085 -0.9369
 7840TIP3    H223485   4.973   2.623   2.897 -1.2840  2.3595 -2.0435
 7841TIP3   OH223486   0.053   4.621   3.107  0.2279  0.0164 -0.7288
 7841TIP3    H123487   0.134   4.671   3.093 -1.2890  3.4449  1.4224
 7841TIP3    H223488  -0.016   4.676   3.069 -1.3979 -1.4005  0.0414
 7842TIP3   OH223489   0.094   6.569   3.594  0.0517  0.1941  0.2025
 7842TIP3    H123490   0.110   6.660   3.570  0.6316  0.2651  0.8106
 7842TIP3    H223491   0.178   6.525   3.580  0.5047  0.2889  2.2313
 7843TIP3   OH223492   2.601   0.065   2.053  0.3032 -0.7265  0.2421
 7843TIP3    H123493   2.530   0.036   1.995 -0.6938  1.3974  0.3100
 7843TIP3    H223494   2.681   0.032   2.011 -0.4898 -0.4043 -1.6184
 7844TIP3   OH223495   2.105   5.343   0.050 -0.0194 -0.0379 -0.3943
 7844TIP3    H123496   2.086   5.251   0.032  0.9394 -0.6298  1.3980
 7844TIP3    H223497   2.198   5.345   0.070 -0.0687  1.3059 -0.2052
 7845TIP3   OH223498   6.061   1.808   2.425 -0.0189  0.1680  0.1174
 7845TIP3    H123499   6.156   1.820   2.422 -0.1389  1.2283 -2.1431
 7845TIP3    H223500   6.048   1.718   2.452  1.6364  0.0376  0.5467
 7846TIP3   OH223501   0.198   1.643   0.946 -0.4490 -0.2813 -0.0279
 7846TIP3    H123502   0.119   1.684   0.981 -1.5608  0.2400 -2.8972
 7846TIP3    H223503   0.270   1.693   0.983 -1.4897  0.0535  1.6364
 7847TIP3   OH223504   2.077   3.702   1.851 -0.2837  0.3536  0.1478
 7847TIP3    H123505   2.058   3.761   1.778  0.3036  0.9530  0.4784
 7847TIP3    H223506   2.105   3.621   1.808 -0.1295  0.6348 -0.2977
 7848TIP3   OH223507   6.668   4.981   5.269  0.4967  0.0538 -0.2940
 7848TIP3    H123508   6.711   5.060   5.304  1.9278 -0.4657 -0.8320
 7848TIP3    H223509   6.716   4.908   5.308 -0.8091 -0.5862  0.1878
 7849TIP3   OH223510   2.511   6.502   0.413  0.4577  0.1011  0.0589
 7849TIP3    H123511   2.530   6.413   0.443  2.3034  0.7366  0.8979
 7849TIP3    H223512   2.532   6.500   0.319 -0.2176 -0.5009 -0.0971
 7850TIP3   OH223513   6.100   6.440   5.276 -0.1453  0.6485 -0.0953
 7850TIP3    H123514   6.087   6.360   5.225 -0.5836 -0.5637  1.7965
 7850TIP3    H223515   6.190   6.434   5.308 -0.5399  0.2818  1.0031
 7851TIP3   OH223516   4.178   3.854   3.221 -0.0898  0.1044  0.3461
 7851TIP3    H123517   4.193   3.884   3.131 -1.2158  0.3652  0.2206
 7851TIP3    H223518   4.214   3.923   3.276  0.0037  0.2616  0.0882
 7852TIP3   OH223519   1.331   2.531   2.391  0.1835 -0.2459 -0.1585
 7852TIP3    H123520   1.271   2.462   2.363  0.4208 -0.4040 -0.2768
 7852TIP3    H223521   1.409   2.519   2.337  1.4229 -1.7730  1.8409
 7853TIP3   OH223522   5.904   0.679   2.168  1.0262 -0.2786 -0.4301
 7853TIP3    H123523   5.909   0.650   2.259 -1.1984 -1.3807 -0.5875
 7853TIP3    H223524   5.858   0.763   2.172  2.7033  0.6850 -0.4244
 7854TIP3   OH223525   5.471   5.512   1.732 -0.3435  0.5052  0.0130
 7854TIP3    H123526   5.380   5.521   1.703 -1.0326  1.7679  2.3356
 7854TIP3    H223527   5.482   5.418   1.747 -0.4665  0.0203 -2.5100
 7855TIP3   OH223528   6.178   5.695   2.891  0.3077 -0.7666  0.3327
 7855TIP3    H123529   6.238   5.754   2.937  1.6802 -1.4927 -0.4493
 7855TIP3    H223530   6.116   5.752   2.847  1.8519  0.1366 -0.7452
 7856TIP3   OH223531   1.685   2.665   1.477  0.2865 -0.0466  0.1616
 7856TIP3    H123532   1.631   2.695   1.551  0.8320  0.1821  0.4735
 7856TIP3    H223533   1.717   2.745   1.436  2.6670 -0.1293  1.6719
 7857TIP3   OH223534   1.851   5.920   4.481  0.1786 -0.1831  0.2578
 7857TIP3    H123535   1.889   5.970   4.409  0.0408 -0.5753 -0.0918
 7857TIP3    H223536   1.908   5.938   4.556  1.0116 -0.6997 -0.2362
 7858TIP3   OH223537   3.198   3.906   0.586 -0.2786  0.1447  0.4771
 7858TIP3    H123538   3.234   3.952   0.663  0.7655 -0.6444  0.4825
 7858TIP3    H223539   3.224   3.961   0.512 -1.0924  0.7916  0.6601
 7859TIP3   OH223540   1.646   5.841   2.471 -0.5412 -0.4349  0.0935
 7859TIP3    H123541   1.734   5.853   2.507 -0.1795  0.1184 -0.9168
 7859TIP3    H223542   1.618   5.929   2.447 -1.4363 -0.5952  0.5373
 7860TIP3   OH223543   3.547   1.811   3.851 -0.4699 -0.1857 -0.0916
 7860TIP3    H123544   3.563   1.886   3.792 -0.3857  0.1519  0.3535
 7860TIP3    H223545   3.502   1.747   3.797  3.2857 -1.6885 -1.8185
 7861TIP3   OH223546   4.416   1.149   5.449  0.6885  0.0355  0.2100
 7861TIP3    H123547   4.482   1.214   5.474  0.1499  1.0732 -0.9719
 7861TIP3    H223548   4.432   1.135   5.356 -0.6308  0.1527 -0.0472
 7862TIP3   OH223549   5.420   6.128   4.460 -0.1063  0.4577 -0.2335
 7862TIP3    H123550   5.400   6.114   4.553 -0.6916 -0.5585 -0.4961
 7862TIP3    H223551   5.418   6.223   4.449  0.8625  0.6391  0.9800
 7863TIP3   OH223552   1.733   0.024   2.396 -0.1385 -0.3926 -0.2534
 7863TIP3    H123553   1.820   0.054   2.370  0.5399 -1.6502  0.5121
 7863TIP3    H223554   1.745  -0.066   2.424 -1.6522 -0.5183  0.0964
 7864TIP3   OH223555   5.791   2.098   4.613 -0.0277  0.1372  0.1232
 7864TIP3    H123556   5.853   2.047   4.561 -0.2162 -1.1038  1.0528
 7864TIP3    H223557   5.818   2.188   4.600  2.1694 -0.3706  0.6758
 7865TIP3   OH223558   5.845   4.605   2.519 -0.1633 -0.0463 -0.1320
 7865TIP3    H123559   5.752   4.626   2.512 -0.2940 -0.7636 -0.6618
 7865TIP3    H223560   5.863   4.605   2.613 -0.8707 -0.6410  0.0098
 7866TIP3   OH223561   4.802   5.503   3.909  0.0869 -0.2212  0.5203
 7866TIP3    H123562   4.759   5.509   3.824 -0.7012  0.2247  0.9339
 7866TIP3    H223563   4.799   5.410   3.932 -0.6048 -0.2082  0.5081
 7867TIP3   OH223564   3.135   0.756   5.011  0.1514 -0.1209  0.3526
 7867TIP3    H123565   3.081   0.814   4.958  1.6747  3.0184  1.9983
 7867TIP3    H223566   3.118   0.668   4.975 -2.0284  1.3022 -2.4836
 7868TIP3   OH223567   4.328   1.692   1.811  0.5690  0.1044 -0.5761
 7868TIP3    H123568   4.339   1.603   1.844 -1.7322 -0.3989 -0.9843
 7868TIP3    H223569   4.388   1.698   1.737  0.6400 -1.1613 -0.6435
 7869TIP3   OH223570   4.503   1.665   0.596  0.1898 -0.3427  0.1301
 7869TIP3    H123571   4.498   1.570   0.613 -0.4045 -0.7757 -2.0955
 7869TIP3    H223572   4.450   1.704   0.665  0.7513 -1.5706  1.3291
 7870TIP3   OH223573   2.157   5.425   0.680 -0.7860 -0.3265  0.2377
 7870TIP3    H123574   2.180   5.448   0.590 -0.3155 -1.4600  0.0442
 7870TIP3    H223575   2.146   5.508   0.725  0.5899  0.2476 -0.4567
 7871TIP3   OH223576   4.841   6.004   4.631 -0.2832  0.0268 -0.0861
 7871TIP3    H123577   4.850   6.099   4.623  1.0084 -0.0719  0.0317
 7871TIP3    H223578   4.920   5.976   4.676 -1.0806 -1.0077  0.7368
 7872TIP3   OH223579   4.594   2.016   1.450 -0.4021  0.0605  0.0753
 7872TIP3    H123580   4.681   2.009   1.489 -0.8173 -0.4017  0.9604
 7872TIP3    H223581   4.608   2.000   1.357  0.2344 -2.0005  0.4656
 7873TIP3   OH223582   2.449   2.467   1.397 -0.2461  0.4624 -0.0621
 7873TIP3    H123583   2.368   2.478   1.447 -0.7184 -1.3899 -0.3441
 7873TIP3    H223584   2.437   2.523   1.321 -1.2646  0.2406 -0.0838
 7874TIP3   OH223585   3.420   3.668   2.293 -0.5231 -0.1932  0.4981
 7874TIP3    H123586   3.500   3.668   2.241 -0.6868  0.8947  0.2111
 7874TIP3    H223587   3.421   3.585   2.340  1.2588  0.2193  1.2617
 7875TIP3   OH223588   2.730   6.694   4.366  0.2367 -0.3681  0.3498
 7875TIP3    H123589   2.749   6.602   4.383 -0.7726 -0.4788  0.9078
 7875TIP3    H223590   2.658   6.716   4.424  0.7527  0.9102  0.5619
 7876TIP3   OH223591   0.274   5.514   0.568  0.4460 -0.2267  0.8402
 7876TIP3    H123592   0.240   5.560   0.492  2.1343 -0.2261  0.0327
 7876TIP3    H223593   0.230   5.429   0.566 -0.2635  0.1426  0.4511
 7877TIP3   OH223594   0.532   3.197   5.062  0.0230 -0.0532  0.1906
 7877TIP3    H123595   0.571   3.273   5.018 -0.4995 -0.9437 -1.9649
 7877TIP3    H223596   0.467   3.234   5.121  1.7027  1.2801  1.3283
 7878TIP3   OH223597   1.422   1.084   2.971 -0.7950  0.2886  0.2582
 7878TIP3    H123598   1.352   1.103   2.908 -0.2856 -2.0108 -1.1122
 7878TIP3    H223599   1.407   0.993   2.996  1.8855 -0.4129 -0.3800
 7879TIP3   OH223600   4.388   5.879   1.674 -0.4447 -0.5127 -0.1544
 7879TIP3    H123601   4.313   5.892   1.616 -0.0653  3.1106 -0.0546
 7879TIP3    H223602   4.459   5.853   1.615 -1.0516 -1.0379 -0.6694
 7880TIP3   OH223603   0.352   2.572   1.642 -0.1907  0.0788 -0.2892
 7880TIP3    H123604   0.379   2.663   1.631 -0.4106  0.2665  0.6844
 7880TIP3    H223605   0.425   2.521   1.606  0.4575  0.6186  0.2410
 7881TIP3   OH223606   0.485   0.930   0.328  0.7561  0.0957  0.0692
 7881TIP3    H123607   0.447   0.917   0.415 -0.7188 -1.5064 -0.7534
 7881TIP3    H223608   0.418   0.978   0.279  1.3595  0.5305 -0.3515
 7882TIP3   OH223609   1.586   0.812   1.152  0.0206  0.3110 -0.1276
 7882TIP3    H123610   1.490   0.814   1.151 -0.0063 -0.0650  0.7487
 7882TIP3    H223611   1.612   0.868   1.079 -0.8754 -1.3841 -1.8232
 7883TIP3   OH223612   5.328   6.375   2.918 -0.6257  0.3165 -0.3281
 7883TIP3    H123613   5.334   6.376   2.823  0.1563 -0.2504 -0.2927
 7883TIP3    H223614   5.238   6.403   2.937 -1.0343 -0.3457 -1.2538
 7884TIP3   OH223615   7.000   0.033   2.202 -0.2779  0.1812  0.1289
 7884TIP3    H123616   7.046  -0.048   2.224 -0.4141 -0.0294 -0.3390
 7884TIP3    H223617   6.925   0.035   2.261 -0.7425 -0.4709 -0.4260
 7885TIP3   OH223618   3.624   5.180   3.958  0.5755  0.3147  0.0591
 7885TIP3    H123619   3.650   5.257   3.908  0.8071 -0.9869 -1.9466
 7885TIP3    H223620   3.675   5.108   3.920 -0.1947 -0.9774  1.3350
 7886TIP3   OH223621   6.643   3.457   0.869  0.0503 -0.5822 -0.3132
 7886TIP3    H123622   6.639   3.458   0.965  2.5071 -1.1999 -0.1399
 7886TIP3    H223623   6.551   3.455   0.842 -0.7748 -3.2362  2.0890
 7887TIP3   OH223624   3.943   4.353   2.454 -0.0201  0.2672 -0.0733
 7887TIP3    H123625   3.940   4.424   2.390 -0.3344 -0.0770 -0.4475
 7887TIP3    H223626   3.852   4.335   2.475 -0.0357 -0.9858 -1.0733
 7888TIP3   OH223627   1.498   1.336   3.081 -0.1430 -0.3480 -0.5094
 7888TIP3    H123628   1.420   1.384   3.055 -1.5701 -1.3531  1.6614
 7888TIP3    H223629   1.492   1.253   3.033 -0.4137 -0.4155 -0.3613
 7889TIP3   OH223630   2.751   2.915   0.151  0.3911  0.3133 -0.0167
 7889TIP3    H123631   2.745   3.008   0.131  0.5014  0.3038 -0.0978
 7889TIP3    H223632   2.782   2.911   0.241  2.7737  0.3594 -0.7638
 7890TIP3   OH223633   1.072   6.645   1.875 -0.0179  0.1962 -0.4383
 7890TIP3    H123634   1.161   6.670   1.852 -1.0407  2.3018 -2.4894
 7890TIP3    H223635   1.064   6.667   1.967  1.1811  1.2768 -0.5647
 7891TIP3   OH223636   2.080   0.578   4.966 -0.1848 -0.3416 -0.1599
 7891TIP3    H123637   2.143   0.543   4.903 -1.5498 -0.9421 -1.2644
 7891TIP3    H223638   2.126   0.650   5.009  1.0104 -0.3187 -1.3984
 7892TIP3   OH223639   6.567   4.027   5.078 -0.2551  0.3471 -0.4945
 7892TIP3    H123640   6.604   4.009   5.164 -2.1253 -0.3203  0.2235
 7892TIP3    H223641   6.543   3.941   5.044 -1.3837  0.7593 -0.7865
 7893TIP3   OH223642   6.554   4.046   1.570 -0.4073 -0.3400 -0.0727
 7893TIP3    H123643   6.550   3.952   1.584 -1.5175 -0.6204 -1.9013
 7893TIP3    H223644   6.476   4.066   1.518  0.1457  1.4910 -0.2870
 7894TIP3   OH223645   0.396   4.856   5.018  0.1121 -0.0504  0.5381
 7894TIP3    H123646   0.387   4.951   5.010 -1.9840 -0.3464 -1.7253
 7894TIP3    H223647   0.466   4.833   4.957  0.8216  0.0060  1.2981
 7895TIP3   OH223648   0.299   3.738   0.074  0.6402 -0.5270 -0.4589
 7895TIP3    H123649   0.211   3.777   0.079  1.2249  0.7187  1.0544
 7895TIP3    H223650   0.357   3.807   0.105  2.4390 -0.6482 -3.2698
 7896TIP3   OH223651   4.923   0.986   4.851 -0.1925 -0.1835  0.3502
 7896TIP3    H123652   4.910   0.929   4.927 -1.0909 -0.8211 -0.2577
 7896TIP3    H223653   4.914   0.928   4.776  1.0695  0.3697 -0.2555
 7897TIP3   OH223654   0.265   4.186   2.460  0.3838  0.1711  0.1975
 7897TIP3    H123655   0.277   4.281   2.449 -0.0492  0.1683 -0.3352
 7897TIP3    H223656   0.247   4.175   2.553  0.6143  0.5927  0.2952
 7898TIP3   OH223657   3.244   0.469   0.701  0.0208 -0.1606 -0.3221
 7898TIP3    H123658   3.221   0.428   0.784 -1.4636  0.8357 -0.1962
 7898TIP3    H223659   3.303   0.407   0.659  0.1861 -1.0384  1.1288
 7899TIP3   OH223660   4.627   3.363   1.006  1.1650  0.3624  0.3246
 7899TIP3    H123661   4.540   3.401   0.996  0.7207 -0.8913 -0.7780
 7899TIP3    H223662   4.687   3.431   0.975  0.3245 -0.1875 -2.7573
 7900TIP3   OH223663   1.187   5.007   1.624 -0.1897  0.8033  0.1977
 7900TIP3    H123664   1.159   4.915   1.632  1.9351  0.0920  0.1502
 7900TIP3    H223665   1.153   5.035   1.539 -0.0708 -0.2729 -0.2229
 7901TIP3   OH223666   0.634   3.761   5.486  0.1624  0.0182  0.1150
 7901TIP3    H123667   0.578   3.831   5.452 -0.0785 -0.2566 -0.0662
 7901TIP3    H223668   0.723   3.789   5.467  0.3391  1.9345  3.1043
 7902TIP3   OH223669   3.374   0.687   5.116  0.4784  0.9180  0.0002
 7902TIP3    H123670   3.368   0.782   5.122 -0.7717  0.9624 -1.4317
 7902TIP3    H223671   3.327   0.664   5.036  1.3794 -0.8568 -0.0853
 7903TIP3   OH223672   5.179   1.688   1.156 -0.0191 -0.1617 -0.1947
 7903TIP3    H123673   5.143   1.640   1.231  0.3441  0.0439  0.1185
 7903TIP3    H223674   5.145   1.777   1.166 -0.9934 -0.4339 -0.9802
 7904TIP3   OH223675   5.113   0.772   4.177 -0.7154 -0.2700  0.1970
 7904TIP3    H123676   5.146   0.703   4.234  1.3688  0.0400 -0.5470
 7904TIP3    H223677   5.191   0.823   4.154 -2.1131  1.9861  0.2664
 7905TIP3   OH223678   4.381   5.095   4.010 -0.5722  0.3730  0.2403
 7905TIP3    H123679   4.415   5.081   3.922  0.6244  0.5118  0.6547
 7905TIP3    H223680   4.287   5.083   4.002 -0.4614  0.2185 -1.0203
 7906TIP3   OH223681   2.094   2.443   0.689 -0.5566 -0.1621 -0.1829
 7906TIP3    H123682   2.025   2.487   0.640 -0.7051  1.6500  1.4882
 7906TIP3    H223683   2.159   2.512   0.704  1.1744 -1.5728 -0.8560
 7907TIP3   OH223684   3.913   0.724   0.049  0.0444  0.4554  0.2879
 7907TIP3    H123685   3.947   0.748   0.136  0.4393 -1.5605  0.7286
 7907TIP3    H223686   3.983   0.674   0.008 -0.4183  0.7647 -0.9284
 7908TIP3   OH223687   3.564   4.543   3.189 -0.3675 -0.8204 -0.2234
 7908TIP3    H123688   3.583   4.559   3.096  2.0180  0.7507  0.4492
 7908TIP3    H223689   3.503   4.612   3.213  1.3966  0.7205  0.0378
 7909TIP3   OH223690   1.334   1.690   5.646 -0.5736  0.5044 -0.6120
 7909TIP3    H123691   1.251   1.711   5.602 -0.3112 -0.7615 -1.7582
 7909TIP3    H223692   1.400   1.699   5.578  0.0896  0.3161 -0.0018
 7910TIP3   OH223693   4.220   6.629   4.977 -0.1102 -0.5515 -0.3358
 7910TIP3    H123694   4.272   6.653   5.053 -0.0521  0.5044 -0.6952
 7910TIP3    H223695   4.280   6.579   4.922  1.0773  1.9627 -1.4753
 7911TIP3   OH223696   6.742   6.554   0.142 -0.0558 -0.2783  0.3695
 7911TIP3    H123697   6.836   6.565   0.152  0.1998  0.4006 -2.0581
 7911TIP3    H223698   6.719   6.483   0.202  2.1470 -1.0418  0.3906
 7912TIP3   OH223699   3.239   5.026   4.036  0.6252 -0.1421  0.0505
 7912TIP3    H123700   3.276   5.079   3.965 -1.2300  0.0983 -0.7886
 7912TIP3    H223701   3.284   5.057   4.115  1.2851  1.0056 -0.7557
 7913TIP3   OH223702   3.611   3.195   5.553  0.6381  0.3028  0.0189
 7913TIP3    H123703   3.622   3.190   5.648  1.2351 -1.0791 -0.0942
 7913TIP3    H223704   3.699   3.204   5.518  0.4666  0.2979 -0.4255
 7914TIP3   OH223705   5.247   5.595   1.285  0.0531 -0.2400  0.0705
 7914TIP3    H123706   5.314   5.527   1.284  0.4903  0.1846  0.0731
 7914TIP3    H223707   5.204   5.585   1.369 -0.1164 -0.7335 -0.0687
 7915TIP3   OH223708   0.413   0.569   1.512 -0.2967 -0.7252  0.5034
 7915TIP3    H123709   0.414   0.537   1.422 -0.2301 -0.3954  0.3861
 7915TIP3    H223710   0.376   0.657   1.505  0.0474 -0.5613  0.7549
 7916TIP3   OH223711   6.019   4.795   1.253 -0.1988 -0.1326  0.4286
 7916TIP3    H123712   6.081   4.839   1.195  2.8500 -1.2996  2.5491
 7916TIP3    H223713   6.023   4.846   1.334  0.7233 -2.1857  1.7502
 7917TIP3   OH223714   1.457   1.755   4.449  0.3996  0.3911 -0.0314
 7917TIP3    H123715   1.370   1.796   4.444 -0.6584 -1.4491  1.7186
 7917TIP3    H223716   1.449   1.677   4.394  0.9166  0.1565  0.2255
 7918TIP3   OH223717   3.251   4.066   2.660 -0.4765  0.2220 -0.3685
 7918TIP3    H123718   3.256   4.040   2.568 -1.8067 -1.4416 -0.0165
 7918TIP3    H223719   3.238   4.161   2.657  0.6571  0.3740 -1.8339
 7919TIP3   OH223720   2.405   2.102   3.224 -0.6734  0.2013 -0.8511
 7919TIP3    H123721   2.362   2.047   3.289 -0.3068  1.2656  0.3403
 7919TIP3    H223722   2.496   2.073   3.223  0.1998  2.4389  1.7881
 7920TIP3   OH223723   4.286   3.225   5.277 -0.2150  0.8138  0.7820
 7920TIP3    H123724   4.372   3.200   5.242 -0.1931  0.1641  1.2803
 7920TIP3    H223725   4.237   3.143   5.278 -1.3861  1.4372 -0.9667
 7921TIP3   OH223726   4.229   3.836   1.897 -0.0984 -0.2998  0.1436
 7921TIP3    H123727   4.179   3.757   1.920 -1.1455  0.0080 -1.0073
 7921TIP3    H223728   4.186   3.906   1.945 -1.5468  0.1501 -1.7076
 7922TIP3   OH223729   2.325   0.037   3.330  0.0925 -0.0042 -0.9441
 7922TIP3    H123730   2.381   0.102   3.373 -1.0904  1.8026 -1.9804
 7922TIP3    H223731   2.382  -0.008   3.269  0.7706  0.7328 -0.8728
 7923TIP3   OH223732   6.012   5.887   1.179  0.1865 -0.2216 -0.0217
 7923TIP3    H123733   5.943   5.944   1.213  1.3653  1.3480 -0.1653
 7923TIP3    H223734   5.972   5.845   1.103 -0.6573  0.5527 -0.0245
 7924TIP3   OH223735   6.350   2.243   5.424  0.6795 -0.4052  0.1328
 7924TIP3    H123736   6.319   2.153   5.413 -1.5917  0.2996  0.2275
 7924TIP3    H223737   6.394   2.263   5.341  0.5400 -1.3502 -0.1877
 7925TIP3   OH223738   0.426   3.271   1.990  0.3624  0.1945  0.2113
 7925TIP3    H123739   0.360   3.327   2.031  0.0519 -0.0977  0.1248
 7925TIP3    H223740   0.419   3.188   2.038  0.9805  0.3062  0.4959
 7926TIP3   OH223741   3.013   3.464   4.619 -0.2591  0.1631  0.0599
 7926TIP3    H123742   2.929   3.509   4.605 -1.4498 -1.0967  2.5435
 7926TIP3    H223743   3.034   3.427   4.533 -2.3948  0.2979 -0.5923
 7927TIP3   OH223744   2.203   5.480   5.449  0.4003  0.0008 -0.4243
 7927TIP3    H123745   2.208   5.392   5.414  2.3344 -0.2698  0.4296
 7927TIP3    H223746   2.255   5.478   5.529 -0.3735  1.6597  0.1883
 7928TIP3   OH223747   5.558   4.274   4.855 -0.2043 -0.1348 -0.1943
 7928TIP3    H123748   5.530   4.215   4.925  0.2796 -0.1928 -0.0503
 7928TIP3    H223749   5.488   4.269   4.790 -0.2923 -0.6581 -0.0599
 7929TIP3   OH223750   1.696   0.293   5.801 -0.3080 -0.3120 -0.1046
 7929TIP3    H123751   1.604   0.266   5.807 -0.8943  1.0561 -1.9595
 7929TIP3    H223752   1.709   0.352   5.874 -1.1874  0.1918 -0.3388
 7930TIP3   OH223753   6.966   4.413   5.413  0.1861 -0.4304 -0.2229
 7930TIP3    H123754   6.949   4.361   5.492 -1.9730  0.1858 -0.2060
 7930TIP3    H223755   6.934   4.500   5.435 -1.5165 -0.5205 -2.1087
 7931TIP3   OH223756   4.969   2.885   2.781  0.0634  0.2317 -0.1906
 7931TIP3    H123757   4.924   2.875   2.865 -0.6640  0.5739 -0.5242
 7931TIP3    H223758   4.913   2.945   2.732 -1.2959 -2.3668 -2.1078
 7932TIP3   OH223759   5.897   1.086   5.819  0.4555 -0.0861 -0.4633
 7932TIP3    H123760   5.823   1.146   5.809  0.7473  0.2069 -0.8798
 7932TIP3    H223761   5.858   0.999   5.807  0.4751  0.1447 -2.6752
 7933TIP3   OH223762   6.191   2.506   0.858  0.0197  0.1164  0.4569
 7933TIP3    H123763   6.101   2.536   0.873 -0.6249 -0.9637 -0.9679
 7933TIP3    H223764   6.212   2.536   0.769  1.6372  1.5849  1.2652
 7934TIP3   OH223765   1.132   3.957   1.267 -0.1084 -0.0391  0.5521
 7934TIP3    H123766   1.208   3.932   1.319 -0.0897  0.5335  0.8076
 7934TIP3    H223767   1.063   3.974   1.331 -0.1246  0.5346  0.3874
 7935TIP3   OH223768   0.763   5.157   4.289 -0.5777  0.0950  0.0858
 7935TIP3    H123769   0.760   5.250   4.266  0.6706 -0.1277 -1.1500
 7935TIP3    H223770   0.723   5.112   4.214 -1.2240 -0.3681  0.7004
 7936TIP3   OH223771   7.173   0.199   0.190  0.2316 -0.3152  0.8630
 7936TIP3    H123772   7.165   0.112   0.151 -1.9655  0.4458 -0.5692
 7936TIP3    H223773   7.119   0.195   0.269 -0.0341 -0.1957  0.6879
 7937TIP3   OH223774   0.626   4.041   3.811  0.2767 -0.2993  0.2842
 7937TIP3    H123775   0.591   4.083   3.889 -2.8398  1.6956 -1.9648
 7937TIP3    H223776   0.721   4.055   3.817  0.2658 -0.8502  3.9194
 7938TIP3   OH223777   6.435   4.949   3.834  0.2212  0.1816  0.0845
 7938TIP3    H123778   6.425   4.921   3.924 -0.9366 -0.5552 -0.2606
 7938TIP3    H223779   6.388   5.032   3.829  2.1544  1.3963  0.6645
 7939TIP3   OH223780   2.172   1.518   4.179 -0.1729  0.1043  0.2148
 7939TIP3    H123781   2.115   1.460   4.229  0.6605  0.1766  1.2977
 7939TIP3    H223782   2.177   1.598   4.231  0.1611  0.4448 -0.3296
 7940TIP3   OH223783   0.615   4.859   1.061  0.7838  0.2618 -0.0165
 7940TIP3    H123784   0.584   4.919   1.129 -0.2983 -1.0367  0.6895
 7940TIP3    H223785   0.673   4.798   1.107 -0.3781 -0.9598 -0.0876
 7941TIP3   OH223786   2.932   0.881   3.531  0.1479  0.1089  0.2658
 7941TIP3    H123787   2.869   0.818   3.566 -2.2314  1.9827 -0.3403
 7941TIP3    H223788   2.919   0.878   3.436  0.5317  0.9908  0.1766
 7942TIP3   OH223789  -0.023   2.933   4.173 -0.8889  0.1542  0.1717
 7942TIP3    H123790  -0.036   3.004   4.235  2.1979 -0.1018  1.2887
 7942TIP3    H223791   0.070   2.910   4.181 -1.0268 -1.8917 -2.4325
 7943TIP3   OH223792   2.632   4.087   1.571  1.0023  0.2081  0.5531
 7943TIP3    H123793   2.553   4.140   1.572  1.0495  0.2823  0.3306
 7943TIP3    H223794   2.600   3.997   1.580  0.8662  0.2066  0.0659
 7944TIP3   OH223795   2.432   0.391   0.648 -0.2092 -0.3387  0.5499
 7944TIP3    H123796   2.468   0.303   0.659 -0.6113 -0.8075 -1.4617
 7944TIP3    H223797   2.503   0.442   0.611  0.5320  0.6887  3.1336
 7945TIP3   OH223798   5.126   0.854   1.657 -0.2135  0.1174  0.0633
 7945TIP3    H123799   5.080   0.790   1.602  2.3673 -1.7161 -0.1042
 7945TIP3    H223800   5.147   0.926   1.597  1.1258 -1.1222 -1.0318
 7946TIP3   OH223801   1.799   3.534   1.955 -0.3525  0.1355 -0.2566
 7946TIP3    H123802   1.886   3.565   1.928 -0.1912  0.0557  0.1654
 7946TIP3    H223803   1.789   3.566   2.044  0.6586 -2.6504  0.9751
 7947TIP3   OH223804   3.292   1.364   2.551 -0.0699 -0.3260 -0.3775
 7947TIP3    H123805   3.263   1.313   2.627  1.0422 -1.9371 -0.9809
 7947TIP3    H223806   3.360   1.310   2.510  0.6697  1.3557 -1.4697
 7948TIP3   OH223807   2.110   3.022   2.902 -0.2417 -0.3114 -0.3674
 7948TIP3    H123808   2.130   3.069   2.983  1.4469 -0.3329 -0.7310
 7948TIP3    H223809   2.120   2.929   2.926 -1.6997 -0.4290 -0.1272
 7949TIP3   OH223810   0.374   1.566   1.543  0.2623  0.0436 -0.4024
 7949TIP3    H123811   0.422   1.502   1.491  1.2442  0.2511  0.2260
 7949TIP3    H223812   0.440   1.605   1.601 -0.8523 -0.4151  1.2471
 7950TIP3   OH223813   3.725   1.042   4.012 -0.0730 -0.2888  0.0806
 7950TIP3    H123814   3.705   1.106   3.944  0.5378 -0.5633 -0.3718
 7950TIP3    H223815   3.643   0.998   4.029 -0.5210  0.6533  0.4440
 7951TIP3   OH223816   1.742   5.088   0.297  0.4949  0.2282 -0.0441
 7951TIP3    H123817   1.686   5.037   0.239  0.1931  1.8872 -1.3021
 7951TIP3    H223818   1.803   5.025   0.334  0.6205 -0.9180 -2.1016
 7952TIP3   OH223819   2.576   5.655   5.829  0.0372  0.4311  0.0513
 7952TIP3    H123820   2.670   5.662   5.846 -0.1139  1.0987  0.6235
 7952TIP3    H223821   2.539   5.624   5.912 -0.3293  0.7797  0.0189
 7953TIP3   OH223822   3.701   1.735   2.967  0.1729  0.1681 -0.3368
 7953TIP3    H123823   3.637   1.697   2.907  0.6062  0.8000 -1.2243
 7953TIP3    H223824   3.681   1.829   2.967 -1.3049 -0.0515  2.3287
 7954TIP3   OH223825   0.179   4.988   0.586 -0.1917 -0.2080  0.0176
 7954TIP3    H123826   0.238   4.926   0.628 -0.9914 -1.2058 -0.3134
 7954TIP3    H223827   0.168   5.058   0.651  2.4934  0.7700 -0.4569
 7955TIP3   OH223828   4.910   5.370   1.685 -0.2115 -0.0763 -0.0016
 7955TIP3    H123829   4.967   5.446   1.676 -0.9881  0.2443 -4.4861
 7955TIP3    H223830   4.970   5.295   1.684  0.3351  0.3577 -0.9567
 7956TIP3   OH223831   7.104   3.395   4.660  0.0518  0.1334 -0.0395
 7956TIP3    H123832   7.155   3.447   4.597 -0.9905  2.6906  1.0752
 7956TIP3    H223833   7.022   3.375   4.614 -1.0107  2.6105  0.5854
 7957TIP3   OH223834   4.896   1.819   3.785  0.4644 -0.0119  0.3637
 7957TIP3    H123835   4.935   1.873   3.716 -1.4392  1.3333  0.2731
 7957TIP3    H223836   4.904   1.871   3.864  0.4264 -0.4762  0.6782
 7958TIP3   OH223837   3.725   2.567   4.700 -0.0620  0.2373  0.0359
 7958TIP3    H123838   3.747   2.511   4.626 -2.4864 -1.5186  0.5166
 7958TIP3    H223839   3.775   2.531   4.773 -0.1349 -0.0836 -0.0727
 7959TIP3   OH223840   3.356   6.524   1.107 -0.1235 -0.2345 -0.3998
 7959TIP3    H123841   3.426   6.575   1.149 -0.3605  0.5446 -0.9122
 7959TIP3    H223842   3.319   6.584   1.042 -2.5228  0.0807  1.1080
 7960TIP3   OH223843   2.367   4.022   0.933 -0.1691  0.2830 -0.3206
 7960TIP3    H123844   2.458   4.047   0.913  0.2001 -0.9183 -0.2343
 7960TIP3    H223845   2.338   3.973   0.856 -0.5549  0.2008 -0.1254
 7961TIP3   OH223846   3.868   3.661   0.236 -0.5343 -0.0932 -0.7697
 7961TIP3    H123847   3.855   3.726   0.305 -1.2304  1.1049 -1.9666
 7961TIP3    H223848   3.856   3.577   0.279 -1.1501  0.6210  0.5186
 7962TIP3   OH223849   3.267   1.530   3.937  0.1908 -0.0848 -0.0450
 7962TIP3    H123850   3.308   1.617   3.935 -1.4814  0.7323 -1.3617
 7962TIP3    H223851   3.174   1.548   3.951  0.1237 -1.8369  2.1143
 7963TIP3   OH223852   1.871   0.075   1.120  0.4698  0.0164  0.1114
 7963TIP3    H123853   1.811   0.014   1.077 -1.8222  1.0436  1.6581
 7963TIP3    H223854   1.928   0.019   1.174  0.1617 -0.9155 -0.5167
 7964TIP3   OH223855   1.669   0.559   3.647 -0.4887  0.1328 -0.1399
 7964TIP3    H123856   1.717   0.604   3.717 -0.2268  1.1678 -0.9594
 7964TIP3    H223857   1.681   0.466   3.666 -0.0551  0.3950  0.9401
 7965TIP3   OH223858   4.085   0.883   2.053  0.6334 -0.2080 -0.3915
 7965TIP3    H123859   4.174   0.868   2.020  0.4464 -1.0500 -0.5362
 7965TIP3    H223860   4.062   0.801   2.098  0.4774  0.5340  0.9197
 7966TIP3   OH223861   6.979   1.840   0.539  0.0115  0.3192 -0.1203
 7966TIP3    H123862   6.971   1.924   0.586  0.2257 -0.6318  1.7130
 7966TIP3    H223863   6.984   1.865   0.447 -1.4275  2.2436  0.2474
 7967TIP3   OH223864   5.300   4.948   0.964 -0.0325  0.1882  0.4614
 7967TIP3    H123865   5.229   4.934   1.027  0.7233  0.2446  1.3535
 7967TIP3    H223866   5.289   4.878   0.900 -1.0449  0.3516  0.4283
 7968TIP3   OH223867   1.929   5.366   1.682  0.1680  0.4724 -0.6107
 7968TIP3    H123868   1.902   5.398   1.768  0.9083  2.2067 -0.9819
 7968TIP3    H223869   1.919   5.271   1.688 -2.2692  0.7292  0.5144
 7969TIP3   OH223870   0.693   4.268  -0.017 -0.2608 -0.2763  0.5290
 7969TIP3    H123871   0.643   4.302   0.057  0.6724  1.1115  0.5575
 7969TIP3    H223872   0.712   4.177   0.006 -0.9961 -0.2140  1.4370
 7970TIP3   OH223873   6.492   5.937   4.325 -0.8396 -0.3228 -0.2401
 7970TIP3    H123874   6.502   5.945   4.230  1.9486  0.7975  0.0406
 7970TIP3    H223875   6.520   5.848   4.345 -0.0011 -0.0928 -0.3562
 7971TIP3   OH223876   6.698   2.436   4.589  0.3625 -0.1524 -0.2733
 7971TIP3    H123877   6.710   2.394   4.504 -0.8806 -0.2236 -0.4388
 7971TIP3    H223878   6.779   2.417   4.637  0.7782 -0.7391 -1.1778
 7972TIP3   OH223879   0.569   0.811   3.994  0.6375  0.2055  0.2969
 7972TIP3    H123880   0.560   0.798   4.089 -0.0839  0.0475  0.2164
 7972TIP3    H223881   0.576   0.906   3.983  0.6600  0.2282  0.5045
 7973TIP3   OH223882   1.906   3.641   3.945  0.0904  0.2661  0.1518
 7973TIP3    H123883   1.981   3.682   3.903 -0.1189  1.0952  0.5574
 7973TIP3    H223884   1.830   3.679   3.901 -0.0914 -0.6580 -0.3410
 7974TIP3   OH223885   2.557   5.222   2.252 -0.4074 -0.1091 -0.3830
 7974TIP3    H123886   2.643   5.194   2.282 -0.6327  1.0185  1.5052
 7974TIP3    H223887   2.574   5.270   2.171  0.7837  0.3072  0.0970
 7975TIP3   OH223888   0.330   3.412   3.634 -0.4753 -0.8520 -0.3361
 7975TIP3    H123889   0.370   3.329   3.611 -2.3094 -1.9369  0.1677
 7975TIP3    H223890   0.357   3.428   3.724  1.6990  0.2974 -1.1121
 7976TIP3   OH223891   6.260   2.001   5.301 -0.1463 -0.5110 -0.1655
 7976TIP3    H123892   6.268   1.944   5.377 -3.2091 -0.1731  0.5488
 7976TIP3    H223893   6.229   1.944   5.230  0.0086 -0.3384 -0.3758
 7977TIP3   OH223894   6.476   6.022   5.160 -0.1719  0.5820 -0.3390
 7977TIP3    H123895   6.507   5.972   5.085 -1.6410 -0.0375 -0.5648
 7977TIP3    H223896   6.414   5.964   5.204 -0.9355  1.7133  0.1249
 7978TIP3   OH223897   6.866   4.678   1.578 -0.2732 -0.9848  0.3692
 7978TIP3    H123898   6.846   4.739   1.507 -0.0518 -0.6222  0.6138
 7978TIP3    H223899   6.813   4.708   1.651  1.4652  0.3012  1.1813
 7979TIP3   OH223900   4.395   4.415   5.849 -0.1073  0.2128 -0.1713
 7979TIP3    H123901   4.343   4.495   5.838 -1.1077 -0.3290  0.3889
 7979TIP3    H223902   4.367   4.359   5.776 -1.2632 -0.5486  0.8110
 7980TIP3   OH223903   2.653   5.614   3.455 -0.2114 -0.5734  0.1162
 7980TIP3    H123904   2.557   5.614   3.454 -0.2566  0.8051  1.8049
 7980TIP3    H223905   2.677   5.666   3.378 -0.9078  1.6602  1.3404
 7981TIP3   OH223906   6.708   6.569   3.721  0.0375 -0.0837 -0.1354
 7981TIP3    H123907   6.764   6.592   3.647  0.7551 -0.6716  0.2178
 7981TIP3    H223908   6.708   6.474   3.723 -1.5017 -0.1263 -0.5117
 7982TIP3   OH223909   2.521   6.673   0.877 -0.0266 -0.4340  0.6515
 7982TIP3    H123910   2.487   6.629   0.798  0.6115 -1.0253  0.6906
 7982TIP3    H223911   2.469   6.752   0.884 -1.6009 -1.4428  0.8897
 7983TIP3   OH223912   0.944   1.345   5.658  0.7889 -0.0291 -0.3267
 7983TIP3    H123913   0.906   1.388   5.581  2.0573  0.6133 -0.6203
 7983TIP3    H223914   1.032   1.320   5.630  1.0214 -0.3953  0.7019
 7984TIP3   OH223915   6.808   3.269   1.378  0.2560 -0.4816  0.3862
 7984TIP3    H123916   6.845   3.251   1.464  3.3939 -1.4076 -0.9855
 7984TIP3    H223917   6.836   3.359   1.358  1.8050 -1.1377 -0.6054
 7985TIP3   OH223918   0.695   0.518   1.524  0.1120 -0.3875  0.0923
 7985TIP3    H123919   0.605   0.533   1.554 -0.0920 -0.1589 -0.6153
 7985TIP3    H223920   0.727   0.448   1.581  0.1819  0.8878  1.6975
 7986TIP3   OH223921   3.204   4.878   4.401  0.2794  0.2496  0.7318
 7986TIP3    H123922   3.135   4.819   4.432  0.1657  0.4743  0.9084
 7986TIP3    H223923   3.259   4.823   4.346  0.1539 -0.0148  0.8678
 7987TIP3   OH223924   0.427   3.137   2.641 -0.0951  0.3497  0.1361
 7987TIP3    H123925   0.383   3.205   2.693  1.7372  2.8454 -1.3132
 7987TIP3    H223926   0.466   3.185   2.567  2.1808 -2.1353 -0.4503
 7988TIP3   OH223927   4.110   2.212   3.169 -0.1520  0.6613 -0.3176
 7988TIP3    H123928   4.137   2.206   3.077 -0.7411 -0.1902 -0.4496
 7988TIP3    H223929   4.192   2.211   3.219  0.1281 -0.4631 -0.7698
 7989TIP3   OH223930   5.743   2.420   3.312  0.7143 -0.1858 -0.0244
 7989TIP3    H123931   5.723   2.329   3.333 -0.7559  0.5284  2.1260
 7989TIP3    H223932   5.834   2.432   3.339  1.0154 -1.0859 -0.6257
 7990TIP3   OH223933   2.014   4.902   5.742  0.1455 -0.0100 -0.0924
 7990TIP3    H123934   1.952   4.835   5.771 -0.4268  0.4432 -0.2521
 7990TIP3    H223935   2.067   4.919   5.820  0.1949 -0.5352 -0.0059
 7991TIP3   OH223936   1.539   3.626   2.605 -0.2307  0.3081 -0.3185
 7991TIP3    H123937   1.572   3.537   2.591  1.4833  0.9033 -0.2997
 7991TIP3    H223938   1.452   3.625   2.566  0.1753 -1.0801 -1.2925
 7992TIP3   OH223939   3.167   6.642   3.063 -0.1344  0.1105 -0.4773
 7992TIP3    H123940   3.202   6.695   3.135  1.3839 -0.2362 -0.9387
 7992TIP3    H223941   3.107   6.701   3.017 -0.2597  0.6801  0.3897
 7993TIP3   OH223942   2.122   0.674   2.027  0.3007  0.2819  0.1737
 7993TIP3    H123943   2.057   0.743   2.012  0.5225  0.3675 -0.4407
 7993TIP3    H223944   2.151   0.688   2.117  0.5534  1.1864 -0.0344
 7994TIP3   OH223945   1.382   3.528   3.549 -0.1369  0.0762 -0.3588
 7994TIP3    H123946   1.344   3.575   3.475 -0.0414 -1.6718 -1.5734
 7994TIP3    H223947   1.382   3.592   3.620 -2.2705  1.1540 -1.2263
 7995TIP3   OH223948   0.736  -0.025   3.821 -0.2586  0.1307 -0.0403
 7995TIP3    H123949   0.767   0.054   3.864 -1.6552  1.1203 -0.8021
 7995TIP3    H223950   0.657   0.001   3.775 -0.4548 -1.5858 -0.7661
 7996TIP3   OH223951   0.411   0.722   4.910  0.8880 -0.0443 -0.6389
 7996TIP3    H123952   0.395   0.641   4.958 -1.8108  0.1745 -1.0049
 7996TIP3    H223953   0.494   0.755   4.945  0.5187 -1.3880  1.7177
 7997TIP3   OH223954   4.063   6.414   3.739 -0.3754 -0.0199 -0.1865
 7997TIP3    H123955   4.112   6.371   3.669  0.9808  1.7045 -0.3899
 7997TIP3    H223956   3.991   6.355   3.759  0.3135 -1.4450 -1.7082
 7998TIP3   OH223957   3.831   2.275   1.884 -0.0108  0.9321 -0.4613
 7998TIP3    H123958   3.826   2.240   1.973 -0.2180  0.1588 -0.7735
 7998TIP3    H223959   3.924   2.280   1.866  0.0340 -1.0526 -1.0153
 7999TIP3   OH223960   3.518   0.840   3.486  0.2153 -0.3806  0.2305
 7999TIP3    H123961   3.490   0.885   3.407  1.7232  0.0877 -0.0684
 7999TIP3    H223962   3.507   0.747   3.467  0.7981 -0.2767 -0.6127
 8000TIP3   OH223963   1.728   0.349   4.651  0.2363 -0.2025  0.3877
 8000TIP3    H123964   1.705   0.261   4.621  0.8372 -0.6014  1.0531
 8000TIP3    H223965   1.811   0.368   4.607  0.1167  0.0244  0.2599
 8001TIP3   OH223966   6.344   4.098   1.420 -0.2249  0.2217 -0.4247
 8001TIP3    H123967   6.394   4.104   1.339 -0.6066  0.2435 -0.6632
 8001TIP3    H223968   6.280   4.169   1.415 -1.6611 -1.0340 -1.1081
 8002TIP3   OH223969   0.257   5.066   2.310  0.8200 -0.0043  0.0647
 8002TIP3    H123970   0.276   5.138   2.250 -1.7937  1.1123  0.4685
 8002TIP3    H223971   0.200   5.008   2.260  1.5719 -0.9667  0.3017
 8003TIP3   OH223972   2.017   3.817   2.297 -0.9712  0.5037  0.1751
 8003TIP3    H123973   1.945   3.777   2.346 -1.2183  1.6893  0.8162
 8003TIP3    H223974   2.091   3.816   2.358 -1.1958  1.7091  0.4830
 8004TIP3   OH223975   3.310   0.108   5.318 -0.0219  0.3039 -0.2540
 8004TIP3    H123976   3.327   0.035   5.258 -1.3969  0.6599 -1.1142
 8004TIP3    H223977   3.385   0.107   5.378 -0.0934 -1.9515 -0.0909
 8005TIP3   OH223978   1.476   4.031   4.604 -0.4696 -0.3719 -0.2459
 8005TIP3    H123979   1.537   4.070   4.542 -0.7976 -0.0971 -0.4020
 8005TIP3    H223980   1.444   3.952   4.560 -1.5319  0.3936 -0.9142
 8006TIP3   OH223981   2.848   4.856   1.266 -0.0494  0.0126  0.3600
 8006TIP3    H123982   2.834   4.938   1.313  1.1101 -0.0604  0.8603
 8006TIP3    H223983   2.826   4.876   1.175 -0.9849  0.5234  0.6775
 8007TIP3   OH223984   1.616   6.594   4.226 -0.4082 -0.0519  0.8882
 8007TIP3    H123985   1.620   6.670   4.285  1.3168  0.0411  0.7183
 8007TIP3    H223986   1.571   6.527   4.276 -0.3472  0.5182  1.7323
 8008TIP3   OH223987   3.720   1.895   0.299  0.1017 -0.3277  0.0482
 8008TIP3    H123988   3.783   1.873   0.230  1.0050 -0.6450  0.9545
 8008TIP3    H223989   3.635   1.893   0.255  0.7162  0.2047 -1.2241
 8009TIP3   OH223990   5.574   3.062   1.938  0.0244  0.2397 -0.2164
 8009TIP3    H123991   5.587   3.025   1.851  1.0453 -1.6853  0.6989
 8009TIP3    H223992   5.599   2.992   1.999 -1.0604  1.3684  1.6468
 8010TIP3   OH223993   2.963   4.993   4.148 -0.1541 -0.9455  0.8034
 8010TIP3    H123994   2.959   4.897   4.148  0.9437 -1.0168  2.3941
 8010TIP3    H223995   3.054   5.013   4.125 -0.1549 -0.3044  1.3515
 8011TIP3   OH223996   0.984   2.908   2.759  0.0114 -0.7230  0.3871
 8011TIP3    H123997   0.894   2.933   2.734 -0.1644 -0.0422  1.6300
 8011TIP3    H223998   1.037   2.983   2.733  0.1872 -1.0117 -0.0956
 8012TIP3   OH223999   4.154   0.789   2.511  0.3887  0.2907  0.1025
 8012TIP3    H124000   4.187   0.730   2.579 -0.1934  0.3382  0.4289
 8012TIP3    H224001   4.228   0.847   2.492  0.4474  0.4873  0.9258
 8013TIP3   OH224002   3.137   1.698   2.333  0.5334 -0.1067 -0.5655
 8013TIP3    H124003   3.226   1.681   2.365  0.3588 -2.3568 -1.0834
 8013TIP3    H224004   3.089   1.618   2.354 -1.6338  1.3581  0.4444
 8014TIP3   OH224005   2.916   2.304   3.046 -0.2194 -0.5302  0.1987
 8014TIP3    H124006   2.821   2.312   3.033 -0.0440  0.2640 -0.6667
 8014TIP3    H224007   2.945   2.392   3.071 -0.0825 -1.3375  3.2059
 8015TIP3   OH224008   1.378   5.341   1.053 -0.3215  0.1898  0.0605
 8015TIP3    H124009   1.396   5.434   1.063  1.4889 -0.2347  1.2075
 8015TIP3    H224010   1.449   5.297   1.099  0.1403 -1.8222 -2.3530
 8016TIP3   OH224011   0.150   2.370   1.363 -0.5068  0.5816  0.0007
 8016TIP3    H124012   0.080   2.310   1.388 -1.6560  0.4759 -3.0960
 8016TIP3    H224013   0.121   2.455   1.394 -1.3894  0.3243 -0.0858
 8017TIP3   OH224014   5.903   3.766   2.543  0.5509  0.0320  0.9104
 8017TIP3    H124015   5.915   3.742   2.451  1.6066 -2.6725  1.6408
 8017TIP3    H224016   5.820   3.813   2.546 -0.0556 -0.8115 -1.2700
 8018TIP3   OH224017   1.614   5.392   5.883 -0.1191  0.2557 -0.2669
 8018TIP3    H124018   1.650   5.472   5.922 -0.4612  0.3940 -0.2329
 8018TIP3    H224019   1.567   5.422   5.806 -2.0925  0.3550  0.9192
 8019TIP3   OH224020   6.667   5.595   4.049 -0.5791 -0.2860  0.6586
 8019TIP3    H124021   6.695   5.511   4.013 -1.8695 -0.2487 -0.4891
 8019TIP3    H224022   6.691   5.659   3.981  0.6756  0.3571  1.6490
 8020TIP3   OH224023   2.173   4.389   4.120 -0.2540 -0.5043 -0.4851
 8020TIP3    H124024   2.251   4.340   4.092 -1.3214 -0.5558 -3.8088
 8020TIP3    H224025   2.102   4.325   4.115 -0.9008  0.1562  0.0975
 8021TIP3   OH224026   5.939   1.990   1.062 -0.3768 -0.6940  0.3124
 8021TIP3    H124027   5.875   2.051   1.096 -1.9405 -1.8387 -0.4703
 8021TIP3    H224028   5.991   2.041   1.000 -0.2277  0.3420  1.2595
 8022TIP3   OH224029   1.505  -0.003   3.515  0.0615  0.2927 -0.1117
 8022TIP3    H124030   1.487   0.075   3.463 -0.0216  0.0744 -0.4185
 8022TIP3    H224031   1.582   0.019   3.567 -0.6011  0.9558  0.6090
 8023TIP3   OH224032   0.124   1.380   5.130 -0.2775  0.5946  0.0574
 8023TIP3    H124033   0.182   1.407   5.059 -0.4506  0.3632 -0.1761
 8023TIP3    H224034   0.040   1.362   5.086 -0.0843 -0.6164  0.1626
 8024TIP3   OH224035   2.464   0.604   2.947 -0.2033 -0.1342  0.5984
 8024TIP3    H124036   2.505   0.520   2.965 -0.8359 -0.7129 -0.5234
 8024TIP3    H224037   2.480   0.619   2.854  0.6156  1.4048  0.9465
 8025TIP3   OH224038   3.889   0.094   2.129  0.3060  0.1391  0.1084
 8025TIP3    H124039   3.803   0.060   2.152  0.2438  0.3838  0.2420
 8025TIP3    H224040   3.905   0.164   2.192  1.0586 -0.5935  0.7679
 8026TIP3   OH224041   0.736   1.750   1.780 -0.7775  0.2779 -0.5529
 8026TIP3    H124042   0.779   1.669   1.751  0.4519  0.9245 -0.6169
 8026TIP3    H224043   0.644   1.727   1.787 -0.5412 -0.9555 -1.1887
 8027TIP3   OH224044   4.405   2.398   1.073 -0.2320 -0.1886  0.3618
 8027TIP3    H124045   4.437   2.479   1.111  0.0719 -0.1015 -0.0669
 8027TIP3    H224046   4.335   2.425   1.014 -0.3856 -0.2747  0.5053
 8028TIP3   OH224047   2.878   0.842   4.282  0.3332  0.9155 -0.3262
 8028TIP3    H124048   2.890   0.824   4.189 -1.1052 -1.0098 -0.1994
 8028TIP3    H224049   2.829   0.925   4.284  0.3378  0.9519 -1.2817
 8029TIP3   OH224050   1.357   6.369   5.714 -0.3212 -0.0168 -0.4152
 8029TIP3    H124051   1.283   6.401   5.663  0.0969  0.0521 -0.9880
 8029TIP3    H224052   1.342   6.275   5.722 -1.4325  0.2413  1.0739
 8030TIP3   OH224053   4.142   0.324   2.771  0.1512  0.2039  0.2256
 8030TIP3    H124054   4.173   0.407   2.734 -0.9890 -0.5251 -2.6820
 8030TIP3    H224055   4.198   0.258   2.730 -0.1174 -0.6023  1.1254
 8031TIP3   OH224056   5.562   2.348   5.770  0.0289 -0.5545  0.3745
 8031TIP3    H124057   5.548   2.402   5.692 -0.6780  0.2418  1.0402
 8031TIP3    H224058   5.657   2.346   5.780  0.0796  0.4268  0.2323
 8032TIP3   OH224059   3.802   1.230   0.467 -0.1247  0.1747  0.4365
 8032TIP3    H124060   3.755   1.271   0.395 -0.2399  0.0273  0.4277
 8032TIP3    H224061   3.893   1.256   0.454 -0.3395  1.2156  0.9754
 8033TIP3   OH224062   4.874   4.332   4.295 -0.0602 -0.0433 -0.6617
 8033TIP3    H124063   4.860   4.330   4.389 -0.6225  0.1221 -0.7349
 8033TIP3    H224064   4.833   4.251   4.263  1.0104 -0.5982 -0.6570
 8034TIP3   OH224065   6.661   3.160   5.767  0.4414  0.1722 -0.3310
 8034TIP3    H124066   6.612   3.227   5.814 -0.9748 -0.6236 -0.5829
 8034TIP3    H224067   6.734   3.206   5.727 -0.2243  1.4760 -0.0954
 8035TIP3   OH224068   5.507   4.631   1.384 -0.0956 -0.0500 -0.0861
 8035TIP3    H124069   5.570   4.644   1.455  1.3122  0.0143 -1.2805
 8035TIP3    H224070   5.547   4.562   1.330 -1.6366 -0.8331 -0.2650
 8036TIP3   OH224071   1.691   3.783   2.781  0.2772  0.4604 -0.1937
 8036TIP3    H124072   1.717   3.863   2.735 -0.8454  1.3696  0.6805
 8036TIP3    H224073   1.657   3.726   2.713 -1.1766  1.7049 -0.5729
 8037TIP3   OH224074   5.125   4.030   4.317 -0.5817  0.6588  0.5311
 8037TIP3    H124075   5.144   4.027   4.411  0.3187 -0.0385  0.3442
 8037TIP3    H224076   5.036   3.995   4.310  0.7244 -3.1630  0.8234
 8038TIP3   OH224077   3.579   1.332   5.894  0.2884 -0.0072 -0.0971
 8038TIP3    H124078   3.576   1.252   5.841  1.7322  0.0987 -0.3719
 8038TIP3    H224079   3.499   1.379   5.870  0.2762 -0.5602 -1.2303
 8039TIP3   OH224080   3.606   2.273   3.946 -0.3599  0.0310 -0.4481
 8039TIP3    H124081   3.540   2.207   3.924 -1.5011  0.8587  0.3749
 8039TIP3    H224082   3.689   2.225   3.944 -1.0100 -1.1127 -1.1954
 8040TIP3   OH224083   0.376   1.503   3.888 -0.1639  0.3742 -0.3911
 8040TIP3    H124084   0.439   1.541   3.948 -0.1219  0.1865 -0.3151
 8040TIP3    H224085   0.349   1.576   3.832 -0.8061  0.7355  0.3717
 8041TIP3   OH224086   5.400   0.090   2.232 -0.1082 -0.5585  0.0574
 8041TIP3    H124087   5.364   0.135   2.309  1.1181  0.4169  0.0960
 8041TIP3    H224088   5.444   0.013   2.268  0.3420 -0.1803  0.3446
 8042TIP3   OH224089   0.174   4.244   5.695  0.0806 -0.3053  0.3836
 8042TIP3    H124090   0.190   4.337   5.680  0.9906 -0.5457 -0.2605
 8042TIP3    H224091   0.079   4.234   5.685  0.0480  0.4462 -0.1815
 8043TIP3   OH224092   6.933   3.954   0.819 -0.0743 -0.3003  0.4050
 8043TIP3    H124093   6.994   3.883   0.839 -1.2828 -1.6706 -0.5398
 8043TIP3    H224094   6.920   3.949   0.724 -0.9899  0.5085  0.4659
 8044TIP3   OH224095   6.214   6.098   4.147 -0.2773  0.0938 -0.3120
 8044TIP3    H124096   6.149   6.150   4.099  1.4393  3.3320  0.5807
 8044TIP3    H224097   6.192   6.110   4.239  0.6563 -0.0608 -0.0573
 8045TIP3   OH224098   3.037   4.067   1.733 -0.8903  0.0537 -0.2899
 8045TIP3    H124099   2.954   4.024   1.715 -0.5723 -0.4053 -0.6863
 8045TIP3    H224100   3.060   4.112   1.652 -0.4554 -0.3265 -0.3824
 8046TIP3   OH224101   2.187   4.652   4.166 -0.3235 -0.3399 -0.1219
 8046TIP3    H124102   2.177   4.558   4.150  0.8734 -0.5978  0.4810
 8046TIP3    H224103   2.269   4.674   4.122  0.0696  0.1350  0.8298
 8047TIP3   OH224104   0.845   2.309   3.373 -0.0990 -0.1654 -0.0867
 8047TIP3    H124105   0.863   2.220   3.343 -0.5799 -0.2678 -0.0740
 8047TIP3    H224106   0.932   2.347   3.387  0.1132 -0.5591 -0.3000
 8048TIP3   OH224107   0.666   4.577   2.993 -0.3495 -0.1848  0.1206
 8048TIP3    H124108   0.647   4.580   3.087  1.2556 -1.0305  0.5050
 8048TIP3    H224109   0.658   4.485   2.970 -2.8676  0.2615 -1.1016
 8049TIP3   OH224110   5.538   5.101   4.310  0.0260  0.2122 -0.0993
 8049TIP3    H124111   5.593   5.058   4.244  0.0573 -0.2149  0.1957
 8049TIP3    H224112   5.539   5.040   4.384 -0.2399  0.5537  0.1866
 8050TIP3   OH224113   3.481   2.306   4.494 -0.1443  0.1348 -0.1483
 8050TIP3    H124114   3.543   2.258   4.439  0.8341 -0.5596  1.4637
 8050TIP3    H224115   3.397   2.263   4.478  0.7568 -2.5167  1.4940
 8051TIP3   OH224116   1.012   0.922   2.990 -0.3880 -0.2846 -0.3323
 8051TIP3    H124117   1.044   0.832   2.985 -1.3702 -0.6364 -0.3591
 8051TIP3    H224118   0.958   0.925   3.069  0.5647  0.5929  0.3133
 8052TIP3   OH224119   5.914   6.079   4.358  0.0531 -0.6463 -0.0340
 8052TIP3    H124120   5.928   5.992   4.320 -1.0636 -0.7730 -0.1713
 8052TIP3    H224121   5.835   6.070   4.411  0.2814  0.1369  0.4597
 8053TIP3   OH224122   2.867   0.433   4.967 -0.3471 -0.1286  0.4542
 8053TIP3    H124123   2.903   0.348   4.994 -2.4046 -1.1494  0.2050
 8053TIP3    H224124   2.818   0.464   5.043 -2.3259 -0.7997 -0.4691
 8054TIP3   OH224125   6.755   3.253   0.464  0.2964  0.3617  0.2364
 8054TIP3    H124126   6.686   3.266   0.399 -0.4047  2.2205  1.2622
 8054TIP3    H224127   6.836   3.257   0.415 -0.1873  2.3530 -0.5009
 8055TIP3   OH224128   1.097   4.556   5.077  0.2557  0.1667 -0.1008
 8055TIP3    H124129   1.149   4.584   5.002  2.0988  0.2774  1.1646
 8055TIP3    H224130   1.156   4.501   5.128 -1.1811 -0.4730  0.9253
 8056TIP3   OH224131   5.697   2.328   1.348 -0.0961 -0.5981 -0.7172
 8056TIP3    H124132   5.694   2.276   1.267 -2.2737  0.9587 -1.7307
 8056TIP3    H224133   5.698   2.263   1.418 -1.0507 -2.0148 -1.9560
 8057TIP3   OH224134   5.719   2.406   5.420 -0.1334  0.1499  0.0732
 8057TIP3    H124135   5.751   2.379   5.334  1.7175 -0.4920  0.8933
 8057TIP3    H224136   5.624   2.408   5.411 -0.0972 -1.6455 -1.4944
 8058TIP3   OH224137   1.990   3.324   1.580 -0.1759  0.4539  0.3382
 8058TIP3    H124138   1.989   3.250   1.519  0.5289  0.4071  0.3736
 8058TIP3    H224139   1.921   3.304   1.643  0.7066 -0.7271  0.9814
 8059TIP3   OH224140   1.591   6.619   5.488  0.5067  0.2249 -0.1314
 8059TIP3    H124141   1.585   6.666   5.405 -1.8288 -0.5026 -0.4430
 8059TIP3    H224142   1.564   6.683   5.554 -2.2421 -0.3958 -0.5106
 8060TIP3   OH224143   0.564   1.446   2.365  0.4023 -0.1139  0.0695
 8060TIP3    H124144   0.584   1.456   2.458 -0.8335  3.0327  0.1158
 8060TIP3    H224145   0.505   1.370   2.361  1.8313 -1.3850  1.5465
 8061TIP3   OH224146   6.150   4.848   2.721  0.1608  0.0669  0.6560
 8061TIP3    H124147   6.100   4.853   2.639 -1.1634 -0.8791  1.3583
 8061TIP3    H224148   6.231   4.803   2.697  0.2730  0.7367 -0.3184
 8062TIP3   OH224149   6.165   4.311   0.157  0.1179  0.2081 -0.7854
 8062TIP3    H124150   6.239   4.264   0.193 -0.0120 -0.7792 -1.7420
 8062TIP3    H224151   6.159   4.281   0.066  0.0311  2.0778 -1.4597
 8063TIP3   OH224152   5.815   1.411   4.608 -0.1275 -0.1491 -0.2916
 8063TIP3    H124153   5.722   1.394   4.591 -0.4751  1.2097  0.0990
 8063TIP3    H224154   5.846   1.458   4.531 -0.2383  0.9634  0.3225
 8064TIP3   OH224155   3.228   1.028   1.625  0.1641  0.0633  0.3894
 8064TIP3    H124156   3.272   0.967   1.685  0.0181  1.3961  1.9172
 8064TIP3    H224157   3.189   1.093   1.682 -0.5158  1.0600 -1.1572
 8065TIP3   OH224158   3.153   4.035   4.506 -0.4049  0.0222 -0.8074
 8065TIP3    H124159   3.150   3.961   4.567  0.5951  0.5159 -0.1250
 8065TIP3    H224160   3.145   3.996   4.420 -0.8812 -0.7811 -0.4108
 8066TIP3   OH224161   2.499   2.676   4.999 -0.0341  0.2140 -0.4263
 8066TIP3    H124162   2.413   2.663   5.039  0.1468  2.1366  0.7428
 8066TIP3    H224163   2.497   2.766   4.966 -0.2512 -1.2833 -5.2112
 8067TIP3   OH224164   0.689   1.396   0.530 -0.7825 -0.2193  0.1378
 8067TIP3    H124165   0.746   1.351   0.467 -0.0126 -0.2358  0.8260
 8067TIP3    H224166   0.601   1.370   0.506 -0.5763  0.5170 -1.5362
 8068TIP3   OH224167   0.485   3.925   1.519 -0.4518 -0.5583  0.0068
 8068TIP3    H124168   0.479   3.983   1.595  1.3689 -1.3822  0.8486
 8068TIP3    H224169   0.477   3.983   1.444 -0.7163  0.5044  0.8337
 8069TIP3   OH224170   2.703   1.306   5.707 -1.0511  0.4003 -0.0063
 8069TIP3    H124171   2.789   1.348   5.707 -1.5815  1.5919 -1.7308
 8069TIP3    H224172   2.698   1.262   5.623 -1.7375 -0.5382  0.5136
 8070TIP3   OH224173   1.977   6.412   5.229 -0.6338 -0.2608  0.0294
 8070TIP3    H124174   1.975   6.340   5.292  0.9340 -0.4108 -0.0580
 8070TIP3    H224175   1.942   6.374   5.149  0.6499 -1.1112 -0.1621
 8071TIP3   OH224176   2.200   5.871   1.858 -0.3183 -0.3816 -0.0882
 8071TIP3    H124177   2.146   5.859   1.936 -0.1887 -1.8983 -0.1912
 8071TIP3    H224178   2.196   5.786   1.813 -0.4005  0.4528 -1.7382
 8072TIP3   OH224179   2.463   2.123   1.841 -0.0815  0.3783  0.6599
 8072TIP3    H124180   2.382   2.169   1.865 -0.2836  1.3240 -1.6272
 8072TIP3    H224181   2.529   2.159   1.901 -0.7499  1.8638  0.5592
 8073TIP3   OH224182   5.589   3.624   2.809  0.5248 -0.8140  1.1356
 8073TIP3    H124183   5.537   3.616   2.730  3.3015 -1.4526 -0.7686
 8073TIP3    H224184   5.616   3.534   2.829  1.0280 -0.4925  1.9573
 8074TIP3   OH224185   4.777   3.881   0.129 -1.0216  0.2939  0.0367
 8074TIP3    H124186   4.835   3.925   0.066 -1.4180  0.6292 -0.0988
 8074TIP3    H224187   4.836   3.847   0.196 -0.6786  0.7633 -0.0214
 8075TIP3   OH224188   4.680   0.574   5.242 -0.0771  0.4274 -0.0722
 8075TIP3    H124189   4.741   0.514   5.284 -1.7022 -1.0814  0.2710
 8075TIP3    H224190   4.662   0.535   5.157  0.3691  1.5186 -0.6897
 8076TIP3   OH224191   5.722   3.326   4.364  0.1603 -0.5687  0.2907
 8076TIP3    H124192   5.765   3.289   4.441 -1.0062  0.3893  1.4622
 8076TIP3    H224193   5.666   3.256   4.331  0.3522 -0.8557  0.5787
 8077TIP3   OH224194   0.605   0.919   3.706  0.1826 -0.3624 -0.3553
 8077TIP3    H124195   0.666   0.980   3.664  0.6457 -1.6448 -1.6416
 8077TIP3    H224196   0.660   0.868   3.765  0.3328 -1.3583 -1.3354
 8078TIP3   OH224197   4.454   1.115   1.977  0.1452 -0.1993  0.3608
 8078TIP3    H124198   4.499   1.156   1.903 -1.2193  0.7751  0.0409
 8078TIP3    H224199   4.516   1.122   2.049  0.4166  1.3789  0.0120
 8079TIP3   OH224200   4.557   0.221   2.370 -0.1980  0.0577  0.4031
 8079TIP3    H124201   4.588   0.164   2.440  3.0022  0.0432 -0.8686
 8079TIP3    H224202   4.536   0.162   2.298 -0.7336  0.2658  0.3797
 8080TIP3   OH224203   2.558   4.443   4.132 -0.3162 -0.2552 -0.2690
 8080TIP3    H124204   2.496   4.389   4.081 -1.1515  1.5500 -1.2543
 8080TIP3    H224205   2.542   4.418   4.223 -0.2739 -2.0556 -0.7112
 8081TIP3   OH224206   6.174   1.576   2.143 -0.4987  0.2026  0.0807
 8081TIP3    H124207   6.098   1.633   2.159  0.5317  1.3666  0.9858
 8081TIP3    H224208   6.243   1.612   2.198  1.2440  0.2534 -1.9970
 8082TIP3   OH224209   3.201   1.891   5.738 -0.2190  0.0044 -0.0973
 8082TIP3    H124210   3.201   1.985   5.724 -0.0649  0.0081 -0.0718
 8082TIP3    H224211   3.286   1.872   5.779 -0.1706 -0.1696 -0.2751
 8083TIP3   OH224212   0.070   2.231   3.797 -0.5148 -0.4861  0.2211
 8083TIP3    H124213   0.029   2.212   3.881  1.7545  0.1600  1.5496
 8083TIP3    H224214   0.116   2.314   3.810 -1.1011  0.2700 -2.0582
 8084TIP3   OH224215   2.594   2.970   5.762 -0.9429  0.0586  0.2704
 8084TIP3    H124216   2.530   3.039   5.775 -1.5660 -0.5396  0.4127
 8084TIP3    H224217   2.600   2.926   5.847 -1.9614 -1.2542 -0.3003
 8085TIP3   OH224218   6.303   4.295   5.464  0.0051  0.3558 -0.5328
 8085TIP3    H124219   6.282   4.265   5.376  0.4643  0.3174 -0.6315
 8085TIP3    H224220   6.396   4.317   5.461 -0.0111  0.5065 -0.1005
 8086TIP3   OH224221   5.703   4.571   3.272 -0.3416  0.0459 -0.3317
 8086TIP3    H124222   5.681   4.649   3.221  1.4369  1.6311  1.1701
 8086TIP3    H224223   5.619   4.529   3.289 -1.2477  1.0493 -2.0731
 8087TIP3   OH224224   1.396   6.440   0.194 -0.0079  0.2546 -0.0299
 8087TIP3    H124225   1.364   6.401   0.275 -1.4499 -0.8646 -1.0758
 8087TIP3    H224226   1.336   6.512   0.176 -0.4960 -0.3106 -0.7398
 8088TIP3   OH224227   7.103   0.535   4.319  0.0392 -0.3169  0.4419
 8088TIP3    H124228   7.144   0.504   4.399 -1.9653 -1.4161  1.1249
 8088TIP3    H224229   7.113   0.464   4.257  1.0978  0.3131 -0.1387
 8089TIP3   OH224230   6.688   0.196   0.555  0.8706  0.2048  0.0805
 8089TIP3    H124231   6.730   0.253   0.620  0.4773 -0.8803  1.3309
 8089TIP3    H224232   6.683   0.111   0.598  0.3699 -0.4899 -1.3032
 8090TIP3   OH224233   4.451   5.598   3.198  0.4280  0.5113 -0.3650
 8090TIP3    H124234   4.409   5.540   3.263 -3.2499  1.4104 -1.6648
 8090TIP3    H224235   4.464   5.542   3.122  2.3050  0.0836  0.2373
 8091TIP3   OH224236   5.292   5.614   0.476  0.5216  0.1814 -0.0579
 8091TIP3    H124237   5.272   5.670   0.400 -4.1070 -0.7810  0.1413
 8091TIP3    H224238   5.297   5.675   0.549  0.1118  0.7497 -0.4863
 8092TIP3   OH224239   7.081   1.123   5.855 -0.3720 -0.1141 -0.5496
 8092TIP3    H124240   7.104   1.128   5.948  1.4379  0.0472 -0.9657
 8092TIP3    H224241   7.043   1.208   5.835 -1.3706 -0.3825  0.1824
 8093TIP3   OH224242   4.245   2.196   4.820 -0.3131  0.3072 -0.0944
 8093TIP3    H124243   4.335   2.204   4.788  0.2084 -1.9639  0.6122
 8093TIP3    H224244   4.239   2.106   4.852 -2.6533  0.6105  0.5016
 8094TIP3   OH224245   6.959   6.269   2.728 -0.1809  0.4464 -0.5605
 8094TIP3    H124246   6.982   6.181   2.756 -1.5517  0.0849 -0.5045
 8094TIP3    H224247   7.039   6.320   2.743  0.2837 -0.5305  0.4884
 8095TIP3   OH224248   3.207   5.430   3.381  0.3320 -0.0482 -0.0172
 8095TIP3    H124249   3.121   5.433   3.424 -0.1593 -0.9103 -0.9221
 8095TIP3    H224250   3.192   5.470   3.295  0.8420 -0.1875 -0.1726
 8096TIP3   OH224251   4.689   5.955   1.110  0.3317 -0.5793  0.0781
 8096TIP3    H124252   4.648   5.917   1.032  1.2318  0.2678 -0.8365
 8096TIP3    H224253   4.619   5.956   1.175 -0.6008 -0.7893 -0.8853
 8097TIP3   OH224254   6.331   1.786   1.096  0.1262 -0.0077 -0.0319
 8097TIP3    H124255   6.353   1.693   1.092  2.2046  0.3754  0.8892
 8097TIP3    H224256   6.393   1.822   1.160 -0.4106  2.0758 -0.6119
 8098TIP3   OH224257   5.526   2.987   4.498 -0.2130  0.0166 -0.0256
 8098TIP3    H124258   5.491   2.938   4.423  0.6994  0.1770 -0.5746
 8098TIP3    H224259   5.542   2.921   4.565  0.2320 -0.3270 -0.4628
 8099TIP3   OH224260   6.809   5.596   5.325  0.1940 -0.1916  0.2626
 8099TIP3    H124261   6.716   5.612   5.337 -0.3121 -1.7884 -1.0787
 8099TIP3    H224262   6.837   5.551   5.405 -0.6430 -1.3148 -0.0442
 8100TIP3   OH224263   2.738   1.203   3.810 -0.2224 -0.0411  0.1296
 8100TIP3    H124264   2.673   1.162   3.753 -0.4785  1.1243 -0.4387
 8100TIP3    H224265   2.715   1.296   3.811  1.1271  0.3198  0.3293
 8101TIP3   OH224266   4.912   0.456   1.668  0.2701 -0.0479  0.0475
 8101TIP3    H124267   4.889   0.462   1.761 -0.8303 -1.2041 -0.1172
 8101TIP3    H224268   4.838   0.411   1.628  0.6562  0.5796 -1.4321
 8102TIP3   OH224269   5.813   4.907   3.557 -0.7836 -0.4472 -0.4155
 8102TIP3    H124270   5.799   4.813   3.544 -1.1306 -0.5627  0.7122
 8102TIP3    H224271   5.775   4.925   3.643  1.1066  0.3324  0.2919
 8103TIP3   OH224272   4.284   6.472   1.511 -0.3357  0.0269 -0.4482
 8103TIP3    H124273   4.342   6.450   1.583 -0.0832  0.8131 -0.4034
 8103TIP3    H224274   4.298   6.403   1.447 -1.5711 -1.4487  0.8074
 8104TIP3   OH224275   5.227   3.543   1.700 -0.0079 -0.5518  0.0718
 8104TIP3    H124276   5.201   3.607   1.634 -1.6033  0.2436  1.3831
 8104TIP3    H224277   5.318   3.522   1.679  0.6543  2.2927 -0.3007
 8105TIP3   OH224278   1.022   2.514   4.331  0.2412 -0.4753 -0.2498
 8105TIP3    H124279   1.091   2.504   4.266  2.6024  1.3551  1.7607
 8105TIP3    H224280   1.028   2.436   4.386  0.3456 -0.5728 -0.3992
 8106TIP3   OH224281   4.907   0.207   0.445  0.2645  0.0515  0.9361
 8106TIP3    H124282   4.987   0.244   0.406  1.6724 -2.6857  1.0197
 8106TIP3    H224283   4.837   0.263   0.412  2.0109  1.4874 -0.6061
 8107TIP3   OH224284   1.139   3.184   0.996 -0.2343 -0.6785  0.1899
 8107TIP3    H124285   1.202   3.196   1.067 -0.5750 -0.1461  0.4147
 8107TIP3    H224286   1.067   3.134   1.036  0.0447 -1.2902 -0.0668
 8108TIP3   OH224287   5.564   2.310   0.345 -0.3717  0.2492 -0.5219
 8108TIP3    H124288   5.498   2.375   0.322  0.0796  0.7273 -0.4936
 8108TIP3    H224289   5.606   2.289   0.261  0.3005  0.9110 -0.3606
 8109TIP3   OH224290   2.868   3.902   2.300 -0.8035  0.3216 -0.1647
 8109TIP3    H124291   2.892   3.989   2.334 -1.1994  0.9937 -1.5405
 8109TIP3    H224292   2.950   3.853   2.300 -0.0693  1.4803 -1.6034
 8110TIP3   OH224293   4.839   5.583   5.165 -0.0004  0.0632 -0.1917
 8110TIP3    H124294   4.802   5.637   5.095  0.2842  0.5684  0.0437
 8110TIP3    H224295   4.933   5.580   5.145  0.3633  1.6018  1.0763
 8111TIP3   OH224296   0.964   0.067   5.211 -0.4116  0.3901 -0.0971
 8111TIP3    H124297   1.043   0.014   5.211  0.3997  1.5568 -0.6305
 8111TIP3    H224298   0.946   0.084   5.304  1.0611  1.6701 -0.0177
 8112TIP3   OH224299   3.688   6.743   4.104 -0.4722 -0.2437  0.1931
 8112TIP3    H124300   3.644   6.800   4.167 -0.6881 -0.7746  0.5322
 8112TIP3    H224301   3.635   6.749   4.025  0.2955  1.1231 -0.2531
 8113TIP3   OH224302   5.596   2.537   2.835 -0.0197  0.4749  0.1576
 8113TIP3    H124303   5.544   2.461   2.863  1.3009 -0.4128  0.2899
 8113TIP3    H224304   5.636   2.569   2.916  1.8501 -0.5929 -0.2854
 8114TIP3   OH224305   5.914   3.880   5.241 -0.1412  0.7217 -0.1390
 8114TIP3    H124306   5.972   3.948   5.275 -0.3314  0.1005  1.5148
 8114TIP3    H224307   5.894   3.826   5.317 -0.6039 -0.7457 -1.2691
 8115TIP3   OH224308   0.251   1.775   0.520  0.5929 -0.5375  0.4912
 8115TIP3    H124309   0.214   1.702   0.569  0.6894 -1.2671 -0.4871
 8115TIP3    H224310   0.183   1.842   0.520  0.4644 -0.6623  1.3160
 8116TIP3   OH224311   5.868   5.840   5.820 -0.6172  0.0691 -0.4628
 8116TIP3    H124312   5.820   5.758   5.830 -0.2811 -0.1695 -0.7893
 8116TIP3    H224313   5.942   5.833   5.881 -1.0626  0.4888  0.1314
 8117TIP3   OH224314   7.170   6.513   4.691  0.1701  0.4410  0.4881
 8117TIP3    H124315   7.149   6.546   4.778 -0.5987 -0.8218  0.8039
 8117TIP3    H224316   7.233   6.443   4.706  1.1289  1.1615 -0.1012
 8118TIP3   OH224317   1.511   4.553   5.028 -0.2931 -0.0578  0.3645
 8118TIP3    H124318   1.599   4.515   5.025 -0.3125 -0.1425  0.9003
 8118TIP3    H224319   1.491   4.572   4.936 -0.0548 -0.8143  0.1526
 8119TIP3   OH224320   6.210   4.926   1.106 -0.4405  0.0877 -0.7086
 8119TIP3    H124321   6.242   5.002   1.154  2.6542 -0.0846 -2.2350
 8119TIP3    H224322   6.151   4.963   1.040  0.4006  1.0843 -0.9286
 8120TIP3   OH224323   3.639   2.865   4.365 -0.4518 -0.7642  1.2036
 8120TIP3    H124324   3.598   2.796   4.418 -1.8051 -0.2641  0.8439
 8120TIP3    H224325   3.620   2.840   4.274 -1.3909  0.3090  1.0778
 8121TIP3   OH224326   0.967   4.551   4.634  0.5725  0.4130 -0.0608
 8121TIP3    H124327   1.033   4.596   4.687  0.0954  0.3132  0.6371
 8121TIP3    H224328   1.006   4.467   4.612  0.8441  0.5285 -0.0259
 8122TIP3   OH224329   2.706   6.228   1.831 -0.0461 -0.0960 -0.0987
 8122TIP3    H124330   2.690   6.286   1.757 -2.4510 -0.5133  0.0010
 8122TIP3    H224331   2.782   6.176   1.805  0.0599  0.7668 -1.6334
 8123TIP3   OH224332   2.939   2.848   3.885 -0.0744 -0.3043 -0.1121
 8123TIP3    H124333   2.992   2.913   3.839 -1.7932  1.3512  0.1038
 8123TIP3    H224334   2.994   2.819   3.958  0.8019  0.7960 -0.3111
 8124TIP3   OH224335   4.188   3.015   3.884  0.2787  0.5295  0.1767
 8124TIP3    H124336   4.199   3.085   3.819  0.3815 -0.7761 -1.2816
 8124TIP3    H224337   4.105   3.034   3.927 -1.0517  0.1602 -2.0576
 8125TIP3   OH224338   0.685   3.472   5.525 -0.3486 -0.3110 -0.5804
 8125TIP3    H124339   0.711   3.481   5.434  3.4294  0.6911  0.4139
 8125TIP3    H224340   0.652   3.559   5.550  2.0859  0.5775 -0.1734
 8126TIP3   OH224341   6.267   5.173   0.138 -0.1045  0.3170  0.3719
 8126TIP3    H124342   6.342   5.114   0.146  0.0377  0.4972  0.3975
 8126TIP3    H224343   6.204   5.143   0.203 -0.1355  0.0437  0.2149
 8127TIP3   OH224344   0.866   0.439   4.574  0.0429  0.2084  0.6068
 8127TIP3    H124345   0.943   0.488   4.606  1.4724 -0.6707 -1.2792
 8127TIP3    H224346   0.904   0.363   4.529 -1.9754 -0.4496 -0.0602
 8128TIP3   OH224347   3.814   2.490   3.827  0.1006  0.1599 -0.2394
 8128TIP3    H124348   3.842   2.400   3.842  0.5694  0.1666 -1.0063
 8128TIP3    H224349   3.781   2.519   3.912  0.4157 -0.5659  0.1464
 8129TIP3   OH224350   5.688   4.647   0.688 -0.5743  0.2577  0.0142
 8129TIP3    H124351   5.607   4.619   0.729 -1.0537  2.2587  0.5368
 8129TIP3    H224352   5.664   4.662   0.596 -0.6114  0.0852 -0.0034
 8130TIP3   OH224353   3.237   1.033   4.577 -0.5460 -0.0402 -0.5931
 8130TIP3    H124354   3.230   1.128   4.584  0.1883  0.2085 -2.4925
 8130TIP3    H224355   3.147   1.002   4.568 -0.7672  0.4994 -0.2452
 8131TIP3   OH224356   6.673   1.673   1.344  0.1780 -0.4169  0.1795
 8131TIP3    H124357   6.739   1.608   1.369  0.3004 -0.2153  0.3903
 8131TIP3    H224358   6.707   1.755   1.379 -0.0435 -0.2631  0.0340
 8132TIP3   OH224359   3.048   0.469   3.065 -0.0353 -0.6995  0.2889
 8132TIP3    H124360   3.104   0.510   2.999  0.8321  0.0539  1.4483
 8132TIP3    H224361   3.109   0.436   3.132 -0.9395 -0.0088  1.4988
 8133TIP3   OH224362   0.197   2.628   3.006  0.0215  0.5765 -0.2498
 8133TIP3    H124363   0.233   2.716   3.003  0.0591  0.5808  0.2394
 8133TIP3    H224364   0.169   2.610   2.917  1.4670  0.4762 -0.7105
 8134TIP3   OH224365   5.111   0.221   4.659  0.0514 -0.2718  0.2821
 8134TIP3    H124366   5.156   0.303   4.680 -0.1618 -0.3769  1.2058
 8134TIP3    H224367   5.098   0.224   4.564 -2.4043  2.0238  0.5741
 8135TIP3   OH224368   2.093   1.883   1.955 -0.1001  0.1572 -0.1804
 8135TIP3    H124369   2.185   1.869   1.931  0.5162  2.2615  0.6769
 8135TIP3    H224370   2.044   1.864   1.875  1.1401 -0.2880 -0.8747
 8136TIP3   OH224371   4.813   6.208   1.133  0.3145  0.1528  0.1721
 8136TIP3    H124372   4.753   6.134   1.134  2.0428 -1.3324 -0.2078
 8136TIP3    H224373   4.886   6.180   1.077  1.1513  2.0612  0.1949
 8137TIP3   OH224374   5.377   5.541   5.360 -0.1247  0.0087  0.4753
 8137TIP3    H124375   5.362   5.634   5.344  1.8732 -0.0331 -2.4408
 8137TIP3    H224376   5.290   5.504   5.375 -1.0105  2.2032  1.0664
 8138TIP3   OH224377   5.724   3.267   1.619 -0.4868  0.3802 -0.4722
 8138TIP3    H124378   5.782   3.192   1.616 -1.3729 -0.5187  1.9438
 8138TIP3    H224379   5.636   3.229   1.631 -1.4610  1.7205 -2.6987
 8139TIP3   OH224380   0.914   3.177   1.932  0.3739  0.0161  0.0064
 8139TIP3    H124381   0.880   3.094   1.898 -1.0053 -0.0147  1.3028
 8139TIP3    H224382   0.841   3.239   1.920  0.4911  0.4179  1.2244
 8140TIP3   OH224383   5.457   1.401   1.843 -0.2329 -0.0235 -0.1107
 8140TIP3    H124384   5.401   1.330   1.812  1.9350 -1.4604 -0.9225
 8140TIP3    H224385   5.517   1.418   1.771 -0.4948  2.5118  0.1599
 8141TIP3   OH224386   0.345   5.031   0.212 -0.0735 -0.0668  0.3074
 8141TIP3    H124387   0.264   4.993   0.176  0.9802 -0.7658 -1.4373
 8141TIP3    H224388   0.335   5.125   0.197 -0.3440 -0.2010 -0.4099
 8142TIP3   OH224389   3.297   3.111   1.917  0.8113  0.6368 -0.7257
 8142TIP3    H124390   3.206   3.137   1.923  0.7138  0.0153  2.0935
 8142TIP3    H224391   3.294   3.019   1.890  0.6527  0.7614 -1.1415
 8143TIP3   OH224392   1.786   3.233   0.333  0.0062 -0.0614  0.5625
 8143TIP3    H124393   1.693   3.222   0.314 -0.1636 -0.1117  1.3808
 8143TIP3    H224394   1.791   3.318   0.377  0.1631 -0.5758  1.5850
 8144TIP3   OH224395   1.278   0.680   5.570  0.2573 -0.2595  0.3914
 8144TIP3    H124396   1.186   0.664   5.550  0.3396 -1.9848  1.2054
 8144TIP3    H224397   1.305   0.748   5.508 -1.0631 -1.0830 -1.1597
 8145TIP3   OH224398   5.831   0.399   3.367 -0.3277  0.4678  0.3873
 8145TIP3    H124399   5.825   0.490   3.394 -1.1639  0.4934  0.1554
 8145TIP3    H224400   5.772   0.392   3.292 -0.8443 -0.4134  0.8447
 8146TIP3   OH224401   6.078   3.169   3.521  0.2417  0.2733  0.7134
 8146TIP3    H124402   6.105   3.152   3.611 -2.9664 -1.2385  1.5054
 8146TIP3    H224403   5.990   3.204   3.528 -1.0223 -2.0311 -1.8655
 8147TIP3   OH224404   2.432   2.841   4.669  0.1770 -0.4197 -0.0314
 8147TIP3    H124405   2.341   2.813   4.671  0.3960 -1.1297  0.5287
 8147TIP3    H224406   2.453   2.849   4.576 -1.2067  2.3826 -0.2224
 8148TIP3   OH224407   1.057   2.109   2.354  0.0424 -0.1641  0.8208
 8148TIP3    H124408   1.075   2.016   2.368  0.3680 -0.0299  1.2880
 8148TIP3    H224409   0.975   2.126   2.401 -1.2865 -0.7269 -1.1351
 8149TIP3   OH224410   0.955   0.377   2.498 -0.3629  0.4445  0.2449
 8149TIP3    H124411   0.894   0.323   2.549 -0.2126  0.3054  0.2768
 8149TIP3    H224412   0.905   0.402   2.420  0.0984 -1.1721 -0.6417
 8150TIP3   OH224413   6.671   6.128   0.406 -0.4691  0.6057 -0.0610
 8150TIP3    H124414   6.644   6.084   0.487  0.4091  2.7189  1.4867
 8150TIP3    H224415   6.764   6.145   0.418 -0.2001  0.5297 -1.7728
 8151TIP3   OH224416   2.960   3.258   1.033  0.5277 -0.4088 -0.6291
 8151TIP3    H124417   2.969   3.224   1.122 -1.4182  0.0546 -0.2119
 8151TIP3    H224418   3.050   3.277   1.006  1.4715 -3.1960  0.1433
 8152TIP3   OH224419   0.689   0.174   2.342 -0.0928 -0.2061  0.5208
 8152TIP3    H124420   0.695   0.100   2.403  1.8861 -0.0430  0.5940
 8152TIP3    H224421   0.775   0.178   2.301 -0.4203  1.5741 -0.0698
 8153TIP3   OH224422   3.004   5.369   5.302  0.3971  0.4643 -0.1723
 8153TIP3    H124423   3.016   5.288   5.253 -0.7112  0.9436 -1.2918
 8153TIP3    H224424   2.977   5.341   5.389 -1.5094 -0.3802 -0.9930
 8154TIP3   OH224425   1.975   5.858   4.898  0.0285  0.0932 -0.4885
 8154TIP3    H124426   1.924   5.779   4.882  2.4470 -1.3167 -1.8733
 8154TIP3    H224427   1.951   5.917   4.826 -0.3102 -0.2021 -0.6193
 8155TIP3   OH224428   5.943   5.578   0.368  0.5681 -0.2541 -0.3751
 8155TIP3    H124429   5.946   5.504   0.428 -0.0914 -0.6343 -0.7919
 8155TIP3    H224430   5.952   5.655   0.423  0.0361 -0.6005  0.2017
 8156TIP3   OH224431   6.730   2.164   5.184  0.0804 -0.1998  0.2252
 8156TIP3    H124432   6.812   2.157   5.233 -0.0375 -0.8839  0.3371
 8156TIP3    H224433   6.753   2.136   5.095  0.0887  0.1217  0.1282
 8157TIP3   OH224434   0.322   3.165   1.532 -0.3977  0.4084 -0.5853
 8157TIP3    H124435   0.383   3.211   1.590 -0.9915  0.0161  0.3823
 8157TIP3    H224436   0.290   3.232   1.472 -1.0356  1.2178  0.6215
 8158TIP3   OH224437   0.320   2.899   0.601  0.6762  0.1690 -0.2565
 8158TIP3    H124438   0.383   2.840   0.642  0.6633  0.5244  0.2827
 8158TIP3    H224439   0.272   2.938   0.674 -0.9457 -0.9280 -0.6889
 8159TIP3   OH224440   1.886   4.520   2.832  0.7454 -0.5833 -0.4506
 8159TIP3    H124441   1.908   4.476   2.750  2.5149  0.4834 -0.5926
 8159TIP3    H224442   1.927   4.606   2.826  0.4689 -0.2700  1.3376
 8160TIP3   OH224443   1.756   6.346   3.116 -0.7959  0.2116  0.4246
 8160TIP3    H124444   1.747   6.381   3.027 -2.3346  0.3303  0.5850
 8160TIP3    H224445   1.676   6.294   3.129 -0.6379  0.2744  1.7590
 8161TIP3   OH224446   5.419   2.382   2.565 -0.1563 -0.6190 -0.7496
 8161TIP3    H124447   5.506   2.395   2.526 -0.6144 -2.1353 -2.3964
 8161TIP3    H224448   5.434   2.389   2.659  1.3237  1.3817 -1.0603
 8162TIP3   OH224449   3.984   0.583   4.459 -0.2322 -0.1472 -0.2266
 8162TIP3    H124450   3.927   0.647   4.503 -0.2250  1.0631 -1.9046
 8162TIP3    H224451   3.930   0.548   4.388 -0.3441 -2.3125  0.8516
 8163TIP3   OH224452   7.204   5.880   4.732  0.2717  0.2578 -0.4478
 8163TIP3    H124453   7.170   5.798   4.696  0.9347  0.3709 -1.3683
 8163TIP3    H224454   7.126   5.936   4.739 -0.0060 -0.0512 -0.9341
 8164TIP3   OH224455   1.903   1.125   3.248  0.2192  0.2094  0.0692
 8164TIP3    H124456   1.972   1.060   3.236  0.9164  0.9812 -0.1937
 8164TIP3    H224457   1.893   1.166   3.162  0.4427  1.0768  0.4466
 8165TIP3   OH224458   4.973   4.846   4.649 -0.2289 -0.1924 -0.1319
 8165TIP3    H124459   4.970   4.866   4.743 -1.3873  0.4914 -0.2970
 8165TIP3    H224460   5.033   4.911   4.613  0.3323 -0.5475  0.1517
 8166TIP3   OH224461   4.005   6.689   3.678 -0.4583 -0.2204 -0.4800
 8166TIP3    H124462   4.076   6.714   3.619 -0.0490  0.0532  0.1149
 8166TIP3    H224463   4.030   6.604   3.712  1.0140  1.0346  1.8525
 8167TIP3   OH224464   2.596   1.139   4.996 -0.3547 -0.0607 -0.0793
 8167TIP3    H124465   2.605   1.166   4.905 -0.9578 -0.5609 -0.2913
 8167TIP3    H224466   2.567   1.048   4.992 -0.6604 -0.0033  0.6072
 8168TIP3   OH224467   2.684   3.248   1.037  0.7214 -0.0332 -0.0003
 8168TIP3    H124468   2.775   3.267   1.012  1.1203 -1.9701 -0.1995
 8168TIP3    H224469   2.664   3.167   0.991 -0.3098 -0.9246  1.9398
 8169TIP3   OH224470   0.941   1.384   1.427 -0.1525 -0.1438  0.1630
 8169TIP3    H124471   0.950   1.470   1.467  1.2729 -1.3347  2.6846
 8169TIP3    H224472   0.997   1.387   1.349  0.7097  0.9180  0.8014
 8170TIP3   OH224473   5.549   3.356   1.947  0.4436 -0.2076  0.7500
 8170TIP3    H124474   5.529   3.262   1.949 -0.5101 -0.0157  0.5093
 8170TIP3    H224475   5.485   3.393   1.887 -0.4019  0.8812  2.2656
 8171TIP3   OH224476   6.609   6.704   5.368 -0.0953 -0.0578 -0.2334
 8171TIP3    H124477   6.544   6.702   5.298 -0.6290  0.5023  0.2297
 8171TIP3    H224478   6.612   6.614   5.400  0.6846 -0.4758 -1.4387
 8172TIP3   OH224479   3.119   3.515   2.399  0.0060  0.1036  0.3242
 8172TIP3    H124480   3.204   3.488   2.432 -0.4205 -1.3391  0.3025
 8172TIP3    H224481   3.126   3.505   2.304 -0.3635 -0.5560  0.3650
 8173TIP3   OH224482   4.487   2.376   2.556 -0.0690 -0.0220 -0.3849
 8173TIP3    H124483   4.396   2.352   2.577 -0.5825  2.4566  0.5412
 8173TIP3    H224484   4.538   2.299   2.581 -1.9185 -1.6971 -1.4308
 8174TIP3   OH224485   4.769   5.667   2.595 -0.2513  0.0431  0.6156
 8174TIP3    H124486   4.837   5.630   2.651 -0.1794  0.2364  0.6570
 8174TIP3    H224487   4.777   5.761   2.607 -0.8134  0.0500  0.9632
 8175TIP3   OH224488   0.915   4.807   3.649  0.0848 -0.1962 -0.1111
 8175TIP3    H124489   0.869   4.883   3.612  0.8058  0.0805 -0.4690
 8175TIP3    H224490   0.863   4.782   3.725 -1.0103 -0.2957 -0.8717
 8176TIP3   OH224491   3.456   4.083   4.559  0.1185  0.5842  0.6182
 8176TIP3    H124492   3.380   4.049   4.606 -0.2772  1.6589  0.7796
 8176TIP3    H224493   3.488   4.155   4.613  1.0678  0.3459  0.3916
 8177TIP3   OH224494   1.570   0.796   4.422  0.1987  0.0275  0.1664
 8177TIP3    H124495   1.581   0.732   4.492 -1.6853 -1.1551 -0.5386
 8177TIP3    H224496   1.502   0.759   4.366 -0.6101  2.4134 -0.5589
 8178TIP3   OH224497   5.883   4.561   2.169  0.4425  0.1018 -0.7150
 8178TIP3    H124498   5.813   4.593   2.113 -0.8825  0.3241  0.9723
 8178TIP3    H224499   5.917   4.640   2.212 -0.4127 -0.3066  0.7816
 8179TIP3   OH224500   4.411   0.438   5.884  0.1704 -0.3985  0.5635
 8179TIP3    H124501   4.395   0.344   5.893  0.9867 -0.5767  0.2299
 8179TIP3    H224502   4.349   0.467   5.817 -1.4233 -0.3146  2.0022
 8180TIP3   OH224503   3.674   0.714   1.829 -0.1279  0.3201  0.6426
 8180TIP3    H124504   3.589   0.691   1.793  0.1861 -0.5918  0.4442
 8180TIP3    H224505   3.716   0.766   1.761 -0.3728  0.4398  0.5813
 8181TIP3   OH224506   2.610   5.105   0.450  0.1254  0.3449 -0.0678
 8181TIP3    H124507   2.600   5.128   0.543 -3.1205  1.7065 -0.6421
 8181TIP3    H224508   2.527   5.063   0.427  1.2879 -0.9470 -2.1311
 8182TIP3   OH224509   6.668   1.887   2.680  0.9086 -0.3600 -0.2332
 8182TIP3    H124510   6.629   1.974   2.681  1.1542 -0.2407  1.2690
 8182TIP3    H224511   6.761   1.902   2.662  1.1287 -0.2098  0.9657
 8183TIP3   OH224512   6.939   1.845   5.433 -0.1833 -0.1941 -0.6296
 8183TIP3    H124513   6.964   1.782   5.366 -3.2973 -1.7421 -0.5221
 8183TIP3    H224514   6.916   1.924   5.385  2.7103  0.6047 -0.8532
 8184TIP3   OH224515   2.265   5.623   2.238  1.0105 -0.5094 -0.4593
 8184TIP3    H124516   2.287   5.532   2.259  2.8315  0.0660  0.3996
 8184TIP3    H224517   2.250   5.664   2.324  2.7109  0.5404 -0.6135
 8185TIP3   OH224518   3.710   0.195   3.657  0.1960  0.1062  0.1809
 8185TIP3    H124519   3.802   0.217   3.641 -0.0820  0.5649 -0.8371
 8185TIP3    H224520   3.688   0.242   3.737  0.4850  1.0368 -0.2755
 8186TIP3   OH224521   0.732   2.474   2.323  0.5744 -0.2308  0.5908
 8186TIP3    H124522   0.734   2.427   2.406  3.1176 -0.4869  0.4496
 8186TIP3    H224523   0.749   2.407   2.257 -0.1039  0.2031 -0.0416
 8187TIP3   OH224524   3.047   5.240   1.279 -0.3627  0.2753  0.2803
 8187TIP3    H124525   3.086   5.159   1.246 -1.1503  0.2935 -0.7587
 8187TIP3    H224526   3.102   5.309   1.243 -0.2497  0.2330  0.3720
 8188TIP3   OH224527   7.102   0.405   0.893  0.1319  0.1982  0.1556
 8188TIP3    H124528   7.131   0.492   0.921  2.2375 -0.7885  1.2614
 8188TIP3    H224529   7.063   0.366   0.971  0.2747 -0.2933 -0.0168
 8189TIP3   OH224530   1.848   4.764   3.125  0.7231 -0.0470 -0.4953
 8189TIP3    H124531   1.904   4.690   3.149  0.2923 -0.3978 -0.5593
 8189TIP3    H224532   1.820   4.800   3.209 -1.0695 -1.4907 -0.3962
 8190TIP3   OH224533   4.256   2.011   1.401  0.0682  0.2589 -0.0990
 8190TIP3    H124534   4.212   2.076   1.346 -0.5911 -0.7374 -0.8038
 8190TIP3    H224535   4.339   1.994   1.357  1.0103  1.8075  0.9861
 8191TIP3   OH224536   3.989   5.285   5.764  0.6256 -0.7118 -0.4249
 8191TIP3    H124537   4.037   5.322   5.690  2.0649 -1.4624  0.0928
 8191TIP3    H224538   3.985   5.357   5.828 -1.0835  0.1083 -1.3805
 8192TIP3   OH224539   1.809   4.812   0.406  0.4371  0.3747  0.1338
 8192TIP3    H124540   1.904   4.807   0.393  0.1099 -1.9311 -2.1959
 8192TIP3    H224541   1.798   4.810   0.501  2.6885 -0.8993  0.4449
 8193TIP3   OH224542   1.319   5.796   2.714 -0.6154  0.0762 -0.2291
 8193TIP3    H124543   1.272   5.728   2.666 -0.7015 -0.3838  0.4847
 8193TIP3    H224544   1.354   5.853   2.646  0.0136 -1.0461 -0.8844
 8194TIP3   OH224545   0.932   5.581   3.905 -0.1911 -0.4031  0.0789
 8194TIP3    H124546   0.930   5.676   3.919 -0.3851 -0.4877  0.6830
 8194TIP3    H224547   0.972   5.547   3.985  1.5723 -0.7030 -0.8769
 8195TIP3   OH224548   0.373   5.204   3.496  0.1352  0.1494 -0.7420
 8195TIP3    H124549   0.332   5.193   3.581  1.5678  0.0737 -0.0312
 8195TIP3    H224550   0.359   5.120   3.452 -0.9572  0.3270 -0.7552
 8196TIP3   OH224551   0.451   3.957   2.563 -0.2734  0.0917  0.3670
 8196TIP3    H124552   0.513   4.017   2.605  0.7389 -2.3117  2.5750
 8196TIP3    H224553   0.365   3.994   2.582  0.2379 -0.0301  3.3094
 8197TIP3   OH224554  -0.009   2.488   2.181 -0.3330 -0.8460  0.0516
 8197TIP3    H124555  -0.066   2.557   2.216 -0.6261 -2.1240  2.2600
 8197TIP3    H224556   0.078   2.512   2.212 -0.3844 -1.2814  0.5410
 8198TIP3   OH224557   6.905   1.582   2.977  0.3319 -0.0177  0.5771
 8198TIP3    H124558   6.811   1.567   2.981  0.2373  0.1053 -0.6715
 8198TIP3    H224559   6.944   1.497   2.998 -0.1316 -0.9805 -2.0326
 8199TIP3   OH224560   6.941   3.301   3.475 -0.9309  0.1717  0.1470
 8199TIP3    H124561   7.019   3.281   3.526  0.2074  2.1855 -0.7136
 8199TIP3    H224562   6.921   3.219   3.429  1.9606  0.1346 -1.2604
 8200TIP3   OH224563   2.794   6.420   4.456 -0.3548 -0.2011  0.1713
 8200TIP3    H124564   2.874   6.429   4.507  0.2788 -0.0393 -0.8159
 8200TIP3    H224565   2.824   6.413   4.365 -1.4480 -0.3905 -0.1959
 8201TIP3   OH224566   7.075   2.889   0.584 -0.1523 -0.1620  0.0417
 8201TIP3    H124567   7.004   2.825   0.588 -0.5410  0.2993  0.7130
 8201TIP3    H224568   7.060   2.936   0.502 -1.2018  0.5687  0.6292
 8202TIP3   OH224569   2.891   0.904   5.522  0.1830 -0.2740 -0.4239
 8202TIP3    H124570   2.940   0.885   5.602  0.0658 -1.3345 -0.5882
 8202TIP3    H224571   2.958   0.918   5.455  0.3114 -1.8964 -0.6899
 8203TIP3   OH224572   6.770   2.096   0.150 -0.2080 -0.2298 -0.2075
 8203TIP3    H124573   6.764   2.188   0.175  0.0859 -0.4186  0.5713
 8203TIP3    H224574   6.724   2.049   0.219 -0.3939 -0.6702 -0.6248
 8204TIP3   OH224575   1.005   2.528   0.930  0.2446  0.0816 -0.0695
 8204TIP3    H124576   1.084   2.575   0.903  0.5907 -0.0519  0.6952
 8204TIP3    H224577   1.017   2.439   0.896  0.5348 -0.0014  0.2485
 8205TIP3   OH224578   1.127   0.714   4.507  0.8195  0.6552 -0.1658
 8205TIP3    H124579   1.098   0.738   4.419  0.2175  0.8931  0.0980
 8205TIP3    H224580   1.222   0.723   4.504  0.6409  3.5038  0.0254
 8206TIP3   OH224581   4.949   6.318   1.351 -0.1298  0.5731  0.0548
 8206TIP3    H124582   4.917   6.271   1.274 -0.6316  0.8032  0.1119
 8206TIP3    H224583   4.963   6.251   1.417 -2.0906  0.5966  0.5621
 8207TIP3   OH224584   5.626   2.968   0.996 -0.0893  0.6087  0.4522
 8207TIP3    H124585   5.688   3.039   0.978 -0.0514  0.3549 -0.5317
 8207TIP3    H224586   5.662   2.893   0.947 -0.8169  0.2791  0.4104
 8208TIP3   OH224587   7.174   6.556   0.873 -0.2259  0.6178  0.1093
 8208TIP3    H124588   7.242   6.623   0.874 -0.1545  0.5422  0.8917
 8208TIP3    H224589   7.149   6.546   0.965 -1.8467  1.2093 -0.2390
 8209TIP3   OH224590   2.579   6.430   3.088 -0.6531 -0.3182  0.3477
 8209TIP3    H124591   2.576   6.523   3.111  0.8140  0.3356 -1.7794
 8209TIP3    H224592   2.672   6.412   3.072 -0.7431 -2.4754  1.7186
 8210TIP3   OH224593   5.702   5.335   2.873  0.0958  0.7127 -0.1372
 8210TIP3    H124594   5.673   5.278   2.944  0.8900 -0.5056 -0.7385
 8210TIP3    H224595   5.733   5.414   2.917  0.7333 -0.0827  0.9199
 8211TIP3   OH224596   0.345   5.811   0.447  0.2167  0.4603  1.1410
 8211TIP3    H124597   0.360   5.824   0.353  3.2416 -0.2427  1.4489
 8211TIP3    H224598   0.250   5.819   0.457 -0.0498  2.1333 -1.7092
 8212TIP3   OH224599   6.319   1.114   5.344 -0.1278 -0.1779 -0.5473
 8212TIP3    H124600   6.404   1.128   5.302 -0.0717 -2.3432 -1.3149
 8212TIP3    H224601   6.316   1.178   5.415  0.3016  2.8008 -3.0462
 8213TIP3   OH224602   3.936   3.081   3.971 -0.3514  0.6907 -0.2355
 8213TIP3    H124603   3.891   3.146   3.916  0.9950  0.6565 -1.4261
 8213TIP3    H224604   3.898   2.997   3.945 -3.6117  0.9806  2.7413
 8214TIP3   OH224605   6.823   2.967   2.990 -0.6126  0.0787 -0.3112
 8214TIP3    H124606   6.864   2.909   2.927 -1.9505 -0.7213 -0.4819
 8214TIP3    H224607   6.815   2.914   3.069 -0.0262  0.6960  0.1772
 8215TIP3   OH224608   3.840   6.765   0.725 -0.1647  0.2300  0.2653
 8215TIP3    H124609   3.754   6.746   0.761  0.4500 -1.0701  1.1368
 8215TIP3    H224610   3.823   6.814   0.644 -1.8354 -2.1047 -0.9136
 8216TIP3   OH224611   3.529   0.182   2.931  0.0112  0.5222  0.5710
 8216TIP3    H124612   3.617   0.220   2.931  0.0207  0.5016 -0.0454
 8216TIP3    H224613   3.490   0.212   2.849  0.8389 -2.7275 -1.1455
 8217TIP3   OH224614   5.656   6.544   2.866 -0.2375  0.2014  1.0576
 8217TIP3    H124615   5.653   6.450   2.846  1.8989 -0.0498  1.6996
 8217TIP3    H224616   5.594   6.554   2.938 -1.4204 -0.4547  0.1822
 8218TIP3   OH224617   1.418   1.032   1.354  0.3923 -0.1094  0.1738
 8218TIP3    H124618   1.485   0.982   1.401 -0.0667 -0.0453  0.9247
 8218TIP3    H224619   1.353   1.054   1.422  1.0602  2.3421  0.1102
 8219TIP3   OH224620   3.401   4.263   5.519 -0.5836  0.4394 -0.2097
 8219TIP3    H124621   3.332   4.218   5.468 -0.2215  0.3210 -0.6002
 8219TIP3    H224622   3.357   4.288   5.600 -0.7916 -0.6761  0.0483
 8220TIP3   OH224623   5.562   2.138   1.599  0.1463  0.1063  0.1816
 8220TIP3    H124624   5.622   2.118   1.671 -1.1651 -0.9552  1.0248
 8220TIP3    H224625   5.603   2.099   1.522  0.0676 -1.5325  0.9346
 8221TIP3   OH224626   5.629   6.117   1.695 -0.6028  0.1219 -0.2597
 8221TIP3    H124627   5.721   6.139   1.707 -0.2486 -1.5767  0.3738
 8221TIP3    H224628   5.590   6.122   1.782 -1.3787  1.8234 -0.6658
 8222TIP3   OH224629   3.404   1.677   3.666 -0.2867 -0.4925  0.5078
 8222TIP3    H124630   3.468   1.609   3.689 -0.7325 -1.5490 -1.1698
 8222TIP3    H224631   3.389   1.664   3.572 -0.1229  2.1753  0.0258
 8223TIP3   OH224632   1.756   5.840   0.417  0.0270 -0.2258 -0.1341
 8223TIP3    H124633   1.771   5.784   0.340 -1.3125  0.9194 -1.2940
 8223TIP3    H224634   1.696   5.790   0.472  0.0142 -0.5489 -0.4401
 8224TIP3   OH224635   3.994   6.797   1.875  0.0007 -0.1478  0.2238
 8224TIP3    H124636   3.988   6.702   1.883 -0.5288 -0.0717  0.8133
 8224TIP3    H224637   4.052   6.811   1.801 -0.2474 -0.9343 -0.1332
 8225TIP3   OH224638   0.443   0.137   0.342  0.3456 -0.2872 -0.0077
 8225TIP3    H124639   0.491   0.219   0.351 -1.3962  0.9196 -1.0920
 8225TIP3    H224640   0.479   0.080   0.409  1.0102  1.6594  1.3649
 8226TIP3   OH224641   3.861   3.759   1.104  0.2798 -0.4245 -0.3258
 8226TIP3    H124642   3.880   3.830   1.042 -0.6702  0.3770  0.2568
 8226TIP3    H224643   3.926   3.692   1.085  2.3868  1.3212  0.2707
 8227TIP3   OH224644   1.081   0.816   1.882 -0.1341  0.3334 -0.2592
 8227TIP3    H124645   1.066   0.722   1.870 -1.3225  0.5794 -0.9417
 8227TIP3    H224646   0.994   0.852   1.901  0.0419  1.4768 -1.4160
 8228TIP3   OH224647   6.774   6.249   4.344  0.3791  0.5524  0.2360
 8228TIP3    H124648   6.735   6.218   4.263  0.1300  2.2396 -0.3156
 8228TIP3    H224649   6.700   6.267   4.402  0.4850  0.8323  0.2862
 8229TIP3   OH224650   2.315   6.644   4.180 -1.0608 -0.0954  0.6288
 8229TIP3    H124651   2.318   6.654   4.085 -0.8321  0.5649  0.7063
 8229TIP3    H224652   2.288   6.553   4.193 -0.4408 -0.3856 -0.0678
 8230TIP3   OH224653   7.218   0.402   4.023  0.0952  0.1088 -0.5041
 8230TIP3    H124654   7.151   0.352   4.069  0.4298  0.4214  0.3436
 8230TIP3    H224655   7.206   0.380   3.931 -0.1039 -1.1038 -0.1956
 8231TIP3   OH224656   5.923   2.740   2.262 -0.1311  0.0869  0.4053
 8231TIP3    H124657   5.950   2.828   2.288 -0.4997  0.1724  0.5014
 8231TIP3    H224658   5.969   2.682   2.323 -0.4346  0.2509  0.7965
 8232TIP3   OH224659   3.587   4.147   0.627  0.4115 -0.4122 -0.0887
 8232TIP3    H124660   3.663   4.177   0.575  0.0311  0.3715 -0.2148
 8232TIP3    H224661   3.621   4.075   0.679  1.3307  0.1054  0.0661
 8233TIP3   OH224662   4.540   1.671   1.362 -0.2985  0.2901 -0.3582
 8233TIP3    H124663   4.473   1.705   1.302 -0.5787 -1.2854 -0.9838
 8233TIP3    H224664   4.613   1.732   1.353  0.3279 -0.7669 -3.6012
 8234TIP3   OH224665   6.712   0.288   3.640 -0.1472 -0.2889  0.1766
 8234TIP3    H124666   6.678   0.255   3.724  1.3767  0.4959  1.1464
 8234TIP3    H224667   6.761   0.215   3.604 -0.1782 -0.3944  0.3443
 8235TIP3   OH224668   1.445   2.004   3.904 -0.8233 -0.3605 -0.1836
 8235TIP3    H124669   1.412   2.069   3.967  0.5440 -1.3012  1.5891
 8235TIP3    H224670   1.521   2.046   3.864 -0.9254 -0.2487 -0.2610
 8236TIP3   OH224671   3.340   3.934   5.093  0.1718 -0.1509 -0.2728
 8236TIP3    H124672   3.321   3.862   5.033 -3.1302  0.7212 -0.4877
 8236TIP3    H224673   3.268   3.933   5.155  1.5860  1.2265  1.5028
 8237TIP3   OH224674   5.857   1.139   5.151 -0.0948  0.3823 -0.7980
 8237TIP3    H124675   5.858   1.190   5.070  0.7510 -0.7529 -1.5279
 8237TIP3    H224676   5.907   1.192   5.213 -2.1223  2.0383 -0.4772
 8238TIP3   OH224677   5.826   4.757   3.981 -0.3815  0.4546 -0.2992
 8238TIP3    H124678   5.788   4.735   3.896  2.1365 -2.7117 -0.8034
 8238TIP3    H224679   5.917   4.729   3.974  0.0165  0.4003  3.3518
 8239TIP3   OH224680   5.566   5.855   3.733  0.5287  0.0092 -0.1855
 8239TIP3    H124681   5.614   5.877   3.813 -1.7902  0.7243  1.0899
 8239TIP3    H224682   5.502   5.790   3.761 -0.0303 -0.0652 -1.5752
 8240TIP3   OH224683   4.094   1.563   3.588 -0.1013  0.5608  0.1573
 8240TIP3    H124684   4.057   1.483   3.626 -2.1788  0.8258 -1.1709
 8240TIP3    H224685   4.156   1.594   3.654 -0.6992 -1.0795  1.5614
 8241TIP3   OH224686   4.580   4.300   1.515 -0.2808 -0.2613 -0.0810
 8241TIP3    H124687   4.668   4.302   1.477 -0.6790 -1.2052 -1.1102
 8241TIP3    H224688   4.531   4.364   1.463 -1.2002 -2.5708 -2.2248
 8242TIP3   OH224689   3.357   3.993   3.799 -0.0288 -0.7713 -0.0291
 8242TIP3    H124690   3.337   3.947   3.881  0.3078 -0.4479  0.2393
 8242TIP3    H224691   3.320   3.938   3.731 -3.1516  0.4485  0.4985
 8243TIP3   OH224692   3.617   3.394   1.726  0.2031  0.0531 -0.1934
 8243TIP3    H124693   3.582   3.305   1.729  1.7873 -0.5713  1.0394
 8243TIP3    H224694   3.670   3.397   1.646  0.7125 -0.3413  0.1279
 8244TIP3   OH224695   0.473   3.731   0.887  0.8231  0.1730  0.0558
 8244TIP3    H124696   0.535   3.661   0.909 -0.1086 -0.1447  1.8202
 8244TIP3    H224697   0.390   3.702   0.923  0.3407  2.0402  0.5919
 8245TIP3   OH224698   5.431   6.263   1.548 -0.4084  0.0187 -0.5528
 8245TIP3    H124699   5.365   6.269   1.617 -1.1310  1.1136 -1.3074
 8245TIP3    H224700   5.503   6.213   1.588 -0.8512  0.5078  0.9436
 8246TIP3   OH224701   5.138   4.140   3.460  0.1064  0.1158  0.1165
 8246TIP3    H124702   5.065   4.198   3.481  0.6738  0.8383  0.1525
 8246TIP3    H224703   5.101   4.074   3.402 -0.3399  1.1205 -0.7707
 8247TIP3   OH224704   1.401   0.256   3.819  0.2235 -0.1601 -0.1779
 8247TIP3    H124705   1.461   0.185   3.843  0.8833 -0.7283 -3.1091
 8247TIP3    H224706   1.384   0.301   3.901  2.9293 -1.3235  1.1567
 8248TIP3   OH224707   0.092   5.090   1.966  0.0715 -0.1862 -0.7458
 8248TIP3    H124708   0.098   5.048   2.051 -0.8440  1.8242  0.3677
 8248TIP3    H224709   0.174   5.140   1.958 -0.0620  0.0221 -0.8211
 8249TIP3   OH224710   5.281   2.851   3.990 -0.1690 -0.2199 -0.1353
 8249TIP3    H124711   5.230   2.911   4.045 -0.2324 -0.5630  0.1863
 8249TIP3    H224712   5.279   2.891   3.903  2.0116  1.6531  0.5581
 8250TIP3   OH224713   1.921   2.195   1.439  0.2993  0.6467  0.0552
 8250TIP3    H124714   1.934   2.196   1.534  0.0733  0.1543  0.0920
 8250TIP3    H224715   1.944   2.106   1.412  1.4261  1.1004 -0.5057
 8251TIP3   OH224716   6.128   1.643   1.344 -0.3249  0.2411  0.2602
 8251TIP3    H124717   6.111   1.736   1.334  1.4102  0.4776 -0.7193
 8251TIP3    H224718   6.088   1.621   1.428  0.3406  2.1469  1.1301
 8252TIP3   OH224719   0.582   0.672   2.419 -0.0382  0.0898 -0.0483
 8252TIP3    H124720   0.514   0.605   2.414 -0.4248  0.5557 -1.3428
 8252TIP3    H224721   0.615   0.679   2.330  0.5686  1.0403  0.2404
 8253TIP3   OH224722   0.470   3.763   3.554  0.1554 -0.4751  0.3542
 8253TIP3    H124723   0.492   3.703   3.482 -1.1446 -1.1004  0.4461
 8253TIP3    H224724   0.390   3.806   3.525  1.0224  1.2139  0.3245
 8254TIP3   OH224725   1.308   4.641   4.218  0.1163  0.4604  0.1135
 8254TIP3    H124726   1.306   4.667   4.310  0.4244  1.7861 -0.2213
 8254TIP3    H224727   1.250   4.566   4.213 -2.7517  2.4499  0.8167
 8255TIP3   OH224728   2.704   5.756   0.319 -0.2313 -0.5256  0.4911
 8255TIP3    H124729   2.740   5.788   0.401 -0.9620 -2.0489  1.4545
 8255TIP3    H224730   2.740   5.815   0.252  1.8462 -0.3661  1.6748
 8256TIP3   OH224731   0.039   0.590   4.961 -0.0175  0.0510 -0.0708
 8256TIP3    H124732  -0.033   0.527   4.964 -0.0273 -0.2236 -2.9406
 8256TIP3    H224733   0.076   0.580   4.873  4.9508 -1.3343  1.7818
 8257TIP3   OH224734   6.558   4.808   3.304 -0.1176 -0.0740  0.0265
 8257TIP3    H124735   6.640   4.770   3.272 -0.7442 -2.3995  0.9348
 8257TIP3    H224736   6.495   4.735   3.300 -0.9669  0.2663  3.6328
 8258TIP3   OH224737   6.233   1.641   3.648  0.2371 -0.1466 -0.2909
 8258TIP3    H124738   6.215   1.547   3.656  0.2512 -0.1586 -0.4033
 8258TIP3    H224739   6.158   1.683   3.690 -0.0863 -0.1957 -0.8176
 8259TIP3   OH224740   1.735   4.904   0.032 -0.6847 -0.1248 -1.0324
 8259TIP3    H124741   1.829   4.921   0.025 -0.8940  0.7883 -1.9016
 8259TIP3    H224742   1.729   4.816   0.069  0.5024  0.0456 -0.3818
 8260TIP3   OH224743   0.503   0.893   4.559 -0.0409  0.1512 -0.4225
 8260TIP3    H124744   0.542   0.818   4.514  2.4743  1.8448 -1.2934
 8260TIP3    H224745   0.540   0.890   4.647 -0.5696 -0.0504 -0.2020
 8261TIP3   OH224746   1.271   6.090   1.276  0.0478  0.1211  0.2249
 8261TIP3    H124747   1.199   6.027   1.283 -0.8302  1.2170  2.0257
 8261TIP3    H224748   1.232   6.173   1.305  1.8416  0.9225  0.4463
 8262TIP3   OH224749   4.945   1.091   0.721  0.3806 -0.0586  0.6546
 8262TIP3    H124750   4.985   1.118   0.638  0.0448 -0.4751  0.3528
 8262TIP3    H224751   4.949   1.169   0.776  0.4511  0.2725  0.1900
 8263TIP3   OH224752   3.152   6.292   1.820 -0.0992 -0.4218  0.0782
 8263TIP3    H124753   3.107   6.225   1.769  3.0164 -1.6079 -1.4304
 8263TIP3    H224754   3.137   6.374   1.772  0.4305 -1.0335 -1.1817
 8264TIP3   OH224755   6.747   1.678   3.231 -0.0965  0.2085 -0.5451
 8264TIP3    H124756   6.811   1.635   3.288  0.1576 -0.2802 -1.1846
 8264TIP3    H224757   6.687   1.721   3.291  0.7954  0.6259  0.0778
 8265TIP3   OH224758   3.691   4.510   5.892 -0.1730  0.1881 -0.4007
 8265TIP3    H124759   3.769   4.464   5.924 -0.3809 -0.7382 -1.1684
 8265TIP3    H224760   3.685   4.485   5.800 -0.8010  1.0787 -0.6121
 8266TIP3   OH224761   2.044   5.538   4.452 -0.3141 -0.3453 -0.4238
 8266TIP3    H124762   2.107   5.470   4.429 -1.2476 -1.3171 -0.1662
 8266TIP3    H224763   1.989   5.547   4.374  0.5421  0.9912 -0.9040
 8267TIP3   OH224764   6.653   3.092   3.859  0.7460 -0.4049  0.4365
 8267TIP3    H124765   6.736   3.065   3.819 -0.2743 -4.4692  0.5445
 8267TIP3    H224766   6.672   3.097   3.953  1.4405  1.5101  0.2196
 8268TIP3   OH224767   6.377   3.181   5.614 -0.6665  0.1301 -0.1376
 8268TIP3    H124768   6.452   3.226   5.652  1.6231 -1.0886 -2.7997
 8268TIP3    H224769   6.373   3.097   5.660  0.9149 -0.5791 -1.1905
 8269TIP3   OH224770   1.926   0.438   5.681 -0.2606 -0.6010  0.1475
 8269TIP3    H124771   1.933   0.465   5.772 -2.1777 -1.2483  0.5190
 8269TIP3    H224772   1.876   0.356   5.683  0.6573 -1.2641 -1.3969
 8270TIP3   OH224773   0.889   5.199   1.745  0.3314 -0.3280  0.0337
 8270TIP3    H124774   0.848   5.112   1.744  0.0014 -0.1772  0.4297
 8270TIP3    H224775   0.904   5.219   1.653  0.9203 -1.0476 -0.0430
 8271TIP3   OH224776   3.340   0.106   0.184 -0.2704 -0.2656 -0.4877
 8271TIP3    H124777   3.430   0.111   0.215  0.2897 -2.0316 -1.6599
 8271TIP3    H224778   3.299   0.039   0.239 -0.9724  0.6943  0.1986
 8272TIP3   OH224779   3.844   4.216   4.733  0.0126 -0.6381  0.5362
 8272TIP3    H124780   3.937   4.199   4.719 -0.2298 -0.5478 -1.5444
 8272TIP3    H224781   3.811   4.240   4.646 -2.1911 -1.7698  0.9900
 8273TIP3   OH224782   5.627   6.750   4.282  0.5886 -0.1053  0.3753
 8273TIP3    H124783   5.645   6.665   4.242 -0.4818  0.5132 -1.5249
 8273TIP3    H224784   5.713   6.781   4.311  1.3363 -0.8594 -0.9271
 8274TIP3   OH224785   1.071   0.280   4.488 -0.3439 -0.0917  0.5583
 8274TIP3    H124786   1.146   0.302   4.544  1.4527 -0.1091 -1.7315
 8274TIP3    H224787   1.073   0.185   4.482  0.1054 -0.0391 -0.3095
 8275TIP3   OH224788   2.094   4.282   0.147  0.2387  0.2735  0.8095
 8275TIP3    H124789   2.024   4.256   0.206 -0.5939 -0.3242 -0.4160
 8275TIP3    H224790   2.174   4.270   0.199 -0.1821 -3.2331  0.8869
 8276TIP3   OH224791   3.254   2.467   4.748  0.1484 -0.2972  0.0573
 8276TIP3    H124792   3.266   2.452   4.654 -0.4248  0.1896 -0.0961
 8276TIP3    H224793   3.271   2.560   4.761  0.4985 -0.4185  0.4824
 8277TIP3   OH224794   0.547   3.047   4.648  0.2304  0.0603 -0.0672
 8277TIP3    H124795   0.528   3.054   4.742 -0.5517  0.8548 -0.2725
 8277TIP3    H224796   0.461   3.053   4.606  0.3389 -2.2023 -0.7667
 8278TIP3   OH224797   7.097   3.559   3.562  0.8642  0.2907 -0.1485
 8278TIP3    H124798   7.018   3.611   3.570  1.0727  0.7815 -1.0650
 8278TIP3    H224799   7.080   3.502   3.487  1.0522 -0.2022  0.1793
 8279TIP3   OH224800   0.668   5.121   3.401  0.8384  0.5251  0.7175
 8279TIP3    H124801   0.577   5.149   3.407 -0.0721 -1.3409 -2.4277
 8279TIP3    H224802   0.694   5.142   3.311  3.3783  0.5001  1.3600
 8280TIP3   OH224803   6.841   0.267   5.511  0.5073 -0.0646  0.0941
 8280TIP3    H124804   6.772   0.205   5.487  1.5711 -1.3526  0.2798
 8280TIP3    H224805   6.897   0.271   5.433  1.2502 -0.4647  0.6009
 8281TIP3   OH224806   1.293   4.279   1.381 -0.6309 -0.0299  0.5966
 8281TIP3    H124807   1.213   4.278   1.329  0.5309 -0.9633 -1.3262
 8281TIP3    H224808   1.343   4.353   1.345 -0.2961  0.0480  1.2145
 8282TIP3   OH224809   6.230   0.555   3.472  0.4793  0.5091  0.4796
 8282TIP3    H124810   6.186   0.525   3.551  2.8910 -0.4048  1.5721
 8282TIP3    H224811   6.171   0.621   3.436 -1.6198 -0.4410  1.9361
 8283TIP3   OH224812   0.863   4.112   4.260  0.2945 -0.0189 -0.2618
 8283TIP3    H124813   0.860   4.162   4.342  0.4291  0.4303 -0.5247
 8283TIP3    H224814   0.881   4.022   4.288  1.0686  0.2509  0.1676
 8284TIP3   OH224815   1.579   6.064   5.207  0.0913 -0.0971  0.6029
 8284TIP3    H124816   1.553   6.003   5.138 -1.1625  1.1144 -0.0328
 8284TIP3    H224817   1.674   6.056   5.212  0.1402 -0.6171 -0.8626
 8285TIP3   OH224818   3.949   5.059   3.208  0.4227  0.1921  0.4894
 8285TIP3    H124819   3.976   5.031   3.120 -2.9597  0.7965 -0.8825
 8285TIP3    H224820   3.917   4.979   3.250 -0.3761  0.3475  0.1803
 8286TIP3   OH224821   2.862   4.207   0.901 -0.0815 -0.4907 -0.0357
 8286TIP3    H124822   2.795   4.228   0.966  1.2007 -0.6295  1.4027
 8286TIP3    H224823   2.892   4.292   0.868 -0.6819 -0.4151 -0.3841
 8287TIP3   OH224824   5.339   3.227   4.659  0.5741 -0.0350 -0.0314
 8287TIP3    H124825   5.304   3.147   4.697  0.9125  0.0659  0.5078
 8287TIP3    H224826   5.400   3.261   4.725  0.4390  0.6642 -0.2489
 8288TIP3   OH224827   3.524   3.116   4.324 -0.0869  0.3218 -0.7766
 8288TIP3    H124828   3.594   3.181   4.326 -0.0295  0.2354  0.1405
 8288TIP3    H224829   3.567   3.033   4.345 -0.3064  0.1181 -1.1191
 8289TIP3   OH224830   1.141   3.173   0.712  0.1017  0.7425 -0.3732
 8289TIP3    H124831   1.150   3.078   0.706 -2.5545  0.4224 -0.1491
 8289TIP3    H224832   1.123   3.189   0.804 -3.8260  0.9147 -1.0232
 8290TIP3   OH224833   3.229   5.911   1.312  0.1970  0.4820  0.7364
 8290TIP3    H124834   3.301   5.963   1.347  1.1586 -0.8840  0.8852
 8290TIP3    H224835   3.253   5.896   1.220 -0.5550  1.0831  0.4297
 8291TIP3   OH224836   3.151   6.584   5.673 -0.4956 -0.3357  0.5825
 8291TIP3    H124837   3.178   6.625   5.756 -1.5654  2.1772 -0.1917
 8291TIP3    H224838   3.057   6.569   5.683 -0.6047 -0.1477 -0.1108
 8292TIP3   OH224839   3.568   1.436   1.144 -0.1486 -0.5921  0.1510
 8292TIP3    H124840   3.586   1.527   1.166 -0.4804  0.1333 -2.2915
 8292TIP3    H224841   3.475   1.425   1.162 -0.4553  0.0344 -0.9840
 8293TIP3   OH224842   4.720   1.309   0.447 -0.1352 -0.3222  0.0075
 8293TIP3    H124843   4.733   1.215   0.458  1.2280 -0.0633  0.8171
 8293TIP3    H224844   4.783   1.334   0.378  0.5306  0.2060  0.7794
 8294TIP3   OH224845   1.959   6.026   4.692 -0.3879 -0.0970 -0.0530
 8294TIP3    H124846   1.910   6.106   4.713 -0.4272  0.2750 -1.4614
 8294TIP3    H224847   2.047   6.058   4.671 -0.4397 -0.3964 -0.7491
 8295TIP3   OH224848   4.482   0.717   4.414  0.1523  0.3239 -0.5844
 8295TIP3    H124849   4.465   0.807   4.442  0.4103  1.0128 -2.5012
 8295TIP3    H224850   4.396   0.676   4.411  0.0940  0.2960  0.8998
 8296TIP3   OH224851   0.505   4.197   0.507  0.1260  0.0700  0.0085
 8296TIP3    H124852   0.464   4.139   0.571 -0.3674  1.8265  1.3328
 8296TIP3    H224853   0.533   4.138   0.437  2.4537 -2.2539  2.6506
 8297TIP3   OH224854   6.428   2.918   2.611  0.4054 -0.1396 -0.1364
 8297TIP3    H124855   6.429   2.958   2.698 -0.8223 -1.5719  0.5734
 8297TIP3    H224856   6.509   2.866   2.608  1.2821  1.1769 -0.5249
 8298TIP3   OH224857   3.267   4.024   5.772  0.6242 -0.2894 -0.8166
 8298TIP3    H124858   3.328   3.995   5.840 -1.8251  1.3928  2.3604
 8298TIP3    H224859   3.294   4.114   5.753  0.4051 -0.2626 -1.0005
 8299TIP3   OH224860   4.080   4.119   0.401 -0.2089  0.4652  0.0037
 8299TIP3    H124861   4.112   4.113   0.311 -0.6145 -0.1483 -0.1023
 8299TIP3    H224862   4.128   4.193   0.438  1.2880 -0.3600 -0.1756
 8300TIP3   OH224863   5.811   0.846   0.010 -0.0196 -0.4360  0.3618
 8300TIP3    H124864   5.808   0.750   0.010  0.4728 -0.4540  0.6073
 8300TIP3    H224865   5.866   0.868   0.085  1.8564 -0.0228 -1.0614
 8301TIP3   OH224866   0.524   2.705   1.186 -0.2550  0.3724 -0.4655
 8301TIP3    H124867   0.522   2.775   1.251  0.8991 -1.4528  1.7072
 8301TIP3    H224868   0.441   2.658   1.199  0.5031 -0.7415  0.6985
 8302TIP3   OH224869   5.161   2.528   5.248  0.2395 -0.1512 -0.7193
 8302TIP3    H124870   5.084   2.483   5.213 -0.6334  1.1093 -0.4897
 8302TIP3    H224871   5.219   2.458   5.275 -1.7421 -1.2223  1.1035
 8303TIP3   OH224872   6.214   2.408   1.851  0.0317 -0.0231 -0.1736
 8303TIP3    H124873   6.236   2.478   1.913  3.1137 -0.3490 -0.7477
 8303TIP3    H224874   6.280   2.415   1.782 -1.9125 -1.1347 -2.2629
 8304TIP3   OH224875   1.951   3.154   1.381  0.2999 -1.3534  0.3733
 8304TIP3    H124876   1.950   3.067   1.343  3.0455 -1.4796  0.3777
 8304TIP3    H224877   1.990   3.210   1.314  1.7487 -0.8570  1.5514
 8305TIP3   OH224878   6.871   2.521   5.444 -0.0143  0.3257 -0.1149
 8305TIP3    H124879   6.832   2.435   5.457  0.3252  0.3259  0.9831
 8305TIP3    H224880   6.908   2.517   5.356  0.8078 -0.9876  0.2549
 8306TIP3   OH224881   1.053   3.134   4.688  0.1458 -0.5360  0.4976
 8306TIP3    H124882   1.051   3.095   4.775 -2.4965 -2.7469 -0.3990
 8306TIP3    H224883   1.041   3.227   4.702  0.5547 -0.7435  2.5034
 8307TIP3   OH224884   5.426   1.328   4.935  0.1089 -0.4659 -0.1510
 8307TIP3    H124885   5.495   1.311   4.999 -1.7382 -1.5237  1.6894
 8307TIP3    H224886   5.390   1.242   4.915 -0.8219  0.0734 -0.8836
 8308TIP3   OH224887   3.802   1.494   2.590  0.0375 -0.1209 -0.3619
 8308TIP3    H124888   3.760   1.580   2.602 -0.4301 -0.4795  0.7081
 8308TIP3    H224889   3.745   1.433   2.636  1.9448 -0.5761  1.5682
 8309TIP3   OH224890   6.989   3.398   1.548 -0.4337 -0.7202 -0.4443
 8309TIP3    H124891   7.034   3.314   1.542  2.5084  0.7665 -0.8001
 8309TIP3    H224892   7.031   3.443   1.622 -1.4281  0.7178 -0.7121
 8310TIP3   OH224893   4.827   0.482   1.928 -0.4703  0.3325 -0.2914
 8310TIP3    H124894   4.737   0.464   1.956 -0.3979  1.0016  0.4177
 8310TIP3    H224895   4.881   0.457   2.004 -0.0754  0.1775 -0.6187
 8311TIP3   OH224896   5.807   4.246   1.739 -0.1702  0.1180 -0.8681
 8311TIP3    H124897   5.833   4.337   1.723 -0.4082 -0.0172 -2.1224
 8311TIP3    H224898   5.887   4.203   1.770 -0.0260  0.7184 -0.3809
 8312TIP3   OH224899   5.680   2.205   4.881  0.2624  0.6021 -0.0987
 8312TIP3    H124900   5.678   2.273   4.813 -0.9205 -0.0148 -0.7064
 8312TIP3    H224901   5.675   2.123   4.832  1.0523  0.0947  0.6635
 8313TIP3   OH224902   4.205   4.432   4.463 -0.3069  0.2192 -0.2753
 8313TIP3    H124903   4.256   4.504   4.426  2.2247 -1.0697  0.5217
 8313TIP3    H224904   4.132   4.421   4.401 -1.1658  3.7811 -0.1013
 8314TIP3   OH224905   7.022   0.048   0.757  0.0920 -0.0743 -0.3048
 8314TIP3    H124906   7.029  -0.035   0.709 -0.3528 -1.1641  1.4427
 8314TIP3    H224907   6.927   0.064   0.762  0.0926 -0.3353  0.7735
 8315TIP3   OH224908   5.660   5.403   3.857  0.1230 -0.2023 -0.5384
 8315TIP3    H124909   5.642   5.448   3.775 -1.6063 -0.0957 -0.1370
 8315TIP3    H224910   5.699   5.470   3.913 -0.4093  0.2273 -0.6716
 8316TIP3   OH224911   2.665   4.752   5.226  0.0745  0.4207  0.4387
 8316TIP3    H124912   2.641   4.730   5.137 -2.5251  2.9251  0.3882
 8316TIP3    H224913   2.718   4.678   5.256  0.5173 -0.7641 -2.9209
 8317TIP3   OH224914   0.289   4.835   4.226  0.2130  0.0841 -0.0468
 8317TIP3    H124915   0.214   4.785   4.193  0.9420 -0.3085 -1.1866
 8317TIP3    H224916   0.287   4.917   4.178 -0.6553  0.9531  1.4208
 8318TIP3   OH224917   1.977   2.880   5.041  0.9020  0.0511 -0.0655
 8318TIP3    H124918   1.996   2.900   4.949 -0.1440  0.5649 -0.1848
 8318TIP3    H224919   2.063   2.878   5.083  1.3115  1.1252 -0.7977
 8319TIP3   OH224920   5.616   1.566   3.891 -0.4952 -0.4335  0.1527
 8319TIP3    H124921   5.539   1.552   3.837 -0.1161 -0.0720 -0.5001
 8319TIP3    H224922   5.597   1.647   3.939 -0.5034 -0.3225 -0.0378
 8320TIP3   OH224923   2.458   1.793   3.902 -0.0145 -0.3024 -0.2909
 8320TIP3    H124924   2.460   1.824   3.992  0.3715  0.1251 -0.4373
 8320TIP3    H224925   2.379   1.831   3.865  0.2373  0.1754 -0.3484
 8321TIP3   OH224926   1.904   4.712   3.441 -0.5472  0.1354  0.2814
 8321TIP3    H124927   1.925   4.620   3.450  0.8886  0.3827 -0.3831
 8321TIP3    H224928   1.988   4.756   3.428 -1.3049  1.3807 -0.6921
 8322TIP3   OH224929   6.993   0.170   1.570 -0.2007  0.0773  0.0846
 8322TIP3    H124930   7.039   0.121   1.638  0.5108  0.8909  0.2099
 8322TIP3    H224931   6.908   0.127   1.562  0.2033 -0.8277  0.5673
 8323TIP3   OH224932   6.201   3.790   1.898  0.1233 -0.3310  0.0116
 8323TIP3    H124933   6.117   3.823   1.865 -0.0335  1.0926  1.7046
 8323TIP3    H224934   6.266   3.833   1.843 -0.1899  0.4711  0.2493
 8324TIP3   OH224935   1.403   1.789   5.325  0.2135 -0.2943  0.2239
 8324TIP3    H124936   1.342   1.863   5.336 -1.9478 -1.9740  0.1560
 8324TIP3    H224937   1.489   1.830   5.320 -0.9104  2.2363  0.0438
 8325TIP3   OH224938   2.209   5.637   5.869  0.1702 -0.4628  0.1591
 8325TIP3    H124939   2.122   5.622   5.908  0.3379  0.3196  0.8613
 8325TIP3    H224940   2.190   5.676   5.784 -0.1855  1.7804  1.1838
 8326TIP3   OH224941   1.428   6.759   3.012 -0.1941 -0.3920 -0.2526
 8326TIP3    H124942   1.378   6.831   3.049  0.7904  0.6607 -0.9148
 8326TIP3    H224943   1.361   6.698   2.979 -1.0484  0.6485 -0.4956
 8327TIP3   OH224944   3.772   3.229   3.821  0.2191 -0.1655 -0.5014
 8327TIP3    H124945   3.818   3.301   3.777  0.9264 -0.0776  0.3589
 8327TIP3    H224946   3.691   3.218   3.770  1.1986 -0.3568 -2.0846
 8328TIP3   OH224947   1.257   5.486   5.423 -0.3613  0.1865 -0.5463
 8328TIP3    H124948   1.312   5.447   5.355 -0.6473 -1.1630 -0.0499
 8328TIP3    H224949   1.212   5.411   5.462 -0.5605  0.9802  0.8051
 8329TIP3   OH224950   6.632   6.397   0.341 -0.1418  0.3759 -0.5006
 8329TIP3    H124951   6.655   6.306   0.355  0.0891  0.4300 -0.5295
 8329TIP3    H224952   6.702   6.447   0.383  1.2990  0.5557 -2.8960
 8330TIP3   OH224953   3.799   2.099   0.826  0.1096  0.5509  0.1195
 8330TIP3    H124954   3.839   2.076   0.909  0.3505  0.6502  0.0314
 8330TIP3    H224955   3.808   2.021   0.772  1.2886  0.9701 -0.3163
 8331TIP3   OH224956   5.684   4.324   2.606 -0.1710  0.2743 -0.3509
 8331TIP3    H124957   5.620   4.374   2.556  0.6241  1.4941 -0.1868
 8331TIP3    H224958   5.639   4.301   2.688 -0.4784  0.8808 -0.3481
 8332TIP3   OH224959   1.483   4.666   4.488  0.0045 -0.5297 -0.1635
 8332TIP3    H124960   1.559   4.695   4.437  0.0486 -2.0898 -1.0653
 8332TIP3    H224961   1.427   4.743   4.493  2.4989  1.3560  2.3461
 8333TIP3   OH224962   6.822   1.671   4.424 -0.4082 -0.2654  0.5111
 8333TIP3    H124963   6.829   1.765   4.437 -1.2757 -0.3877  1.9762
 8333TIP3    H224964   6.908   1.645   4.391 -0.8159  1.3357 -2.0990
 8334TIP3   OH224965   0.748   2.861   3.941  0.1157  0.1188 -0.2795
 8334TIP3    H124966   0.786   2.861   4.029  1.0077  1.2848 -0.6370
 8334TIP3    H224967   0.654   2.865   3.956  0.1772 -1.2979  0.6192
 8335TIP3   OH224968   2.553   2.515   2.684  0.1809 -0.3257 -0.1242
 8335TIP3    H124969   2.550   2.573   2.608  0.7320 -1.0425 -0.6998
 8335TIP3    H224970   2.564   2.574   2.759  1.9783  0.2667 -0.8047
 8336TIP3   OH224971   1.372   2.873   0.600  0.4977  0.7191  0.0444
 8336TIP3    H124972   1.347   2.788   0.564  2.0635  0.3992 -0.3504
 8336TIP3    H224973   1.308   2.889   0.669 -0.4477 -0.2854 -0.5606
 8337TIP3   OH224974   4.497   4.749   5.804  0.4020  0.4530  0.4717
 8337TIP3    H124975   4.525   4.840   5.801 -1.6193  1.1185 -0.1744
 8337TIP3    H224976   4.407   4.752   5.838 -0.9689 -0.8758 -2.5755
 8338TIP3   OH224977   0.637   1.630   0.689  0.7871 -0.2689  0.8701
 8338TIP3    H124978   0.620   1.593   0.776 -0.6502 -0.0110  0.7229
 8338TIP3    H224979   0.639   1.555   0.631  1.0551 -0.3869  1.0335
 8339TIP3   OH224980   2.674   5.884   2.699  0.0914  0.8754 -0.2224
 8339TIP3    H124981   2.710   5.799   2.674 -1.4444  0.2575 -0.4704
 8339TIP3    H224982   2.720   5.948   2.644  1.7378  0.2901  0.4516
 8340TIP3   OH224983   6.018   5.051   0.938 -0.0744 -0.5137 -0.4664
 8340TIP3    H124984   6.012   5.000   0.857 -1.7016 -0.1203 -0.6440
 8340TIP3    H224985   5.927   5.062   0.965  0.4281 -0.3626  1.2607
 8341TIP3   OH224986   6.838   4.059   1.571 -0.3493  0.1066 -0.0333
 8341TIP3    H124987   6.841   3.979   1.518 -0.8656  0.2175 -0.2387
 8341TIP3    H224988   6.745   4.073   1.587 -0.3441  1.2513 -0.8785
 8342TIP3   OH224989   6.858   6.024   1.055 -0.2758  0.1663 -0.3695
 8342TIP3    H124990   6.928   6.001   1.116 -1.2351 -0.5311  0.5006
 8342TIP3    H224991   6.779   6.029   1.109 -0.9445  0.7129 -1.3665
 8343TIP3   OH224992   4.296   1.142   2.740 -0.1847 -0.5074 -0.2339
 8343TIP3    H124993   4.245   1.103   2.811  0.1703 -2.6729 -1.0707
 8343TIP3    H224994   4.251   1.114   2.661  1.0147 -0.5667 -0.9172
 8344TIP3   OH224995   0.664   5.950   3.553  0.1590  0.4606 -0.5842
 8344TIP3    H124996   0.758   5.931   3.558 -0.1441 -1.2688  4.4044
 8344TIP3    H224997   0.625   5.869   3.522  0.2267  1.5328 -3.7549
 8345TIP3   OH224998   6.037   1.834   4.356  0.1237  0.2268 -0.2386
 8345TIP3    H124999   5.998   1.921   4.356 -1.1661 -0.3001 -1.7402
 8345TIP3    H225000   5.964   1.775   4.341  0.8979 -1.1954  1.2214
 8346TIP3   OH225001   2.131   4.536   3.430 -0.3603 -0.5482  0.0726
 8346TIP3    H125002   2.051   4.520   3.379 -0.3680  0.2711 -0.1767
 8346TIP3    H225003   2.165   4.448   3.448  0.1378 -0.8722 -2.1272
 8347TIP3   OH225004   4.409   0.608   1.011  0.0500 -0.6344  0.0672
 8347TIP3    H125005   4.414   0.694   0.971  0.6934  0.5037  2.4549
 8347TIP3    H225006   4.322   0.575   0.987 -0.9080  1.4284  0.5430
 8348TIP3   OH225007   2.764   2.308   2.746 -0.4254 -0.4791 -0.2527
 8348TIP3    H125008   2.838   2.357   2.708  0.4130 -0.6347  1.1241
 8348TIP3    H225009   2.690   2.367   2.738  0.2070  0.3501 -0.1494
 8349TIP3   OH225010   6.370   0.953   0.893 -0.0829 -0.1212  0.4594
 8349TIP3    H125011   6.330   1.004   0.823 -0.3643 -1.1437 -0.1535
 8349TIP3    H225012   6.320   0.975   0.971 -0.3889  0.3100  0.1445
 8350TIP3   OH225013   5.092   4.018   4.888  0.6331  0.2734 -0.3072
 8350TIP3    H125014   5.005   4.028   4.850  0.4767 -0.9768 -0.2989
 8350TIP3    H225015   5.113   3.926   4.877  1.5731  0.3694  0.5313
 8351TIP3   OH225016   1.007   3.817   3.396 -0.1145 -0.6449  0.4216
 8351TIP3    H125017   1.039   3.729   3.417  1.7407 -0.5534 -1.6329
 8351TIP3    H225018   0.948   3.805   3.322  1.2326 -0.1008 -0.7994
 8352TIP3   OH225019   5.804   4.425   3.731 -0.0953  0.4772  0.8145
 8352TIP3    H125020   5.850   4.380   3.660 -1.8615  0.6632 -0.5322
 8352TIP3    H225021   5.833   4.516   3.725  0.0169  0.4244  0.5391
 8353TIP3   OH225022   3.231   2.863   3.837  0.3718 -0.4002 -0.8520
 8353TIP3    H125023   3.200   2.883   3.925 -0.0572 -2.1936 -0.5598
 8353TIP3    H225024   3.259   2.772   3.841  0.7441 -0.3929 -2.4670
 8354TIP3   OH225025   3.989   4.674   4.583  0.0667 -0.3176  0.2547
 8354TIP3    H125026   4.071   4.703   4.544  0.0149  1.3222  1.2424
 8354TIP3    H225027   3.961   4.600   4.529  0.7929  0.8100 -1.7809
 8355TIP3   OH225028   3.741   2.272   3.659  0.4229 -0.0932  0.4677
 8355TIP3    H125029   3.675   2.302   3.721 -1.5003 -0.9220 -1.0591
 8355TIP3    H225030   3.824   2.280   3.706 -0.9370 -1.0117  3.2462
 8356TIP3   OH225031   6.101   1.893   1.261 -0.0426 -0.1498 -0.9196
 8356TIP3    H125032   6.056   1.948   1.197  0.8703  0.6028 -0.9356
 8356TIP3    H225033   6.183   1.868   1.217  1.7914  2.4041  0.7798
 8357TIP3   OH225034   5.017   6.754   1.425  0.7954 -0.7099  0.1374
 8357TIP3    H125035   5.085   6.692   1.451 -1.1223 -2.6195  0.8721
 8357TIP3    H225036   4.976   6.714   1.349  0.3359  0.3104 -0.1651
 8358TIP3   OH225037   2.168   4.654   3.784  0.1863 -0.4426  0.1559
 8358TIP3    H125038   2.158   4.666   3.878  1.4967 -3.5828  0.8132
 8358TIP3    H225039   2.083   4.623   3.755 -0.0734  0.0454  0.3756
 8359TIP3   OH225040   1.182   3.830   0.244 -0.2413 -0.4216 -0.4457
 8359TIP3    H125041   1.224   3.810   0.328 -0.9812  1.8070  0.5230
 8359TIP3    H225042   1.252   3.818   0.179  0.8709 -0.3773  0.7079
 8360TIP3   OH225043   4.633   3.990   3.127 -0.0289  0.7881  0.5379
 8360TIP3    H125044   4.688   3.946   3.192  0.0394 -0.3857 -0.2909
 8360TIP3    H225045   4.618   4.077   3.164 -2.1520 -0.6204  3.4118
 8361TIP3   OH225046   5.671   4.126   0.281  0.6913 -0.2094  0.1324
 8361TIP3    H125047   5.626   4.203   0.246  1.6896 -0.0991 -0.9804
 8361TIP3    H225048   5.722   4.160   0.355  0.8553  0.1431 -0.1373
 8362TIP3   OH225049   6.734   1.222   5.455 -0.3735 -0.3492 -0.0229
 8362TIP3    H125050   6.807   1.210   5.394  1.7769 -1.0279  2.4805
 8362TIP3    H225051   6.736   1.316   5.476  0.1550 -0.4571  0.4362
 8363TIP3   OH225052   0.246   2.974   1.931 -0.4299  0.6253 -0.1283
 8363TIP3    H125053   0.220   2.887   1.963  0.9045 -0.1037 -0.9340
 8363TIP3    H225054   0.258   3.026   2.010 -0.2408 -0.2258  0.4236
 8364TIP3   OH225055   3.161   2.507   0.929  0.0912  0.6466 -0.3423
 8364TIP3    H125056   3.096   2.575   0.944 -0.7275 -0.2178  0.1035
 8364TIP3    H225057   3.121   2.451   0.863  1.1514  1.0898 -1.4007
 8365TIP3   OH225058   5.053   5.496   3.561  0.5607  0.0521 -0.7055
 8365TIP3    H125059   5.066   5.563   3.628  0.9146 -0.3571 -0.3538
 8365TIP3    H225060   5.073   5.413   3.606  1.8070 -0.1553 -1.5721
 8366TIP3   OH225061   1.054   0.323   5.170  0.5440 -0.0277  0.5394
 8366TIP3    H125062   1.009   0.239   5.177  0.2446  0.0675 -0.1933
 8366TIP3    H225063   1.073   0.347   5.261 -0.1023 -0.4833  0.8057
 8367TIP3   OH225064   2.041   1.263   1.606  0.2032  0.2983 -0.0489
 8367TIP3    H125065   2.054   1.273   1.700 -0.1221 -0.8722  0.1443
 8367TIP3    H225066   2.057   1.350   1.569  1.7980  0.4479  0.9194
 8368TIP3   OH225067   3.870   3.064   2.093  0.3386  0.1078  0.1930
 8368TIP3    H125068   3.843   2.973   2.101  0.9590 -0.1282 -0.3070
 8368TIP3    H225069   3.820   3.111   2.160  1.2754 -0.8630  1.6218
 8369TIP3   OH225070   5.356   1.582   5.001 -0.1002 -0.6133 -0.4686
 8369TIP3    H125071   5.381   1.497   4.964 -1.3403  0.1927 -3.5009
 8369TIP3    H225072   5.425   1.641   4.973  0.3105 -0.4253  0.8849
 8370TIP3   OH225073   5.668   4.991   3.773 -0.2198  0.4606  0.1943
 8370TIP3    H125074   5.616   4.919   3.738  1.0629 -0.8412  0.8961
 8370TIP3    H225075   5.608   5.066   3.771 -1.2206 -0.3179 -1.6288
 8371TIP3   OH225076   6.536   3.791   1.047 -0.2693 -0.1793  0.1241
 8371TIP3    H125077   6.533   3.871   1.100  1.1446 -1.7080  2.7223
 8371TIP3    H225078   6.561   3.821   0.959 -0.3002  2.2578  0.8783
 8372TIP3   OH225079   4.815   0.386   2.951 -0.2834 -0.1793 -0.3094
 8372TIP3    H125080   4.749   0.423   3.010 -0.7818  0.0232 -0.9886
 8372TIP3    H225081   4.780   0.401   2.863  0.6955 -0.0148 -0.6802
 8373TIP3   OH225082   5.187   5.848   1.200  0.0984 -0.0426  0.2185
 8373TIP3    H125083   5.222   5.761   1.217  0.2163  0.1741  1.1745
 8373TIP3    H225084   5.235   5.905   1.260  1.7721  1.1029 -2.0265
 8374TIP3   OH225085   2.539   3.581   4.309 -0.2754 -0.0995  0.1411
 8374TIP3    H125086   2.624   3.615   4.281 -1.0738  0.2483 -2.0908
 8374TIP3    H225087   2.488   3.659   4.331 -1.2802  0.0863 -2.5078
 8375TIP3   OH225088   2.606   2.487   5.143 -0.3214  0.2153  0.1957
 8375TIP3    H125089   2.527   2.448   5.179 -0.6853  1.1490  0.4197
 8375TIP3    H225090   2.575   2.554   5.082  0.2940  0.5206  0.2050
 8376TIP3   OH225091   7.156   0.119   1.302  0.1955 -0.1969 -0.0232
 8376TIP3    H125092   7.100   0.128   1.225 -0.4165  1.9831  0.5896
 8376TIP3    H225093   7.096   0.127   1.377  1.1034  0.4788  0.6577
 8377TIP3   OH225094   0.171   5.489   1.534  0.7080  0.6021  0.1589
 8377TIP3    H125095   0.256   5.530   1.520  1.2697 -0.9524 -1.3242
 8377TIP3    H225096   0.124   5.502   1.452 -1.0962  2.6216  1.3924
 8378TIP3   OH225097   5.161   0.669   2.417 -0.1949 -0.6184  0.0127
 8378TIP3    H125098   5.209   0.712   2.346  0.6665 -0.9591  0.3765
 8378TIP3    H225099   5.154   0.578   2.389 -2.0847 -0.2825 -0.7909
 8379TIP3   OH225100   0.652   2.818   0.490 -0.5605 -0.1398 -0.2701
 8379TIP3    H125101   0.670   2.911   0.502 -0.8134  0.1317 -1.8570
 8379TIP3    H225102   0.630   2.787   0.578  0.2295  1.1317  0.4024
 8380TIP3   OH225103   0.836   0.650   3.109 -0.3350 -0.5243  0.4167
 8380TIP3    H125104   0.873   0.577   3.060  0.5029 -0.3759  0.8094
 8380TIP3    H225105   0.862   0.634   3.200  0.4665  0.6055  0.4149
 8381TIP3   OH225106   4.369   3.574   3.775  0.3849 -0.6528 -0.2768
 8381TIP3    H125107   4.388   3.483   3.795 -0.5204 -1.2995 -2.1444
 8381TIP3    H225108   4.300   3.571   3.709 -0.9104  1.4277  0.8561
 8382TIP3   OH225109   4.343   3.637   2.109 -0.0210 -0.5024  0.5183
 8382TIP3    H125110   4.289   3.585   2.168 -0.9286 -0.0775  0.0903
 8382TIP3    H225111   4.338   3.726   2.144 -0.8953 -0.1718 -0.3928
 8383TIP3   OH225112   1.554   6.725   1.435 -0.5255  0.1363 -0.0056
 8383TIP3    H125113   1.474   6.762   1.473 -0.5087 -0.3902  0.5723
 8383TIP3    H225114   1.603   6.692   1.511  0.2135  0.4055 -0.3598
 8384TIP3   OH225115   3.485   1.465   0.836  0.0954 -0.1140 -0.2006
 8384TIP3    H125116   3.496   1.468   0.931 -0.7216 -0.5115 -0.0832
 8384TIP3    H225117   3.550   1.402   0.806 -0.1302 -0.5268  0.1773
 8385TIP3   OH225118   2.470   5.382   4.770  0.4213 -0.5408 -0.2673
 8385TIP3    H125119   2.529   5.455   4.786 -0.3250 -0.2193  1.1695
 8385TIP3    H225120   2.384   5.422   4.759  0.2520 -1.0931 -1.0475
 8386TIP3   OH225121   3.980   1.988   5.112 -0.3269  0.2030  0.3275
 8386TIP3    H125122   3.905   1.966   5.167 -0.5224 -0.0219 -0.0199
 8386TIP3    H225123   3.947   2.056   5.053 -0.7801 -1.0768 -0.9632
 8387TIP3   OH225124   2.542   3.812   1.614 -0.6664  0.1624  0.7500
 8387TIP3    H125125   2.530   3.772   1.700 -3.2814 -1.4779 -0.2588
 8387TIP3    H225126   2.610   3.759   1.573 -1.0482 -0.5474  1.0062
 8388TIP3   OH225127   1.820   3.606   3.434  0.4311 -0.0820 -0.2695
 8388TIP3    H125128   1.737   3.619   3.389  1.0476 -0.0138 -1.4143
 8388TIP3    H225129   1.845   3.515   3.414  1.7674  0.5972 -1.9442
 8389TIP3   OH225130   4.398   1.832   1.182  0.0995 -0.6718  0.1632
 8389TIP3    H125131   4.420   1.923   1.163 -0.9928 -0.4187  0.0313
 8389TIP3    H225132   4.311   1.820   1.143  0.7252 -2.1228 -0.8889
 8390TIP3   OH225133   2.564   1.838   5.456  0.3498 -0.1220  0.1919
 8390TIP3    H125134   2.600   1.802   5.374  0.3000  1.2167 -0.4309
 8390TIP3    H225135   2.471   1.819   5.452  0.5108 -1.0931  0.5094
 8391TIP3   OH225136   7.156   0.632   0.175  0.3872  0.0622  0.2592
 8391TIP3    H125137   7.094   0.704   0.170  0.2224 -0.1247 -0.4377
 8391TIP3    H225138   7.122   0.576   0.244 -0.3397 -0.1510 -0.2617
 8392TIP3   OH225139   1.078   0.370   3.266  0.2443 -0.7304  0.1167
 8392TIP3    H125140   1.106   0.305   3.330  0.7757 -1.0222 -0.3922
 8392TIP3    H225141   1.041   0.319   3.194 -2.5994 -0.3189  1.1698
 8393TIP3   OH225142   3.111   2.804   5.596  0.1747  0.3594 -0.1944
 8393TIP3    H125143   3.022   2.795   5.631 -0.4942  1.6972 -1.4305
 8393TIP3    H225144   3.137   2.714   5.575 -0.7919 -0.0794  0.3991
 8394TIP3   OH225145   0.150   1.860   4.028 -0.3037 -0.0846 -0.5090
 8394TIP3    H125146   0.211   1.914   3.977  1.1457 -1.7056 -0.5754
 8394TIP3    H225147   0.064   1.881   3.991  0.1846  2.1119 -0.5557
 8395TIP3   OH225148   4.970   4.927   3.928 -0.3888 -0.3663  0.1589
 8395TIP3    H125149   4.995   4.835   3.938  0.0897 -0.1868  0.6990
 8395TIP3    H225150   4.904   4.942   3.996 -0.6412 -0.3711 -0.0847
 8396TIP3   OH225151   1.949   3.190   5.563 -0.1307  0.0171 -0.5655
 8396TIP3    H125152   2.012   3.170   5.633 -1.1464 -3.2853 -0.4003
 8396TIP3    H225153   1.886   3.250   5.603 -0.3917 -1.3978  1.2767
 8397TIP3   OH225154   0.089   4.871   4.834 -0.2730 -0.1800  0.4971
 8397TIP3    H125155   0.122   4.791   4.794  0.0884  0.2327 -0.0425
 8397TIP3    H225156   0.092   4.854   4.928  0.7692 -0.4358  0.4314
 8398TIP3   OH225157   1.526   4.769   5.191 -0.3331  0.3095  0.4647
 8398TIP3    H125158   1.433   4.761   5.214 -0.1801 -0.1421  0.9375
 8398TIP3    H225159   1.535   4.720   5.109 -0.1275 -1.3556  1.4517
 8399TIP3   OH225160   0.711   6.247   5.251  0.1528 -0.0920  0.3101
 8399TIP3    H125161   0.717   6.160   5.211  0.7179  0.6590 -1.2867
 8399TIP3    H225162   0.754   6.237   5.336  3.1269 -0.6277 -1.1496
 8400TIP3   OH225163   1.153   6.463   4.271 -0.2798 -0.0180 -0.9629
 8400TIP3    H125164   1.144   6.520   4.348 -0.8251  1.5983 -2.1628
 8400TIP3    H225165   1.112   6.381   4.298  3.4995 -1.1996  2.0118
 8401TIP3   OH225166   2.609   1.079   3.576 -0.0314 -0.0684  0.4776
 8401TIP3    H125167   2.574   0.992   3.599  0.0695 -0.5840 -1.1901
 8401TIP3    H225168   2.645   1.068   3.488 -0.6536  1.8492 -0.0663
 8402TIP3   OH225169   2.597   2.220   0.677 -0.6924 -0.4764  0.3507
 8402TIP3    H125170   2.652   2.296   0.697  0.0547 -0.5903 -1.0736
 8402TIP3    H225171   2.655   2.163   0.626 -1.1366 -2.1671  1.6480
 8403TIP3   OH225172   0.561   2.786   5.368  0.2553 -0.1894 -0.1984
 8403TIP3    H125173   0.561   2.743   5.454 -0.5944  0.0961 -0.0422
 8403TIP3    H225174   0.476   2.831   5.364  0.0563 -0.6273 -1.4043
 8404TIP3   OH225175   2.131   4.439   4.434  0.5500 -0.0299  0.2745
 8404TIP3    H125176   2.170   4.433   4.347  1.1429  0.9555  0.4557
 8404TIP3    H225177   2.051   4.490   4.422 -0.5726 -1.7984 -0.0464
 8405TIP3   OH225178   1.264   3.587   2.538 -0.0703 -0.4516  0.2950
 8405TIP3    H125179   1.192   3.524   2.548  1.5581 -2.4708  0.1044
 8405TIP3    H225180   1.243   3.635   2.458 -1.1410 -1.0921  0.1698
 8406TIP3   OH225181   6.178   3.161   4.634  0.4208 -0.0126  0.3850
 8406TIP3    H125182   6.093   3.198   4.661  0.4654  0.6444 -0.3295
 8406TIP3    H225183   6.242   3.211   4.685  0.4724  0.8473 -0.4773
 8407TIP3   OH225184   4.601   3.393   0.624 -0.7528  0.4725  0.2534
 8407TIP3    H125185   4.615   3.320   0.564 -1.7098 -0.1573  0.7802
 8407TIP3    H225186   4.688   3.408   0.663 -0.8226 -1.3142  1.1712
 8408TIP3   OH225187   2.688   5.836   2.064 -0.4740  0.3586 -0.2836
 8408TIP3    H125188   2.603   5.792   2.063 -0.9686  1.1227 -3.5018
 8408TIP3    H225189   2.727   5.813   1.980  1.1529  2.5209 -0.1866
 8409TIP3   OH225190   2.617   6.680   3.909  0.4506 -0.2099 -0.1858
 8409TIP3    H125191   2.617   6.734   3.830 -0.3088  0.4293  0.2365
 8409TIP3    H225192   2.542   6.711   3.960  0.5703 -1.0174  0.5144
 8410TIP3   OH225193   3.658   4.003   3.126 -0.5642 -0.5376  0.3167
 8410TIP3    H125194   3.566   4.007   3.151 -0.6815 -1.2822  0.0273
 8410TIP3    H225195   3.704   3.972   3.204 -0.7228 -1.3413  0.0954
 8411TIP3   OH225196   1.107   1.785   4.350  0.2818  0.4668  0.0408
 8411TIP3    H125197   1.048   1.828   4.411 -1.5748  0.7584 -1.8194
 8411TIP3    H225198   1.167   1.853   4.321 -0.1168  0.8165  0.0416
 8412TIP3   OH225199   0.846   2.265   1.100 -0.2781  0.7402 -0.1433
 8412TIP3    H125200   0.777   2.332   1.105  0.7351  1.7534  0.7804
 8412TIP3    H225201   0.915   2.297   1.159  0.4735 -0.8540 -0.1169
 8413TIP3   OH225202   4.877   1.832   0.491 -0.5757 -0.5504 -0.4843
 8413TIP3    H125203   4.948   1.828   0.427  2.0881 -1.1747  2.2774
 8413TIP3    H225204   4.851   1.924   0.492  1.3485  0.0444 -0.4640
 8414TIP3   OH225205   3.818   4.555   1.916 -0.0867 -0.3893 -1.2257
 8414TIP3    H125206   3.909   4.575   1.893  0.4566 -0.2277  0.8446
 8414TIP3    H225207   3.812   4.460   1.911  0.3761 -0.4436 -0.8596
 8415TIP3   OH225208   6.565   6.240   1.513 -0.2836  0.7153 -0.3138
 8415TIP3    H125209   6.529   6.328   1.517  0.4328  1.2292 -3.0942
 8415TIP3    H225210   6.658   6.253   1.493  0.0903 -0.6798  0.3596
 8416TIP3   OH225211   3.398   4.605   2.395  0.1276 -1.4294  0.4263
 8416TIP3    H125212   3.455   4.648   2.458  1.0675 -1.3978 -0.4173
 8416TIP3    H225213   3.458   4.555   2.339 -0.7455 -2.0326  0.0057
 8417TIP3   OH225214   3.402   4.195   5.128  0.5449  0.5316 -0.1022
 8417TIP3    H125215   3.322   4.230   5.167 -0.2381 -0.9434 -0.3235
 8417TIP3    H225216   3.388   4.101   5.123  1.0986  0.5018 -2.7964
 8418TIP3   OH225217   6.393   3.816   4.481  0.7039 -0.0029 -0.3033
 8418TIP3    H125218   6.352   3.883   4.427  0.0881  0.8627  1.1602
 8418TIP3    H225219   6.361   3.733   4.445  0.7705  0.5126 -1.5842
 8419TIP3   OH225220   3.823   3.908   5.459  0.3159 -0.3316 -0.0757
 8419TIP3    H125221   3.806   3.904   5.365 -0.2194  0.4971 -0.0197
 8419TIP3    H225222   3.892   3.973   5.468 -0.9783  1.0736  0.2452
 8420TIP3   OH225223   0.155   6.339   4.780  0.3380  0.2971  0.0058
 8420TIP3    H125224   0.247   6.336   4.807  0.2680 -3.0672  0.1946
 8420TIP3    H225225   0.106   6.324   4.861 -0.1604 -2.0478 -0.6691
 8421TIP3   OH225226   0.745   3.870   0.540 -0.0048  0.5280 -0.2110
 8421TIP3    H125227   0.743   3.887   0.634 -0.6752  0.1951 -0.1569
 8421TIP3    H225228   0.703   3.947   0.501  0.0092  0.5328 -0.2163
 8422TIP3   OH225229   4.927   2.593   0.397 -0.4505  0.0882  0.0515
 8422TIP3    H125230   4.872   2.669   0.414 -0.0888  0.7379 -1.4827
 8422TIP3    H225231   4.985   2.587   0.473 -0.3317  1.5010  0.0885
 8423TIP3   OH225232   6.337   4.468   0.954  0.2073  0.0101  0.1626
 8423TIP3    H125233   6.310   4.382   0.986  0.8818 -0.4130 -0.3767
 8423TIP3    H225234   6.421   4.453   0.912  0.1814  0.8788 -0.2301
 8424TIP3   OH225235   4.978   0.156   5.448 -0.2328 -0.2022  0.0341
 8424TIP3    H125236   5.017   0.091   5.507  0.6097 -0.5879 -0.9252
 8424TIP3    H225237   4.883   0.147   5.462 -0.1199 -1.5130  0.0528
 8425TIP3   OH225238   4.839   1.325   3.887 -0.3348 -0.2620  0.0912
 8425TIP3    H125239   4.805   1.298   3.973 -2.1832  2.0494  0.1799
 8425TIP3    H225240   4.902   1.394   3.906 -0.9824  0.4829 -0.3760
 8426TIP3   OH225241   5.523   4.390   5.466  0.3507  0.4945  0.0879
 8426TIP3    H125242   5.463   4.440   5.410  1.6228 -0.1323 -1.9494
 8426TIP3    H225243   5.466   4.340   5.525 -1.2100 -0.6859 -2.2722
 8427TIP3   OH225244   4.439   0.739   5.572  0.4220 -0.1781  0.2643
 8427TIP3    H125245   4.446   0.713   5.664  0.5253 -0.3149  0.2178
 8427TIP3    H225246   4.528   0.759   5.545  0.4251 -0.3826  0.1227
 8428TIP3   OH225247   4.466   2.952   0.380  0.0317 -0.1628 -0.0725
 8428TIP3    H125248   4.442   2.918   0.467 -1.2858  0.9393  0.0226
 8428TIP3    H225249   4.450   2.879   0.321  0.5492 -0.7960  0.5476
 8429TIP3   OH225250   2.151   4.719   0.152  0.2855 -0.4573 -0.3043
 8429TIP3    H125251   2.093   4.645   0.132 -2.1601  1.1568  0.3969
 8429TIP3    H225252   2.144   4.777   0.076  0.2140  0.2174  0.2109
 8430TIP3   OH225253   5.429   4.628   4.685  0.6548 -0.5635  0.3791
 8430TIP3    H125254   5.378   4.659   4.760 -1.0120  1.4532 -1.4335
 8430TIP3    H225255   5.508   4.682   4.686  0.0841  0.3139  0.0785
 8431TIP3   OH225256   0.966   4.879   3.225  0.1595 -0.0453 -0.2898
 8431TIP3    H125257   0.873   4.862   3.208  0.0546 -1.1489  1.1336
 8431TIP3    H225258   0.998   4.796   3.262  2.1099 -0.2185 -2.1992
 8432TIP3   OH225259   5.759   1.972   3.442  0.3435  0.3849  0.6420
 8432TIP3    H125260   5.688   1.997   3.502  0.8117 -0.7298  1.6943
 8432TIP3    H225261   5.789   1.887   3.474  0.0856 -0.6551 -1.6853
 8433TIP3   OH225262   5.556   1.115   0.787 -0.1329 -0.3310 -0.2272
 8433TIP3    H125263   5.509   1.177   0.731  1.7284  0.1876 -1.2763
 8433TIP3    H225264   5.647   1.121   0.759  0.4659 -1.8610  1.2331
 8434TIP3   OH225265   1.511   6.320   2.435 -0.1307 -0.2143  0.5576
 8434TIP3    H125266   1.493   6.255   2.367  0.2356  0.5290 -0.2766
 8434TIP3    H225267   1.525   6.269   2.514  1.4171 -1.2474 -0.3396
 8435TIP3   OH225268   2.417   0.626   0.119 -0.1349 -0.1929 -0.0679
 8435TIP3    H125269   2.400   0.532   0.123 -1.6541  0.0464 -0.4281
 8435TIP3    H225270   2.439   0.643   0.027  1.1034 -0.3209  0.1804
 8436TIP3   OH225271   4.247   3.783   5.861 -0.4981 -0.0649 -0.5188
 8436TIP3    H125272   4.203   3.709   5.820 -1.4279  1.4901 -2.5213
 8436TIP3    H225273   4.191   3.858   5.841  1.1771  1.4234  0.1021
 8437TIP3   OH225274   3.012   3.936   2.719  0.5368  0.0821  0.5259
 8437TIP3    H125275   3.081   3.997   2.693  0.8206 -0.8922 -1.1469
 8437TIP3    H225276   3.059   3.862   2.756  0.2474  0.3284  1.4209
 8438TIP3   OH225277   1.101   2.823   1.813  0.3247  0.0645  0.3441
 8438TIP3    H125278   1.191   2.850   1.831  0.5875  0.3447 -1.2511
 8438TIP3    H225279   1.110   2.742   1.762 -0.3817 -0.7089  1.3815
 8439TIP3   OH225280   1.092   6.229   3.957  0.2405 -0.2537  0.1805
 8439TIP3    H125281   1.004   6.267   3.955 -0.3586 -1.6283 -1.4121
 8439TIP3    H225282   1.142   6.281   3.893  0.5388  0.3436  0.8789
 8440TIP3   OH225283   5.640   5.854   2.094 -0.2346 -0.4661  0.0522
 8440TIP3    H125284   5.599   5.769   2.077 -0.0851 -0.2119 -1.8623
 8440TIP3    H225285   5.676   5.881   2.009  1.1420  0.7804  0.9679
 8441TIP3   OH225286   4.889   0.877   5.310  0.0115  0.0291  0.3958
 8441TIP3    H125287   4.854   0.904   5.224 -1.8889 -1.8209  0.5057
 8441TIP3    H225288   4.976   0.842   5.291  0.7516  2.1098 -0.3355
 8442TIP3   OH225289   1.388   4.493   2.988  0.2679 -0.1510 -0.2427
 8442TIP3    H125290   1.430   4.457   2.909  0.1830  0.2913 -0.4905
 8442TIP3    H225291   1.461   4.524   3.041  0.4572 -1.9505  0.6221
 8443TIP3   OH225292   5.299   4.216   1.958 -0.4415  0.3819 -0.0164
 8443TIP3    H125293   5.335   4.177   1.878 -1.1746 -1.5004  0.5273
 8443TIP3    H225294   5.229   4.273   1.927 -0.8077 -0.4295 -0.7311
 8444TIP3   OH225295   5.276   3.340   3.688  0.1091  0.9214  0.5317
 8444TIP3    H125296   5.201   3.328   3.746 -0.4039 -0.3047 -0.3536
 8444TIP3    H225297   5.237   3.361   3.603  0.7314 -0.3745 -0.0928
 8445TIP3   OH225298   4.299   1.178   4.915  0.1994  0.0734 -0.1259
 8445TIP3    H125299   4.297   1.145   4.826 -1.1032 -1.1891  0.3280
 8445TIP3    H225300   4.254   1.262   4.910  2.2106  1.1505 -1.0350
 8446TIP3   OH225301   4.958   0.475   5.063 -0.1108  0.6006 -0.2175
 8446TIP3    H125302   4.919   0.448   4.979  1.8246 -2.5307 -0.2843
 8446TIP3    H225303   4.940   0.401   5.121  0.6025  1.7025  1.4457
 8447TIP3   OH225304   3.943   4.428   3.511 -0.1876 -0.0678  0.1042
 8447TIP3    H125305   3.960   4.349   3.460  1.4232  0.2740  0.0712
 8447TIP3    H225306   3.848   4.441   3.503 -0.3899 -1.6044 -0.4359
 8448TIP3   OH225307   3.568   1.710   0.602  0.3464  0.1647 -0.9523
 8448TIP3    H125308   3.533   1.653   0.671 -0.1442  0.1693 -1.1898
 8448TIP3    H225309   3.492   1.761   0.573  0.6170  0.3846 -1.2774
 8449TIP3   OH225310   0.098   0.787   5.132 -0.3105  0.3400 -0.9758
 8449TIP3    H125311   0.114   0.874   5.095  4.4520 -0.0900 -0.5583
 8449TIP3    H225312   0.099   0.729   5.056  1.0100  0.2572 -0.9061
 8450TIP3   OH225313   5.906   1.421   5.822  0.3847 -0.1524  0.0364
 8450TIP3    H125314   5.875   1.390   5.907  0.7733 -1.8384 -0.3978
 8450TIP3    H225315   5.855   1.499   5.804  0.4914  0.4016  1.9471
 8451TIP3   OH225316   2.911   5.301   5.528  0.0323 -0.5147  0.5264
 8451TIP3    H125317   2.838   5.323   5.585  0.6698 -0.4099  1.3182
 8451TIP3    H225318   2.928   5.209   5.545  0.4696 -0.3884  0.8074
 8452TIP3   OH225319   6.141   4.266   4.646  0.0529 -0.1770  0.1902
 8452TIP3    H125320   6.096   4.182   4.633 -1.3295  0.5348  0.1119
 8452TIP3    H225321   6.232   4.248   4.625 -0.3670 -1.4610 -0.6640
 8453TIP3   OH225322   3.241   2.457   5.184  0.3000  0.2410  0.2203
 8453TIP3    H125323   3.287   2.537   5.158  0.9889 -0.3323 -0.3922
 8453TIP3    H225324   3.150   2.473   5.158  0.3325  0.9969  0.5256
 8454TIP3   OH225325   1.568   2.601   2.235 -0.5623  0.3560 -0.0102
 8454TIP3    H125326   1.574   2.691   2.204 -1.1521  0.2683 -0.3965
 8454TIP3    H225327   1.624   2.599   2.313  0.0145  0.8688 -0.4003
 8455TIP3   OH225328   0.160   5.489   5.382 -0.3363  0.4516  0.1497
 8455TIP3    H125329   0.143   5.565   5.327 -1.2425 -0.8281 -1.4590
 8455TIP3    H225330   0.252   5.468   5.366 -0.6160  0.0280 -1.0225
 8456TIP3   OH225331   0.643   3.125   1.186 -0.3085 -0.1879 -0.1629
 8456TIP3    H125332   0.568   3.075   1.155 -0.5455  1.1924 -2.0121
 8456TIP3    H225333   0.608   3.179   1.257 -1.7332  2.0324 -2.3837
 8457TIP3   OH225334   3.704   3.945   3.377 -0.5715  0.2585 -0.3687
 8457TIP3    H125335   3.780   3.916   3.429  1.5671  0.6384 -3.0230
 8457TIP3    H225336   3.634   3.956   3.441  0.9474 -2.2754  1.9726
 8458TIP3   OH225337   7.071   3.610   2.122 -0.0463  0.2341 -0.0495
 8458TIP3    H125338   7.016   3.683   2.094 -1.3106 -0.3154  0.9000
 8458TIP3    H225339   7.121   3.644   2.196 -1.2562 -0.0778  0.9369
 8459TIP3   OH225340   6.412   6.490   4.920 -0.0756  0.4140 -0.2075
 8459TIP3    H125341   6.333   6.519   4.876  0.4443  1.7210 -0.3355
 8459TIP3    H225342   6.403   6.395   4.928 -1.7446  0.5719 -0.0094
 8460TIP3   OH225343   1.815   3.839   1.400 -0.4075  0.3865 -0.5834
 8460TIP3    H125344   1.807   3.803   1.311  2.0526 -0.4228 -0.5285
 8460TIP3    H225345   1.756   3.915   1.399 -1.8339 -0.6428 -2.3062
 8461TIP3   OH225346   4.293   2.942   2.006 -0.7627  0.2142  0.3086
 8461TIP3    H125347   4.328   3.029   1.988 -1.3994  0.4602  0.2374
 8461TIP3    H225348   4.354   2.882   1.963 -0.7766  0.6679 -0.3537
 8462TIP3   OH225349   5.737   4.942   0.515  0.2801  0.1164 -0.1809
 8462TIP3    H125350   5.663   4.980   0.562  0.5865  0.9463 -0.3429
 8462TIP3    H225351   5.697   4.883   0.451 -0.1597 -0.5794  0.7199
 8463TIP3   OH225352   5.181   0.188   1.803  0.5314 -0.0099  0.2170
 8463TIP3    H125353   5.230   0.207   1.723  1.5115  0.5940  0.9438
 8463TIP3    H225354   5.216   0.248   1.868  0.8840 -1.5421  1.5244
 8464TIP3   OH225355   4.855   3.571   5.558 -0.3350 -0.1745  0.0969
 8464TIP3    H125356   4.839   3.612   5.473  1.5336  1.7020  0.5593
 8464TIP3    H225357   4.774   3.582   5.607 -0.8524  0.2672 -0.8517
 8465TIP3   OH225358   3.360   3.888   2.112 -0.0418  0.1254  0.4197
 8465TIP3    H125359   3.357   3.809   2.166  1.1294  2.7543  4.8440
 8465TIP3    H225360   3.453   3.907   2.101 -0.2913  0.6407 -1.0497
 8466TIP3   OH225361   0.865   5.098   5.346  0.3092  0.1507  0.0287
 8466TIP3    H125362   0.884   5.028   5.409  0.6996  0.9565  0.8296
 8466TIP3    H225363   0.797   5.061   5.290  1.4673 -1.3913 -0.4588
 8467TIP3   OH225364   4.546   5.099   5.534 -0.4246 -0.1063  0.2629
 8467TIP3    H125365   4.459   5.066   5.513 -1.2856  2.5768 -0.7314
 8467TIP3    H225366   4.562   5.168   5.470  2.8790 -1.1377 -0.2220
 8468TIP3   OH225367   1.551   2.935   3.096 -0.1355  0.0717  0.6039
 8468TIP3    H125368   1.624   2.958   3.154  0.9222  0.2031 -0.7340
 8468TIP3    H225369   1.499   3.015   3.092  1.4692  1.1337 -1.0080
 8469TIP3   OH225370   4.076   4.396   5.514 -0.2392 -0.3237 -0.0412
 8469TIP3    H125371   4.079   4.434   5.427 -2.3015 -0.2547 -0.1434
 8469TIP3    H225372   4.154   4.428   5.558  0.8450 -0.3866 -1.8551
 8470TIP3   OH225373   2.822   2.107   0.508 -0.2001  0.1967  0.1293
 8470TIP3    H125374   2.782   2.021   0.520  0.7205 -0.3683 -0.7326
 8470TIP3    H225375   2.874   2.120   0.587  0.1099 -0.3014  0.0130
 8471TIP3   OH225376   6.832   4.143   3.823 -0.0801  0.1248  0.2337
 8471TIP3    H125377   6.821   4.213   3.888 -0.1513  0.6696 -0.3549
 8471TIP3    H225378   6.846   4.189   3.740  1.4464 -0.5416  0.0782
 8472TIP3   OH225379   1.658   4.626   2.554  0.2510 -0.4117 -0.0969
 8472TIP3    H125380   1.745   4.642   2.520  0.2899  1.7311  0.8782
 8472TIP3    H225381   1.605   4.603   2.477  1.5581 -1.3569 -0.7391
 8473TIP3   OH225382   4.872   5.847   4.413 -0.1881 -0.7011 -0.0719
 8473TIP3    H125383   4.851   5.898   4.491  0.9428  1.8524 -1.2913
 8473TIP3    H225384   4.849   5.905   4.340  1.3330 -1.8758 -1.5603
 8474TIP3   OH225385   6.372   1.785   1.910 -0.2528  1.1885  0.3657
 8474TIP3    H125386   6.424   1.705   1.912  0.1527  1.3700 -1.2604
 8474TIP3    H225387   6.433   1.855   1.934 -0.1562  1.2083  0.0667
 8475TIP3   OH225388   3.335   5.644   0.798  0.0450 -0.0113  0.0910
 8475TIP3    H125389   3.246   5.678   0.799 -0.4660 -1.2754  1.2622
 8475TIP3    H225390   3.363   5.652   0.707 -0.4200  2.4388  0.1114
 8476TIP3   OH225391   1.660   0.783   5.004 -0.1354 -0.1608 -0.1784
 8476TIP3    H125392   1.570   0.750   4.996 -0.5552  0.3231  1.8405
 8476TIP3    H225393   1.693   0.743   5.084  1.9147 -1.2367 -1.4784
 8477TIP3   OH225394   4.100   2.724   1.032  0.6751  0.2884 -0.7572
 8477TIP3    H125395   4.047   2.703   0.956 -0.4438  0.6148 -0.0829
 8477TIP3    H225396   4.059   2.677   1.104  1.1515  0.7492 -0.1714
 8478TIP3   OH225397   1.665   5.420   2.606  0.4220 -0.1275  0.2440
 8478TIP3    H125398   1.678   5.479   2.531  0.7307 -0.4972  0.0022
 8478TIP3    H225399   1.583   5.375   2.588  0.9877 -0.9377 -0.3689
 8479TIP3   OH225400   2.323   6.330   5.319 -0.0129 -0.4355 -0.5279
 8479TIP3    H125401   2.404   6.280   5.325  0.3113  0.2013  0.6918
 8479TIP3    H225402   2.340   6.396   5.252  0.3226 -0.5571 -0.5631
 8480TIP3   OH225403   5.402   3.560   3.825 -0.2002 -0.7251  0.0559
 8480TIP3    H125404   5.354   3.485   3.791 -0.3056 -0.1729 -1.0661
 8480TIP3    H225405   5.334   3.622   3.853 -0.1277 -0.6729  0.1180
 8481TIP3   OH225406   1.475   6.587   0.648  0.1524 -0.2834 -0.0214
 8481TIP3    H125407   1.526   6.576   0.728  2.2349  1.5808 -0.9820
 8481TIP3    H225408   1.423   6.667   0.663 -1.9802 -1.6968  0.6187
 8482TIP3   OH225409   5.249   0.963   1.180  0.2248  0.7336  0.0476
 8482TIP3    H125410   5.259   0.874   1.148 -0.0341  0.5481  0.4740
 8482TIP3    H225411   5.321   1.012   1.139  0.9533  0.1189  0.5528
 8483TIP3   OH225412   0.362   3.253   3.151  0.1814 -0.2859  0.0347
 8483TIP3    H125413   0.386   3.176   3.203  0.0102 -0.1932  0.2548
 8483TIP3    H225414   0.443   3.280   3.107  0.0521 -1.1282 -0.7512
 8484TIP3   OH225415   4.133   0.162   4.765  0.1244 -0.0135  0.0314
 8484TIP3    H125416   4.068   0.165   4.835 -1.3103 -1.9885 -1.1034
 8484TIP3    H225417   4.119   0.244   4.717 -0.9143  0.0151  0.3444
 8485TIP3   OH225418   6.953   0.741   1.655 -0.0939 -0.8306  0.2411
 8485TIP3    H125419   7.044   0.711   1.651  0.2576  0.2074  0.2539
 8485TIP3    H225420   6.902   0.665   1.628  0.7121 -1.7316  1.1502
 8486TIP3   OH225421   0.596   4.010   3.321  0.3787  0.0876 -0.0203
 8486TIP3    H125422   0.586   3.988   3.228  2.1064  0.6505 -0.3815
 8486TIP3    H225423   0.579   3.927   3.366 -1.2864 -0.0088 -0.7465
 8487TIP3   OH225424   3.879   2.749   5.062 -0.4173  0.7844 -0.6753
 8487TIP3    H125425   3.875   2.657   5.034 -0.9092  1.1407 -1.8065
 8487TIP3    H225426   3.965   2.758   5.103 -0.5283 -0.2847 -0.1694
 8488TIP3   OH225427   4.500   2.103   1.106 -0.1501  0.0890  0.0750
 8488TIP3    H125428   4.541   2.111   1.020  0.3043 -1.3014  0.1352
 8488TIP3    H225429   4.454   2.186   1.119 -0.6095  0.1573 -1.7114
 8489TIP3   OH225430   6.293   2.090   3.862  0.6880  0.0435  0.3804
 8489TIP3    H125431   6.304   2.134   3.777 -0.7688  0.5477  0.4314
 8489TIP3    H225432   6.282   1.998   3.841 -1.7495  0.3975 -0.2006
 8490TIP3   OH225433   0.815   2.158   1.461  0.2739  0.0653 -0.2272
 8490TIP3    H125434   0.809   2.248   1.431 -0.6686  0.3874  0.8702
 8490TIP3    H225435   0.894   2.155   1.514  0.8904 -0.0332 -1.1305
 8491TIP3   OH225436   2.798   4.353   1.194  0.8240  0.1428 -0.2808
 8491TIP3    H125437   2.762   4.439   1.213 -1.8141 -0.6194 -1.3476
 8491TIP3    H225438   2.891   4.359   1.218  0.6045  3.0810  0.1267
 8492TIP3   OH225439   0.040   1.149   3.998  0.3568 -0.0618 -0.2294
 8492TIP3    H125440   0.121   1.194   4.022 -0.4923  1.2910  0.2013
 8492TIP3    H225441   0.069   1.077   3.942  1.7992  0.7363 -0.5733
 8493TIP3   OH225442   5.295   4.819   5.157  0.1788 -0.0984 -0.1464
 8493TIP3    H125443   5.248   4.829   5.240  0.1940 -0.0073 -0.1493
 8493TIP3    H225444   5.387   4.811   5.183  0.6199  3.2659 -0.3171
 8494TIP3   OH225445   0.286   0.803   0.557  0.5164 -0.6122  0.4649
 8494TIP3    H125446   0.300   0.893   0.586 -2.2741 -0.1038  0.5419
 8494TIP3    H225447   0.277   0.753   0.639  0.0540 -0.5657  0.4458
 8495TIP3   OH225448   1.953   3.462   1.124 -0.0563 -0.1074 -0.0590
 8495TIP3    H125449   1.864   3.496   1.136  0.2098  0.4353  0.4256
 8495TIP3    H225450   1.944   3.398   1.053 -0.6334  0.7220 -0.7627
 8496TIP3   OH225451   2.629   5.234   1.063  0.4900  0.0987 -0.0878
 8496TIP3    H125452   2.664   5.146   1.048 -0.2034 -0.3410  0.7328
 8496TIP3    H225453   2.539   5.219   1.091  0.2044  1.1066 -0.4287
 8497TIP3   OH225454   6.777   6.469   1.226  0.0792  0.0542 -0.4150
 8497TIP3    H125455   6.841   6.402   1.248  0.8024  0.8341 -0.0801
 8497TIP3    H225456   6.701   6.420   1.195  0.9013 -0.8806 -1.0073
 8498TIP3   OH225457   2.378   1.514   4.893  0.2664 -0.1234  0.7159
 8498TIP3    H125458   2.326   1.448   4.846  0.5391  1.7882 -2.6182
 8498TIP3    H225459   2.317   1.553   4.955 -1.1635 -0.6489 -0.2986
 8499TIP3   OH225460   2.319   1.232   0.853 -0.4946 -0.1543  0.8429
 8499TIP3    H125461   2.264   1.154   0.848 -0.9022  0.1957 -2.1335
 8499TIP3    H225462   2.396   1.210   0.801 -0.2659  1.1724  0.5963
 8500TIP3   OH225463   6.244   4.595   5.670 -0.0833  0.4535 -0.2587
 8500TIP3    H125464   6.171   4.547   5.710 -0.0786  1.4133  0.9612
 8500TIP3    H225465   6.285   4.531   5.611 -1.6328 -0.2305 -0.6451
 8501TIP3   OH225466   6.324   2.984   1.798  0.2352  0.0049  0.3383
 8501TIP3    H125467   6.276   3.063   1.775  1.7637  0.9044  0.0727
 8501TIP3    H225468   6.371   2.961   1.718  1.0597 -0.2212  0.8737
 8502TIP3   OH225469   3.101   0.038   2.219  0.0139  0.1454  0.2035
 8502TIP3    H125470   3.153  -0.027   2.266 -1.4350  0.0599  1.7427
 8502TIP3    H225471   3.128   0.122   2.256 -1.0512  0.0858  1.1591
 8503TIP3   OH225472   4.419   5.631   4.126 -0.1265 -0.3391  0.1563
 8503TIP3    H125473   4.411   5.547   4.080 -0.8413  0.6438 -1.6233
 8503TIP3    H225474   4.330   5.666   4.129  0.5173  1.7747 -2.0349
 8504TIP3   OH225475   0.095   2.919   0.247 -0.6076  0.3583  0.3043
 8504TIP3    H125476   0.106   2.988   0.182  1.2805 -1.1530 -1.1080
 8504TIP3    H225477   0.184   2.897   0.273 -0.9088 -3.1572 -1.1341
 8505TIP3   OH225478   5.321   2.329   2.885  0.1017  0.2288 -0.2697
 8505TIP3    H125479   5.324   2.299   2.976  1.3504  1.2390  0.0531
 8505TIP3    H225480   5.274   2.260   2.838  1.1194 -1.2471  0.7980
 8506TIP3   OH225481   5.545   5.107   5.499 -0.4464  0.3232 -0.3990
 8506TIP3    H125482   5.624   5.070   5.459 -0.9928 -1.3924  0.0135
 8506TIP3    H225483   5.554   5.201   5.487  1.4277  0.1380 -0.7924
 8507TIP3   OH225484   0.123   4.383   3.218 -0.1116  0.3481 -0.0025
 8507TIP3    H125485   0.095   4.475   3.207 -0.9736  0.2582  1.1771
 8507TIP3    H225486   0.216   4.383   3.195 -0.0777  1.5393  0.0687
 8508TIP3   OH225487   2.369   1.601   3.540 -0.0605 -0.3090 -0.1334
 8508TIP3    H125488   2.287   1.626   3.581  0.5913  1.4776  0.1827
 8508TIP3    H225489   2.418   1.556   3.609  0.3950  1.2904  0.6452
 8509TIP3   OH225490   4.067   5.035   1.151 -0.4220  0.7497  0.5294
 8509TIP3    H125491   4.097   5.103   1.211 -0.5097  2.4371 -1.2472
 8509TIP3    H225492   3.988   5.000   1.192  1.0056 -0.1364  2.7216
 8510TIP3   OH225493   0.541   2.016   0.882  0.0905 -0.0862 -0.1103
 8510TIP3    H125494   0.473   1.949   0.887  0.9634 -1.2600 -2.4080
 8510TIP3    H225495   0.562   2.037   0.973 -0.2799 -2.8851  0.7025
 8511TIP3   OH225496   1.569   2.678   4.557 -0.2530  0.0239  0.1050
 8511TIP3    H125497   1.650   2.630   4.540 -0.5405 -0.5290  0.3120
 8511TIP3    H225498   1.592   2.739   4.627 -0.2042 -0.6358  0.6746
 8512TIP3   OH225499   6.375   4.597   3.213 -0.2342 -0.5348  0.5487
 8512TIP3    H125500   6.445   4.560   3.159  0.9405 -0.1938  1.7678
 8512TIP3    H225501   6.342   4.523   3.264  1.8240 -0.1180  2.6735
 8513TIP3   OH225502   2.185   3.649   1.039  0.5803 -0.2363 -0.4475
 8513TIP3    H125503   2.245   3.723   1.052 -0.2709  0.4192 -0.1853
 8513TIP3    H225504   2.158   3.624   1.127 -2.1855  1.7213 -0.6218
 8514TIP3   OH225505   6.071   1.640   1.619 -0.0701 -0.1488  0.0214
 8514TIP3    H125506   6.050   1.698   1.693  1.0975  0.0026  0.2588
 8514TIP3    H225507   6.053   1.552   1.652 -1.4799  0.0184 -0.2104
 8515TIP3   OH225508   2.063   3.851   4.970  0.5637 -0.3288  0.1669
 8515TIP3    H125509   1.967   3.858   4.965  0.2954 -3.3393 -2.8341
 8515TIP3    H225510   2.095   3.934   4.935 -0.9247  0.7680  1.3232
 8516TIP3   OH225511   3.433   3.409   1.033  0.5462  0.3118 -0.4418
 8516TIP3    H125512   3.517   3.390   0.991 -0.1420 -0.7993 -1.3934
 8516TIP3    H225513   3.388   3.468   0.972  0.0606 -0.2752 -0.6638
 8517TIP3   OH225514   2.801   3.226   5.210  0.4308  0.1469  0.4475
 8517TIP3    H125515   2.888   3.248   5.242  0.5452  0.8546 -0.3448
 8517TIP3    H225516   2.782   3.141   5.250  1.1612  0.3398  1.2346
 8518TIP3   OH225517   4.705   3.110   1.899  0.5596  0.4470 -0.5479
 8518TIP3    H125518   4.677   3.019   1.907  1.2985  0.2338 -0.3573
 8518TIP3    H225519   4.750   3.129   1.981  1.0353  0.7615 -0.8770
 8519TIP3   OH225520   5.758   3.749   1.354 -0.5045  0.3966  0.2031
 8519TIP3    H125521   5.744   3.726   1.262 -0.6345 -1.6212  0.6786
 8519TIP3    H225522   5.670   3.757   1.391 -0.4523  0.6029  0.2819
 8520TIP3   OH225523   4.078   6.691   1.615  0.0962 -0.0169  0.8229
 8520TIP3    H125524   4.073   6.649   1.529 -3.3281  0.8289  0.4750
 8520TIP3    H225525   4.172   6.699   1.632  0.8807 -2.2404 -1.7873
 8521TIP3   OH225526   1.662   6.629   5.877 -0.7303  0.3318  0.7193
 8521TIP3    H125527   1.689   6.538   5.860 -0.1962  0.7742 -1.0029
 8521TIP3    H225528   1.570   6.622   5.903 -1.5755 -0.5137 -2.2008
 8522TIP3   OH225529   1.332   1.403   4.307 -0.4475 -0.2720 -0.1973
 8522TIP3    H125530   1.250   1.390   4.353  0.0203 -0.0398  0.7219
 8522TIP3    H225531   1.391   1.337   4.344 -0.7405 -1.7787 -2.2278
 8523TIP3   OH225532   0.459   2.437   0.509 -0.7609  0.3911 -0.4651
 8523TIP3    H125533   0.407   2.357   0.520 -0.1120 -0.1714 -1.3316
 8523TIP3    H225534   0.501   2.427   0.424  0.1476  1.1819 -0.1327
 8524TIP3   OH225535   0.314   0.128   4.160 -0.1621 -0.1251  0.4786
 8524TIP3    H125536   0.265   0.192   4.212 -2.7291 -0.9040 -0.7868
 8524TIP3    H225537   0.333   0.057   4.222 -3.0264 -0.9704  0.5617
 8525TIP3   OH225538   6.228   1.811   4.604  0.5127 -0.4824  0.3746
 8525TIP3    H125539   6.159   1.832   4.541  0.5274  0.3424  0.6200
 8525TIP3    H225540   6.273   1.736   4.566  1.1490  0.6098 -1.0984
 8526TIP3   OH225541   3.327   1.380   3.286 -0.2035 -0.1183 -0.2865
 8526TIP3    H125542   3.420   1.402   3.287 -0.6857  2.1717 -0.5341
 8526TIP3    H225543   3.306   1.363   3.194 -0.3777  1.1569 -0.4987
 8527TIP3   OH225544   2.621   1.487   4.844 -0.1605  0.5268  0.1560
 8527TIP3    H125545   2.677   1.460   4.917  0.1393 -0.6489 -0.4917
 8527TIP3    H225546   2.532   1.480   4.879 -0.0183  0.0317  0.4351
 8528TIP3   OH225547   1.000   4.083   0.113 -0.1975 -0.3626 -0.0568
 8528TIP3    H125548   0.990   3.988   0.114  1.9853 -0.6503  1.0416
 8528TIP3    H225549   1.038   4.102   0.027 -0.1950 -0.5271 -0.0925
 8529TIP3   OH225550   3.117   5.606   3.680 -0.4703  0.2711  0.6137
 8529TIP3    H125551   3.174   5.657   3.622 -1.2019 -1.4288 -1.7256
 8529TIP3    H225552   3.175   5.576   3.749  1.2651 -0.4209 -1.0474
 8530TIP3   OH225553   0.780   6.358   2.690 -0.3566  0.2758  0.2563
 8530TIP3    H125554   0.697   6.389   2.654 -0.1257  1.0662  0.3889
 8530TIP3    H225555   0.843   6.426   2.668  0.0427  0.1817  1.0580
 8531TIP3   OH225556   6.244   2.165   5.894 -0.2451 -0.2299 -0.1237
 8531TIP3    H125557   6.293   2.224   5.836 -0.9225  0.0034 -0.4690
 8531TIP3    H225558   6.155   2.200   5.894 -0.9621 -1.9259 -1.2889
 8532TIP3   OH225559   4.758   6.300   4.004 -0.3901 -0.5690  0.3550
 8532TIP3    H125560   4.795   6.278   3.918 -0.0027  1.0728  0.0657
 8532TIP3    H225561   4.703   6.225   4.026  1.2296 -2.0371 -0.3016
 8533TIP3   OH225562   4.396   1.109   0.744 -0.1228  0.4850 -0.6002
 8533TIP3    H125563   4.463   1.048   0.714  0.4126  1.1635 -0.8080
 8533TIP3    H225564   4.393   1.096   0.839 -1.6426 -1.4790 -0.8374
 8534TIP3   OH225565   5.771   2.222   2.819 -0.1845  0.4103 -0.5663
 8534TIP3    H125566   5.819   2.223   2.902 -0.0027  0.3116 -0.6680
 8534TIP3    H225567   5.679   2.215   2.844 -0.0883 -0.2655 -0.3897
 8535TIP3   OH225568   2.928   6.320   0.813  0.2619 -0.4009 -0.2556
 8535TIP3    H125569   3.003   6.297   0.758 -0.6593  0.0867 -1.8061
 8535TIP3    H225570   2.917   6.414   0.799 -0.5653 -0.4488  0.0397
 8536TIP3   OH225571   4.175   2.553   2.084  0.0772  0.0920  0.0211
 8536TIP3    H125572   4.157   2.572   1.992 -2.1825 -0.6620  0.2493
 8536TIP3    H225573   4.266   2.524   2.085 -0.0926 -0.7048 -2.1313
 8537TIP3   OH225574   4.076   0.568   1.153  0.0472  0.3974 -0.3913
 8537TIP3    H125575   4.046   0.593   1.066  0.6089 -0.2695 -0.7872
 8537TIP3    H225576   4.020   0.618   1.213  0.7339  2.1024 -1.1255
 8538TIP3   OH225577   5.893   3.428   0.380  0.8787  0.3811  0.2499
 8538TIP3    H125578   5.971   3.391   0.421  1.3794  1.6422  0.4762
 8538TIP3    H225579   5.832   3.440   0.453  0.0926 -1.4399 -0.0520
 8539TIP3   OH225580   7.209   5.601   1.345  0.5887  0.0203  0.3844
 8539TIP3    H125581   7.221   5.552   1.263  0.0902  0.4745  0.0310
 8539TIP3    H225582   7.116   5.622   1.347  0.0838 -2.0296  2.2617
 8540TIP3   OH225583   6.884   5.577   3.095  0.5110 -0.0600  0.0928
 8540TIP3    H125584   6.841   5.538   3.171  1.5497 -0.6700  0.3758
 8540TIP3    H225585   6.916   5.662   3.126 -0.0974  0.2152 -0.0065
 8541TIP3   OH225586   4.978   6.229   2.887  0.6698  0.1786  0.2070
 8541TIP3    H125587   4.930   6.229   2.804 -0.6496 -2.4877  0.8638
 8541TIP3    H225588   5.019   6.315   2.891 -1.3735  1.3556 -1.9656
 8542TIP3   OH225589   5.898   2.031   0.254  0.2279  0.2679 -0.1212
 8542TIP3    H125590   5.891   2.002   0.345 -2.1803  1.0604  0.0300
 8542TIP3    H225591   5.945   1.961   0.210  0.5930 -0.5846  1.5431
 8543TIP3   OH225592   5.985   3.180   5.739  0.6214  0.1162  0.1898
 8543TIP3    H125593   5.913   3.225   5.782  0.7421  0.4873  0.0095
 8543TIP3    H225594   6.064   3.214   5.782  0.9431  2.4253 -1.9421
 8544TIP3   OH225595   4.870   3.967   5.076  0.3891 -0.0668 -0.1498
 8544TIP3    H125596   4.826   3.968   4.991  1.5425 -0.3663 -0.7798
 8544TIP3    H225597   4.955   4.009   5.059  0.2208  0.8435  1.1091
 8545TIP3   OH225598   2.656   0.527   0.606 -0.3199 -0.1852  0.0348
 8545TIP3    H125599   2.720   0.473   0.560  0.0751 -0.9840  1.4493
 8545TIP3    H225600   2.654   0.610   0.558  1.1381 -0.4570 -0.5256
 8546TIP3   OH225601   0.409   3.696   1.370 -0.2602  0.1205  0.1560
 8546TIP3    H125602   0.468   3.689   1.295 -2.1030  1.4785 -1.5492
 8546TIP3    H225603   0.449   3.763   1.426  1.0011 -0.7093  0.2744
 8547TIP3   OH225604   4.898   4.936   0.824 -0.2943 -0.2791 -0.1936
 8547TIP3    H125605   4.814   4.964   0.859  0.3866 -0.1616  1.4558
 8547TIP3    H225606   4.924   5.007   0.765 -0.6267  0.4790  0.5377
 8548TIP3   OH225607   6.391   4.040   1.159  0.3373 -0.3031  0.9726
 8548TIP3    H125608   6.314   4.065   1.106  1.1716 -1.8561 -1.1223
 8548TIP3    H225609   6.362   3.965   1.210 -0.5913  1.4411  3.1875
 8549TIP3   OH225610   4.933   3.954   3.674  0.3922 -0.4406  0.0177
 8549TIP3    H125611   4.998   3.901   3.628  2.4567  1.1753  0.9245
 8549TIP3    H225612   4.879   3.891   3.722  0.5970 -1.8865 -1.5496
 8550TIP3   OH225613   3.228   6.323   0.413 -0.5670  0.2165 -0.1172
 8550TIP3    H125614   3.301   6.273   0.376  1.1289  1.2594  1.5976
 8550TIP3    H225615   3.245   6.413   0.386  0.0136  0.7981  2.0049
 8551TIP3   OH225616   1.336   1.079   0.688 -0.0226  0.0764  0.0105
 8551TIP3    H125617   1.360   1.077   0.595  1.8383  1.3516  0.4166
 8551TIP3    H225618   1.278   1.154   0.696 -2.3394 -1.5399 -0.5148
 8552TIP3   OH225619   1.889   2.996   0.174  0.1459  0.0481 -0.1369
 8552TIP3    H125620   1.909   3.086   0.150  1.0657  0.4380  1.8315
 8552TIP3    H225621   1.866   2.953   0.092 -0.5158  2.1076 -1.0898
 8553TIP3   OH225622   3.458   5.531   3.280 -0.4122 -0.4496  0.0454
 8553TIP3    H125623   3.408   5.501   3.204  0.3655  0.1156 -0.7098
 8553TIP3    H225624   3.405   5.504   3.355 -1.6528 -0.2302 -0.7078
 8554TIP3   OH225625   4.845   4.390   3.994 -0.1260 -0.0566 -0.7202
 8554TIP3    H125626   4.753   4.411   4.010  0.0999  0.5438 -0.1794
 8554TIP3    H225627   4.887   4.396   4.080  0.4536 -0.1692 -0.9865
 8555TIP3   OH225628   5.737   2.777   2.500 -0.2198 -0.3996 -0.1456
 8555TIP3    H125629   5.809   2.804   2.558  0.5309 -0.3976 -1.0492
 8555TIP3    H225630   5.781   2.742   2.423 -1.1117  2.6910 -2.2072
 8556TIP3   OH225631   2.772   4.974   5.826 -0.0544 -0.2621 -0.7255
 8556TIP3    H125632   2.723   4.893   5.810  1.4770 -1.0052 -1.9359
 8556TIP3    H225633   2.826   4.954   5.903 -0.7236  0.1291 -0.1445
 8557TIP3   OH225634   6.075   4.905   3.459 -0.1489  0.5078 -0.1002
 8557TIP3    H125635   6.072   4.838   3.390  0.0138 -0.3346  0.6891
 8557TIP3    H225636   5.984   4.929   3.474 -0.3015 -0.2984  0.3215
 8558TIP3   OH225637   4.075   4.795   2.744 -0.0269 -0.2367  0.1755
 8558TIP3    H125638   4.115   4.881   2.727 -0.7796  0.1397  0.2914
 8558TIP3    H225639   4.138   4.752   2.803  1.4628 -0.6724 -1.6539
 8559TIP3   OH225640   1.178   1.153   1.951  0.3507 -0.0535  0.1924
 8559TIP3    H125641   1.129   1.085   1.905  1.9542 -1.2008  0.1305
 8559TIP3    H225642   1.245   1.106   2.001  0.3217  1.3473  1.6536
 8560TIP3   OH225643   4.203   5.027   3.006 -0.2001 -0.2098 -0.3618
 8560TIP3    H125644   4.262   5.049   2.934  1.8925 -1.9937  0.6901
 8560TIP3    H225645   4.151   4.954   2.972 -0.2923 -0.0489 -0.5701
 8561TIP3   OH225646   2.127   3.437   4.384  0.6589 -0.2314 -0.3661
 8561TIP3    H125647   2.207   3.404   4.342 -0.3594 -0.9400 -1.8236
 8561TIP3    H225648   2.079   3.480   4.314 -0.3814 -0.0720  0.4282
 8562TIP3   OH225649   1.903   4.664   1.310  0.3800  0.0185  0.0784
 8562TIP3    H125650   1.829   4.634   1.258  0.9652 -0.4647 -0.5005
 8562TIP3    H225651   1.968   4.691   1.246  0.7207  0.3977  0.5772
 8563TIP3   OH225652   5.067   3.289   4.547  0.0495  0.0257  0.1432
 8563TIP3    H125653   5.027   3.343   4.615 -0.3037 -0.1283  0.0598
 8563TIP3    H225654   5.157   3.276   4.576  0.7980  2.4144 -0.8436
 8564TIP3   OH225655   5.761   2.334   5.142  0.6081  0.2107 -0.5954
 8564TIP3    H125656   5.725   2.309   5.057 -0.4100  1.8189 -0.6927
 8564TIP3    H225657   5.776   2.428   5.135  1.7271  0.1506  0.5935
 8565TIP3   OH225658   7.083   2.114   2.678  0.1047  0.3217 -0.6284
 8565TIP3    H125659   7.098   2.173   2.604  1.2845 -0.3637 -0.9730
 8565TIP3    H225660   7.109   2.164   2.755 -0.3978  0.7806 -0.7568
 8566TIP3   OH225661   0.297   5.288   0.114  0.4268 -0.1520  0.0387
 8566TIP3    H125662   0.244   5.353   0.159  2.0663  0.7517  0.7560
 8566TIP3    H225663   0.311   5.324   0.027  2.8268  1.4578  0.9767
 8567TIP3   OH225664   5.711   0.031   1.906 -0.1258  0.1917 -0.0110
 8567TIP3    H125665   5.626   0.064   1.937  0.4364  1.0229  0.7057
 8567TIP3    H225666   5.744  -0.020   1.980  0.3719  0.5854  0.0420
 8568TIP3   OH225667   6.448   3.177   4.709  1.0066  0.1671  0.6022
 8568TIP3    H125668   6.542   3.167   4.695  0.9738 -0.4781  0.8328
 8568TIP3    H225669   6.428   3.119   4.782  0.6068  1.0884  1.2521
 8569TIP3   OH225670   3.790   4.036   1.914  0.2028 -0.2989  0.1487
 8569TIP3    H125671   3.764   3.963   1.969 -0.2770 -0.7580 -0.6643
 8569TIP3    H225672   3.732   4.030   1.838 -0.0708  1.1180  0.2129
 8570TIP3   OH225673   4.376   4.584   3.329  0.0465  0.1675 -0.3028
 8570TIP3    H125674   4.433   4.509   3.344 -0.9846 -0.5025  0.3604
 8570TIP3    H225675   4.325   4.561   3.251 -0.2503  0.1968 -0.1168
 8571TIP3   OH225676   6.495   5.347   1.991 -0.1245  0.5804  0.1222
 8571TIP3    H125677   6.439   5.286   1.942  0.4667 -0.0827  0.2568
 8571TIP3    H225678   6.544   5.291   2.051  0.7477  1.1486 -0.0557
 8572TIP3   OH225679   6.292   6.232   3.476 -0.2546  0.5036  0.1341
 8572TIP3    H125680   6.223   6.295   3.455 -2.9271 -0.6747  4.1142
 8572TIP3    H225681   6.246   6.149   3.490  2.1918 -0.7873  1.3228
 8573TIP3   OH225682   1.351   4.027   0.866 -0.5367 -0.2524 -0.3304
 8573TIP3    H125683   1.279   4.081   0.898 -0.4546  1.4860 -2.7438
 8573TIP3    H225684   1.352   4.043   0.771  1.4520 -2.1752 -0.7130
 8574TIP3   OH225685   1.099   5.291   4.731 -0.1879 -0.1543 -0.0965
 8574TIP3    H125686   1.027   5.253   4.681 -1.1306  1.7325 -0.2895
 8574TIP3    H225687   1.079   5.270   4.822 -2.0203  1.8164  0.0319
 8575TIP3   OH225688   6.522   2.005   1.977 -0.7519 -0.6221 -0.4539
 8575TIP3    H125689   6.438   2.050   1.969 -0.1621  0.7124  0.5742
 8575TIP3    H225690   6.588   2.074   1.966  0.1823 -1.3081  0.6176
 8576TIP3   OH225691   3.679   2.850   3.451 -0.3332 -0.4199 -0.5365
 8576TIP3    H125692   3.663   2.789   3.379 -0.0371  1.7512 -2.5489
 8576TIP3    H225693   3.714   2.795   3.521 -1.5335 -2.7642 -1.6730
 8577TIP3   OH225694   1.126   4.636   3.581  0.4152  0.8081 -0.5193
 8577TIP3    H125695   1.152   4.666   3.494 -0.0330  0.1337 -0.8930
 8577TIP3    H225696   1.046   4.685   3.600  0.7117  1.2212 -0.3321
 8578TIP3   OH225697   0.251   1.502   3.239  0.0144 -0.8085 -0.0596
 8578TIP3    H125698   0.235   1.409   3.257  1.1020 -1.1567 -0.7490
 8578TIP3    H225699   0.307   1.501   3.161  1.7867  0.3275  1.1206
 8579TIP3   OH225700   5.880   3.522   4.270  0.0162 -0.7536  0.2828
 8579TIP3    H125701   5.945   3.552   4.333 -1.0619 -1.6301  1.8675
 8579TIP3    H225702   5.830   3.455   4.316 -0.0328 -2.3539 -1.9151
 8580TIP3   OH225703   3.166   0.458   0.310 -0.1232  0.1708 -0.6757
 8580TIP3    H125704   3.215   0.431   0.388 -1.8959 -0.7574  0.1710
 8580TIP3    H225705   3.098   0.391   0.300 -0.9922  1.1963 -2.0278
 8581TIP3   OH225706   4.528   0.033   1.846 -0.4618 -0.1453 -0.5708
 8581TIP3    H125707   4.447   0.058   1.802 -1.2166  0.8567  1.2609
 8581TIP3    H225708   4.532  -0.062   1.838 -2.4558 -0.3560  0.2604
 8582TIP3   OH225709   6.363   6.407   0.227  0.3744 -0.1421 -0.2558
 8582TIP3    H125710   6.445   6.395   0.276 -0.1074  0.7148  0.7908
 8582TIP3    H225711   6.314   6.327   0.243  1.7832 -1.6068 -2.5575
 8583TIP3   OH225712   1.339   5.844   3.148 -0.2889  0.0101 -0.7411
 8583TIP3    H125713   1.377   5.899   3.216  0.2967  0.4249 -1.3893
 8583TIP3    H225714   1.414   5.818   3.094 -0.6920 -0.6327 -1.0024
 8584TIP3   OH225715   5.725   3.858   4.812  0.3148 -0.3472 -0.0501
 8584TIP3    H125716   5.651   3.819   4.858  0.5540  0.8364  1.4079
 8584TIP3    H225717   5.700   3.854   4.719 -2.0264  0.9203  0.4533
 8585TIP3   OH225718   2.310   4.007   3.721  0.1551  0.5795 -0.1251
 8585TIP3    H125719   2.366   4.005   3.644  0.0257  0.1585 -0.2082
 8585TIP3    H225720   2.371   4.024   3.794  0.4285 -0.0920 -0.1851
 8586TIP3   OH225721   0.821   3.755   4.674  0.6739 -0.2530 -0.2419
 8586TIP3    H125722   0.830   3.664   4.645 -0.9920 -0.3549 -0.5608
 8586TIP3    H225723   0.830   3.750   4.769  1.6650 -0.5799 -0.3421
 8587TIP3   OH225724   2.157   1.365   3.865 -0.4257  0.0340 -0.6996
 8587TIP3    H125725   2.188   1.309   3.794 -0.1291 -2.9300  1.5471
 8587TIP3    H225726   2.072   1.327   3.890 -0.9071  1.4930  0.0371
 8588TIP3   OH225727   2.479   1.471   0.893  0.6519 -0.0686 -0.4731
 8588TIP3    H125728   2.401   1.418   0.878  0.6403  0.0456 -0.8253
 8588TIP3    H225729   2.551   1.408   0.896  0.4553 -0.2533  0.6450
 8589TIP3   OH225730   4.226   2.899   0.867  0.2393  0.6392 -0.3737
 8589TIP3    H125731   4.186   2.851   0.940 -1.3449  1.7001 -0.4892
 8589TIP3    H225732   4.268   2.975   0.908 -0.6487  1.2340 -0.5405
 8590TIP3   OH225733   1.816   6.136   1.342  0.0660  0.0554 -0.3134
 8590TIP3    H125734   1.904   6.114   1.373  0.0336 -1.0737 -0.9898
 8590TIP3    H225735   1.830   6.174   1.255 -0.0929  0.2530 -0.2539
 8591TIP3   OH225736   2.269   4.365   3.780 -0.2388  0.2339 -1.1842
 8591TIP3    H125737   2.185   4.410   3.794 -1.2940 -1.8411 -0.5711
 8591TIP3    H225738   2.260   4.326   3.693  0.5285  0.8406 -1.5511
 8592TIP3   OH225739   1.866   3.593   0.282  0.0835 -0.2298  0.1691
 8592TIP3    H125740   1.854   3.688   0.282 -0.7486 -0.2744 -1.7890
 8592TIP3    H225741   1.907   3.575   0.197  1.1974 -1.5270  0.9664
 8593TIP3   OH225742   2.201   0.498   2.799 -0.7785  0.3034  0.2573
 8593TIP3    H125743   2.258   0.575   2.795  1.9327 -1.5861 -0.3066
 8593TIP3    H225744   2.137   0.519   2.867  0.9040  2.3844  1.3238
 8594TIP3   OH225745   4.778   0.228   4.082  0.4078  0.5065 -0.3680
 8594TIP3    H125746   4.722   0.189   4.015  0.3356 -2.3888  1.1851
 8594TIP3    H225747   4.867   0.212   4.050  0.3711 -0.6361  0.0566
 8595TIP3   OH225748   1.286   0.854   0.868  0.3717  0.4140  0.8644
 8595TIP3    H125749   1.371   0.814   0.848  0.5987  1.5822 -0.7420
 8595TIP3    H225750   1.291   0.941   0.828 -2.3511 -0.2472 -1.1777
 8596TIP3   OH225751   6.439   5.134   2.630  0.8449 -0.3538  0.0873
 8596TIP3    H125752   6.449   5.045   2.665 -0.7110 -0.5963  0.0232
 8596TIP3    H225753   6.527   5.160   2.604  1.5233 -1.4212  1.1855
 8597TIP3   OH225754   1.509   4.692   5.564 -0.1554  0.3038 -0.1204
 8597TIP3    H125755   1.579   4.672   5.626 -0.2520  0.4279  0.0319
 8597TIP3    H225756   1.522   4.785   5.542 -1.2289  0.8011  1.1753
 8598TIP3   OH225757   1.960   0.442   4.508 -1.1337  0.0987  0.1212
 8598TIP3    H125758   1.973   0.438   4.413  0.7514 -0.0803  0.3391
 8598TIP3    H225759   1.981   0.533   4.531 -1.6364  0.1560  0.3710
 8599TIP3   OH225760   7.007   2.893   2.779  0.4451  0.3208  0.7311
 8599TIP3    H125761   7.016   2.862   2.688 -1.8462  2.9280 -0.5343
 8599TIP3    H225762   7.070   2.965   2.785 -0.6571  1.3233  0.5716
 8600TIP3   OH225763   7.215   4.528   3.617  0.6473 -0.2681  0.3088
 8600TIP3    H125764   7.244   4.611   3.656  0.1095  0.1301 -0.1291
 8600TIP3    H225765   7.129   4.548   3.580  0.3545 -1.1180  0.5194
 8601TIP3   OH225766   0.892   2.209   5.297  0.5724  0.7406 -0.1186
 8601TIP3    H125767   0.871   2.247   5.383 -1.6703  3.4466 -1.7070
 8601TIP3    H225768   0.966   2.261   5.266  0.1102  1.1178 -0.6056
 8602TIP3   OH225769   2.952   3.330   3.744  0.0626  0.1817 -0.4487
 8602TIP3    H125770   2.896   3.405   3.765  0.3611 -0.3044  2.5273
 8602TIP3    H225771   2.984   3.300   3.829  3.0173 -0.9943 -1.8574
 8603TIP3   OH225772   6.370   1.322   3.450  0.0155 -0.2331  0.2872
 8603TIP3    H125773   6.426   1.342   3.375 -0.9603 -0.2797 -0.4753
 8603TIP3    H225774   6.318   1.246   3.422 -0.3311 -0.2780  1.0228
 8604TIP3   OH225775   0.484   1.604   5.243  0.5775  0.4828 -0.2081
 8604TIP3    H125776   0.511   1.689   5.210  0.0245  0.6141 -0.3402
 8604TIP3    H225777   0.547   1.542   5.206 -0.2880  0.5622 -1.9187
 8605TIP3   OH225778   0.942   0.209   2.198  0.0429 -0.0601 -0.0966
 8605TIP3    H125779   0.945   0.289   2.145  0.1038 -0.2038 -0.3093
 8605TIP3    H225780   1.006   0.151   2.157  0.8835  0.2291  0.7920
 8606TIP3   OH225781   6.822   1.508   3.669  0.1691  1.0211 -0.2946
 8606TIP3    H125782   6.783   1.494   3.583 -0.7537  1.2430  0.0761
 8606TIP3    H225783   6.896   1.446   3.672 -0.6468 -0.0043 -0.7026
 8607TIP3   OH225784   5.533   3.313   4.846 -0.0749 -0.5194  0.0967
 8607TIP3    H125785   5.582   3.344   4.922  1.3229  0.5546 -1.1781
 8607TIP3    H225786   5.601   3.287   4.783 -1.1409  0.0888 -1.3638
 8608TIP3   OH225787   2.143   4.539   5.164 -0.1588  0.1499  0.0192
 8608TIP3    H125788   2.110   4.501   5.245 -0.9018 -0.5095 -0.5786
 8608TIP3    H225789   2.238   4.537   5.174 -0.2364  2.0767  1.7745
 8609TIP3   OH225790   3.764   1.165   4.862  0.5285  0.3115  0.5237
 8609TIP3    H125791   3.787   1.146   4.953 -0.6821  2.0620  1.2656
 8609TIP3    H225792   3.842   1.209   4.826  0.5283  0.8416  1.1542
 8610TIP3   OH225793   3.783   4.541   2.699 -0.2898 -0.1131  0.1553
 8610TIP3    H125794   3.858   4.587   2.661  0.0820 -1.2098 -0.4780
 8610TIP3    H225795   3.818   4.456   2.726 -1.2833 -0.5994 -0.0396
 8611TIP3   OH225796   5.543   1.788   4.014  0.8969  0.4107 -0.3557
 8611TIP3    H125797   5.556   1.880   4.035  1.8509  0.0547  0.7230
 8611TIP3    H225798   5.513   1.748   4.096 -1.8222  0.1506 -1.3841
 8612TIP3   OH225799   2.097   4.415   5.409  0.4762  0.4271 -0.1985
 8612TIP3    H125800   2.115   4.480   5.477  0.3911 -0.1663  0.4012
 8612TIP3    H225801   2.066   4.338   5.457  1.4371 -0.3722 -0.8261
 8613TIP3   OH225802   6.146   4.201   5.697  0.2603  0.1956  0.1026
 8613TIP3    H125803   6.177   4.248   5.620 -0.3623  0.6397  0.1144
 8613TIP3    H225804   6.143   4.110   5.670 -2.8039  0.6378 -1.4291
 8614TIP3   OH225805   7.051   6.017   2.771  0.3539 -0.1111 -0.0298
 8614TIP3    H125806   7.057   5.978   2.858  0.7319 -1.9867 -0.8409
 8614TIP3    H225807   7.062   5.943   2.711  0.7375  1.2168 -1.6743
 8615TIP3   OH225808   0.606   3.208   4.226  0.2643 -0.0221  0.5934
 8615TIP3    H125809   0.685   3.174   4.266  0.4641 -0.1649  0.0854
 8615TIP3    H225810   0.555   3.245   4.299  1.1044  0.6971  0.8294
 8616TIP3   OH225811   4.308   6.389   5.470  0.5880 -0.0976 -0.2337
 8616TIP3    H125812   4.344   6.472   5.440  1.2175 -0.1478  0.3595
 8616TIP3    H225813   4.214   6.405   5.479  0.6005  0.3242 -0.8524
 8617TIP3   OH225814   3.178   2.906   4.894 -0.1483 -0.3866  0.7651
 8617TIP3    H125815   3.090   2.896   4.857  0.4162 -2.4600 -0.1780
 8617TIP3    H225816   3.221   2.971   4.838 -1.4078  1.5626  1.9631
 8618TIP3   OH225817   1.073   4.530   2.385 -0.3338 -0.2309 -0.4960
 8618TIP3    H125818   1.012   4.589   2.428 -0.4768 -0.4740 -0.3592
 8618TIP3    H225819   1.040   4.442   2.406  0.4478 -0.3863  0.1626
 8619TIP3   OH225820   6.835   2.575   4.072  0.4517  0.5376 -0.1919
 8619TIP3    H125821   6.774   2.505   4.049 -0.4796  0.7740  1.3999
 8619TIP3    H225822   6.921   2.541   4.044 -0.2266 -0.3591 -1.2730
 8620TIP3   OH225823   4.064   5.027   5.765 -0.2133  0.3087 -0.3042
 8620TIP3    H125824   4.024   5.089   5.825 -0.3378 -1.0489  1.0764
 8620TIP3    H225825   4.136   5.076   5.724 -1.2573  1.7993 -0.4493
 8621TIP3   OH225826   0.076   1.402   3.807 -0.1484 -0.4897 -0.6556
 8621TIP3    H125827   0.067   1.495   3.827  0.6059 -0.2038 -1.5767
 8621TIP3    H225828   0.124   1.366   3.882  0.4567  0.0698 -0.7631
 8622TIP3   OH225829   2.974   4.894   0.845 -0.2710 -0.1539  0.0803
 8622TIP3    H125830   3.024   4.913   0.925  1.5427 -0.5980 -0.9006
 8622TIP3    H225831   2.938   4.806   0.860 -1.8570  0.6346  1.2807
 8623TIP3   OH225832   4.759   4.190   0.371  0.6884 -0.1090 -0.0075
 8623TIP3    H125833   4.672   4.206   0.334  0.9856  1.0231 -0.2620
 8623TIP3    H225834   4.807   4.145   0.301  0.5098 -0.1535 -0.1017
 8624TIP3   OH225835   1.672   0.464   1.001  0.0250 -0.6687 -0.0412
 8624TIP3    H125836   1.679   0.505   1.087 -0.7869 -2.0180  0.7050
 8624TIP3    H225837   1.747   0.405   0.996 -0.6330 -1.5541  0.3023
 8625TIP3   OH225838   6.137   1.642   4.979 -0.2936  0.1103  0.2942
 8625TIP3    H125839   6.068   1.630   4.914  1.0561 -1.0832 -0.9937
 8625TIP3    H225840   6.124   1.571   5.042 -1.5089  1.1763  1.2909
 8626TIP3   OH225841   1.964   2.447   1.331 -0.2813  0.4096 -0.0023
 8626TIP3    H125842   1.966   2.353   1.353  1.5720  0.3185 -0.3492
 8626TIP3    H225843   1.877   2.461   1.294 -1.1277 -0.8487  1.4044
 8627TIP3   OH225844   4.166   0.025   0.146 -0.5187  0.0512 -0.0110
 8627TIP3    H125845   4.130   0.026   0.057 -1.3746 -0.4854  0.3170
 8627TIP3    H225846   4.090   0.012   0.203  0.1833 -1.1154  0.7053
 8628TIP3   OH225847   3.191   4.380   2.055  0.0387  0.1299 -0.0161
 8628TIP3    H125848   3.196   4.337   1.970  0.2724  0.8636 -0.3842
 8628TIP3    H225849   3.270   4.434   2.060 -0.8398  1.4927 -0.1251
 8629TIP3   OH225850   3.123   3.378   1.467  0.2802 -0.0648  0.1876
 8629TIP3    H125851   3.042   3.331   1.448  0.6388 -1.2717  1.4931
 8629TIP3    H225852   3.122   3.390   1.562  2.2950 -1.4210  0.4441
 8630TIP3   OH225853   6.410   2.983   1.540 -0.0564  0.8266  0.5238
 8630TIP3    H125854   6.476   2.935   1.490  0.5480  0.4183  1.6645
 8630TIP3    H225855   6.405   3.069   1.497 -0.7018 -0.0163 -1.1668
 8631TIP3   OH225856   6.734   1.801   0.129 -0.3997 -0.2750 -0.1503
 8631TIP3    H125857   6.684   1.852   0.193 -0.2442 -1.0091  0.5891
 8631TIP3    H225858   6.716   1.842   0.045 -0.9114  0.4903  0.3234
 8632TIP3   OH225859   5.495   4.065   3.019 -0.0632 -0.2337 -0.1360
 8632TIP3    H125860   5.513   4.126   3.090  1.5100  1.0461 -1.5467
 8632TIP3    H225861   5.575   4.013   3.010  0.1313  0.2378 -1.4878
 8633TIP3   OH225862   2.650   1.214   2.146 -0.2065 -0.3642  0.2874
 8633TIP3    H125863   2.617   1.180   2.063 -0.9074  1.2011 -0.1142
 8633TIP3    H225864   2.704   1.290   2.121 -0.8379  0.4312  1.2738
 8634TIP3   OH225865   0.351   0.415   1.736 -0.1384  0.4970 -0.3302
 8634TIP3    H125866   0.366   0.466   1.657  0.0644 -1.0245 -1.3116
 8634TIP3    H225867   0.395   0.332   1.720 -2.4829 -0.9580  0.1601
 8635TIP3   OH225868   2.058   3.312   4.863 -0.5589 -0.2186 -0.6575
 8635TIP3    H125869   2.152   3.325   4.876 -0.5215 -1.1958  0.2421
 8635TIP3    H225870   2.023   3.399   4.850  0.0707  0.5254  1.9169
 8636TIP3   OH225871   4.454   0.213   3.221  0.4809 -0.4758  0.3084
 8636TIP3    H125872   4.428   0.302   3.197  1.2507 -0.1922  0.5120
 8636TIP3    H225873   4.530   0.225   3.278  0.2266 -1.2407  0.8161
 8637TIP3   OH225874   6.282   2.171   2.357 -0.0334 -0.1808  0.8885
 8637TIP3    H125875   6.377   2.169   2.364 -0.0294  0.8118  1.2236
 8637TIP3    H225876   6.251   2.160   2.447 -0.2553 -1.2152  0.6943
 8638TIP3   OH225877   0.369   1.081   5.274 -0.1487 -0.3880  0.1132
 8638TIP3    H125878   0.398   1.150   5.334  0.4145  0.1899 -0.7913
 8638TIP3    H225879   0.441   1.073   5.211 -0.4767 -1.3840 -0.1528
 8639TIP3   OH225880   6.034   5.544   4.214 -0.0385  0.2400  0.3728
 8639TIP3    H125881   6.112   5.524   4.162  1.1676  1.9321  1.4308
 8639TIP3    H225882   6.008   5.460   4.252  1.8251 -0.2198  0.7189
 8640TIP3   OH225883   2.388   4.668   2.402 -0.1226 -0.3325  0.0202
 8640TIP3    H125884   2.443   4.703   2.332 -1.4203  1.8326 -0.0202
 8640TIP3    H225885   2.447   4.659   2.477  0.6673  0.1880 -0.5200
 8641TIP3   OH225886   4.777   1.940   4.419 -0.0963 -0.1717 -0.5066
 8641TIP3    H125887   4.747   2.030   4.413  0.3479  0.0189  0.1297
 8641TIP3    H225888   4.696   1.888   4.414 -0.4004  0.2751 -0.3455
 8642TIP3   OH225889   5.327   2.597   0.493 -0.0750  0.0138  0.2805
 8642TIP3    H125890   5.305   2.624   0.405  1.5279  0.1133 -0.1311
 8642TIP3    H225891   5.330   2.501   0.490  1.2334  0.0476 -0.1365
 8643TIP3   OH225892   0.233   4.400   3.475 -0.1851 -0.7433  0.4652
 8643TIP3    H125893   0.172   4.358   3.414 -2.6948  2.3776  0.5736
 8643TIP3    H225894   0.179   4.459   3.527  2.8520  1.7794  1.0636
 8644TIP3   OH225895   0.698   2.526   3.548 -0.4571  0.2112 -1.0158
 8644TIP3    H125896   0.774   2.562   3.500 -0.0155  1.5083  0.5612
 8644TIP3    H225897   0.712   2.432   3.547  1.1924  0.4119 -0.7916
 8645TIP3   OH225898   4.111   5.410   5.580  0.0443  0.0708  0.8378
 8645TIP3    H125899   4.187   5.460   5.611  2.1013 -1.7544 -0.9797
 8645TIP3    H225900   4.090   5.448   5.495 -0.4686 -0.0981  0.8813
 8646TIP3   OH225901   6.515   5.229   0.353 -0.5079  0.0744  0.4972
 8646TIP3    H125902   6.550   5.165   0.416 -0.4799 -0.8805 -0.4667
 8646TIP3    H225903   6.442   5.271   0.399  0.3100  0.3159  1.6267
 8647TIP3   OH225904  -0.036   4.380   0.384 -0.4509  0.2989 -0.4959
 8647TIP3    H125905   0.034   4.392   0.448 -0.2049  0.4235 -0.7810
 8647TIP3    H225906   0.011   4.362   0.302 -0.7522  0.5958 -0.7309
 8648TIP3   OH225907   4.185   0.467   0.860 -0.1940  0.0015 -0.4931
 8648TIP3    H125908   4.105   0.519   0.870 -1.3893 -2.0367  1.1131
 8648TIP3    H225909   4.188   0.445   0.767 -1.7653 -0.2968 -0.4881
 8649TIP3   OH225910   7.115   0.549   3.217  0.0806 -0.3394 -0.4844
 8649TIP3    H125911   7.203   0.544   3.255  0.2848  2.9490 -0.2740
 8649TIP3    H225912   7.056   0.529   3.289  0.5900 -1.2448 -0.2969
 8650TIP3   OH225913   3.907   0.885   0.315  0.1435  0.0035 -0.7846
 8650TIP3    H125914   3.952   0.820   0.369  0.2415 -0.5825 -1.5618
 8650TIP3    H225915   3.818   0.886   0.350  0.6442  0.9412  0.5497
 8651TIP3   OH225916   3.161   3.515   1.108  0.3296 -0.2739 -0.5079
 8651TIP3    H125917   3.199   3.577   1.170  1.3796  0.5844 -1.9455
 8651TIP3    H225918   3.224   3.443   1.105  0.9590  0.2966 -1.5220
 8652TIP3   OH225919   4.669   0.659   1.649  0.0762 -0.6871 -0.4790
 8652TIP3    H125920   4.679   0.594   1.578 -0.7205 -0.3013 -0.9602
 8652TIP3    H225921   4.585   0.638   1.689  0.1043 -0.3342 -0.2313
 8653TIP3   OH225922   2.387   2.645   5.714  0.4691 -0.6536 -0.5821
 8653TIP3    H125923   2.361   2.555   5.737 -0.5629 -0.4688 -0.9912
 8653TIP3    H225924   2.336   2.700   5.773  2.0645 -0.3409  0.5902
 8654TIP3   OH225925   0.168   2.941   1.450 -0.0195  0.7053  0.3202
 8654TIP3    H125926   0.220   3.008   1.496 -0.9473  2.3448 -0.9074
 8654TIP3    H225927   0.100   2.916   1.514  0.8543  0.2683  1.1004
 8655TIP3   OH225928   3.064   3.299   5.269 -0.1291  0.4925 -0.2276
 8655TIP3    H125929   3.052   3.267   5.359 -0.8701  1.4235  0.0154
 8655TIP3    H225930   3.159   3.311   5.260  0.0663 -0.6713  0.0404
 8656TIP3   OH225931   5.322   0.525   2.630  0.0755  0.0309 -0.0075
 8656TIP3    H125932   5.294   0.615   2.611  0.8666  0.3727  0.4007
 8656TIP3    H225933   5.406   0.535   2.674  0.3278 -0.9317 -0.2494
 8657TIP3   OH225934   0.658   4.507   4.540 -0.0061  0.2619 -0.2243
 8657TIP3    H125935   0.701   4.486   4.623 -0.6087 -0.0926 -0.0011
 8657TIP3    H225936   0.595   4.436   4.527  0.7154 -0.1769 -1.4366
 8658TIP3   OH225937   3.703   5.283   4.831 -0.9754  0.4784 -0.2581
 8658TIP3    H125938   3.622   5.257   4.875 -2.4286  0.4606 -2.7598
 8658TIP3    H225939   3.750   5.201   4.818 -1.7546  0.1341 -0.9980
 8659TIP3   OH225940   1.109   4.599   0.438 -0.1370 -0.9908  0.0595
 8659TIP3    H125941   1.185   4.654   0.459 -0.8305  0.0605 -0.0950
 8659TIP3    H225942   1.037   4.639   0.486 -0.4417 -2.5022  0.9118
 8660TIP3   OH225943   4.718   1.812   5.872 -0.0586 -0.1448 -0.1586
 8660TIP3    H125944   4.676   1.755   5.937  0.6411 -1.6316 -0.9857
 8660TIP3    H225945   4.645   1.855   5.828 -0.6931 -1.6312 -0.6167
 8661TIP3   OH225946   4.072   6.304   2.392 -0.2251  0.6915 -0.0020
 8661TIP3    H125947   3.983   6.319   2.425  0.0440 -0.6548  1.4520
 8661TIP3    H225948   4.070   6.216   2.356  1.0003 -0.1891  1.9351
 8662TIP3   OH225949   3.432   5.823   2.213  0.1895 -0.3106  0.0368
 8662TIP3    H125950   3.472   5.753   2.161  1.2822  0.7596 -0.6274
 8662TIP3    H225951   3.388   5.777   2.285  2.0487 -1.6380  0.4287
 8663TIP3   OH225952   7.116   5.160   4.292 -0.1564  0.1294 -0.1229
 8663TIP3    H125953   7.060   5.222   4.245 -1.3597 -0.8242  0.0072
 8663TIP3    H225954   7.188   5.142   4.231 -1.3769 -0.6268 -1.3990
 8664TIP3   OH225955   6.070   4.946   4.595  0.2966 -0.1262  0.2060
 8664TIP3    H125956   6.049   4.968   4.686  1.7252 -0.5141  0.6538
 8664TIP3    H225957   5.988   4.959   4.548 -1.4633 -3.1745  2.0978
 8665TIP3   OH225958   3.323   6.710   5.002  0.2076  0.2666 -0.1416
 8665TIP3    H125959   3.240   6.663   5.011  0.5435 -0.2194  0.5285
 8665TIP3    H225960   3.328   6.731   4.908 -0.6359  0.2493 -0.1998
 8666TIP3   OH225961   4.401   6.483   3.981  0.1085  0.1727 -0.1919
 8666TIP3    H125962   4.335   6.530   4.033  0.5449  1.3632 -0.6914
 8666TIP3    H225963   4.445   6.551   3.931  1.9673 -0.5517  0.3790
 8667TIP3   OH225964   2.939   3.380   5.537  0.3088 -0.1499 -0.1318
 8667TIP3    H125965   2.864   3.328   5.568  0.5453 -1.1814 -1.2224
 8667TIP3    H225966   2.908   3.470   5.541 -1.1152 -0.5715 -0.8379
 8668TIP3   OH225967   2.681   3.176   0.130  0.2148 -0.0808  0.0509
 8668TIP3    H125968   2.680   3.221   0.215 -2.1494  0.2395 -0.0761
 8668TIP3    H225969   2.669   3.246   0.066 -1.8217 -0.6412 -0.2530
 8669TIP3   OH225970   3.142   5.390   4.377 -0.3609 -0.2521  0.2329
 8669TIP3    H125971   3.093   5.426   4.451 -4.2229  2.9453 -3.3693
 8669TIP3    H225972   3.104   5.303   4.363  0.4168 -0.8913  1.8821
 8670TIP3   OH225973   2.400   1.614   5.150 -0.3217 -0.3047 -0.3880
 8670TIP3    H125974   2.451   1.664   5.214 -1.3788 -0.2429  0.4496
 8670TIP3    H225975   2.454   1.537   5.131  0.6199  0.3712 -0.4880
 8671TIP3   OH225976   6.975   1.792   1.143  0.2458  0.0031  0.0701
 8671TIP3    H125977   7.057   1.818   1.102  0.4591  0.3837  0.7261
 8671TIP3    H225978   6.992   1.797   1.237 -0.1436 -1.1396  0.2194
 8672TIP3   OH225979   0.753   2.503   4.574  0.9316  0.0159  0.3377
 8672TIP3    H125980   0.721   2.528   4.487  1.8876 -1.5539 -0.5121
 8672TIP3    H225981   0.821   2.438   4.557  0.3819 -1.1614  2.2945
 8673TIP3   OH225982   5.566   4.780   5.227  0.2973  0.4425  0.0339
 8673TIP3    H125983   5.565   4.690   5.261  0.2473  0.2282 -0.5245
 8673TIP3    H225984   5.647   4.785   5.175  0.1236  0.6139 -0.2206
 8674TIP3   OH225985   5.117   4.185   4.615 -0.0302  0.5390 -0.0409
 8674TIP3    H125986   5.200   4.229   4.633  0.6647  0.7016 -3.0492
 8674TIP3    H225987   5.125   4.100   4.657  1.1018  1.0362  0.8167
 8675TIP3   OH225988   4.390   5.490   1.956 -0.1588 -0.4172 -0.3776
 8675TIP3    H125989   4.329   5.526   1.892 -0.7643 -0.8032 -0.0296
 8675TIP3    H225990   4.477   5.515   1.924 -0.5580  1.5076 -0.0580
 8676TIP3   OH225991   3.425   0.141   5.632 -0.6961 -0.4433  0.0943
 8676TIP3    H125992   3.500   0.199   5.636 -0.7615 -0.4208  1.2123
 8676TIP3    H225993   3.349   0.199   5.628 -0.7267 -0.4604  0.4537
 8677TIP3   OH225994   0.285   0.397   5.590  0.2149 -0.5008 -0.3037
 8677TIP3    H125995   0.193   0.382   5.567 -0.3742  0.6556  1.1443
 8677TIP3    H225996   0.322   0.443   5.515 -1.4847  2.6219  0.6110
 8678TIP3   OH225997   6.350   3.650   2.889 -0.3749 -0.2800  0.3133
 8678TIP3    H125998   6.389   3.734   2.862 -0.4523  0.0328  1.1247
 8678TIP3    H225999   6.381   3.587   2.824  2.8340 -0.3636  1.7300
 8679TIP3   OH226000   0.473   6.620   2.275 -0.4070 -0.3656  0.3779
 8679TIP3    H126001   0.503   6.689   2.335  1.3836 -0.7267 -0.0429
 8679TIP3    H226002   0.504   6.648   2.189 -1.1682 -0.8632 -0.0708
 8680TIP3   OH226003   1.030   2.502   5.020  0.1379 -0.2990  0.3056
 8680TIP3    H126004   1.033   2.406   5.019  0.1638 -0.3508  2.2565
 8680TIP3    H226005   1.012   2.526   4.929 -0.5581 -2.1753 -0.0936
 8681TIP3   OH226006   4.412   6.174   5.298  0.2740  0.7233 -0.3413
 8681TIP3    H126007   4.383   6.259   5.332 -0.9944  0.4947 -0.8297
 8681TIP3    H226008   4.381   6.171   5.208  1.8990  0.4818 -0.9299
 8682TIP3   OH226009   3.374   1.646   5.206 -0.4066 -0.0340  0.3504
 8682TIP3    H126010   3.325   1.709   5.260 -0.1706 -0.1080  0.6569
 8682TIP3    H226011   3.414   1.700   5.138 -0.5455  0.0898  0.3651
 8683TIP3   OH226012   4.478   6.635   3.262 -0.4517  0.2669 -0.1221
 8683TIP3    H126013   4.442   6.694   3.196 -0.2607  0.5272  0.0025
 8683TIP3    H226014   4.402   6.587   3.295 -0.7389  1.0521  0.3835
 8684TIP3   OH226015   2.436   2.112   4.819  0.1311  0.6100  0.9482
 8684TIP3    H126016   2.373   2.156   4.876 -3.5730 -1.1077 -1.4215
 8684TIP3    H226017   2.474   2.044   4.874 -1.0593  0.8793  2.1734
 8685TIP3   OH226018   5.170   5.394   5.459  0.0271  0.0227 -0.6569
 8685TIP3    H126019   5.239   5.341   5.499  0.3119 -0.0967 -1.2916
 8685TIP3    H226020   5.123   5.334   5.402 -0.0520  0.3051 -0.8951
 8686TIP3   OH226021   3.296   3.534   1.922  0.1390 -0.2694 -0.2353
 8686TIP3    H126022   3.379   3.563   1.885  0.4665 -1.3615 -0.3722
 8686TIP3    H226023   3.249   3.494   1.849  0.6105 -2.0542  0.3984
 8687TIP3   OH226024   5.064   4.276   5.242 -0.1656  0.5217 -0.2838
 8687TIP3    H126025   5.116   4.237   5.312  1.6040  2.1861 -0.6058
 8687TIP3    H226026   5.107   4.248   5.162  0.0538  1.6466 -0.5700
 8688TIP3   OH226027   6.047   2.141   5.493 -0.4154 -0.2962 -0.0507
 8688TIP3    H126028   6.040   2.102   5.580  0.6315  1.7334  1.0183
 8688TIP3    H226029   6.140   2.162   5.484 -0.2373 -1.6350 -2.2525
 8689TIP3   OH226030   4.623   5.987   5.299 -0.0906  0.2868  0.1827
 8689TIP3    H126031   4.549   6.047   5.302 -1.0624 -0.8944  2.0990
 8689TIP3    H226032   4.701   6.043   5.303 -0.8263  1.5432 -1.7694
 8690TIP3   OH226033   1.459   1.639   2.543 -0.1087 -0.2193 -0.2726
 8690TIP3    H126034   1.543   1.631   2.587 -0.5381  1.9815  1.1413
 8690TIP3    H226035   1.466   1.583   2.466  3.3444  1.2633 -1.2327
 8691TIP3   OH226036   0.484   3.050   2.287  0.5872 -0.4027 -0.2139
 8691TIP3    H126037   0.451   2.972   2.331 -0.3807  0.2069  0.1833
 8691TIP3    H226038   0.519   3.018   2.204 -1.2441 -1.0891 -0.7850
 8692TIP3   OH226039   2.997   3.457   4.326  0.3495  0.3742  0.0839
 8692TIP3    H126040   2.960   3.535   4.366 -1.3573 -0.6275  0.6067
 8692TIP3    H226041   3.069   3.488   4.273  0.8113  2.0941  1.6260
 8693TIP3   OH226042   3.735   5.171   1.153  0.1920  0.2285  0.3695
 8693TIP3    H126043   3.655   5.191   1.202 -0.0887 -2.2455  1.0279
 8693TIP3    H226044   3.793   5.130   1.217  1.5532  0.9183 -0.3861
 8694TIP3   OH226045   2.379   4.381   3.256 -0.3758 -0.2146  0.0664
 8694TIP3    H126046   2.461   4.410   3.298 -0.9156  1.1399  0.2376
 8694TIP3    H226047   2.329   4.462   3.243 -1.7719 -1.0321  0.1370
 8695TIP3   OH226048   5.393   0.739   4.922  0.0699  0.3045 -0.9944
 8695TIP3    H126049   5.343   0.695   4.991  0.4324 -0.5639 -1.2760
 8695TIP3    H226050   5.326   0.772   4.862 -0.2006 -0.1829 -0.9667
 8696TIP3   OH226051   5.496   4.239   0.945 -0.6240  0.4737 -0.1422
 8696TIP3    H126052   5.551   4.179   0.995  1.1179  0.8953 -1.4532
 8696TIP3    H226053   5.504   4.323   0.991 -3.1011 -0.2089  1.7210
 8697TIP3   OH226054   5.049   4.587   1.706  0.1798  0.0742  0.2918
 8697TIP3    H126055   4.994   4.567   1.782 -0.8618  1.3356 -0.0961
 8697TIP3    H226056   5.135   4.551   1.729 -0.2516 -0.0732  1.8158
 8698TIP3   OH226057   3.254   1.678   4.542 -0.1262 -0.2768 -0.4736
 8698TIP3    H126058   3.186   1.744   4.554  1.2848  1.1273  0.0948
 8698TIP3    H226059   3.269   1.675   4.447  0.0593  0.4897 -0.4698
 8699TIP3   OH226060   5.621   0.550   4.997 -0.0942 -0.0845  0.1428
 8699TIP3    H126061   5.575   0.586   4.921  1.2051 -1.1785 -1.2251
 8699TIP3    H226062   5.714   0.560   4.976  0.3359  0.5887  2.1161
 8700TIP3   OH226063   7.005   0.166   2.576 -0.0081  0.6937  0.2322
 8700TIP3    H126064   7.051   0.184   2.494 -1.8745  0.9766 -0.7918
 8700TIP3    H226065   6.935   0.231   2.579 -1.6063 -0.9943  0.7198
 8701TIP3   OH226066   3.621   0.655   1.257 -0.0321  0.4037  0.0085
 8701TIP3    H126067   3.580   0.677   1.173 -0.0338 -0.3178 -0.1828
 8701TIP3    H226068   3.553   0.609   1.306  0.5573 -0.9051 -0.3565
 8702TIP3   OH226069   6.420   0.469   1.159  0.3534 -0.3999 -0.1496
 8702TIP3    H126070   6.374   0.419   1.226 -0.2232 -1.0062 -0.9661
 8702TIP3    H226071   6.438   0.404   1.090 -0.3191  0.4839 -1.1914
 8703TIP3   OH226072   1.533   0.038   5.672  0.1020  0.3519 -0.2851
 8703TIP3    H126073   1.544  -0.043   5.722  0.3524  0.6162  0.0888
 8703TIP3    H226074   1.497   0.101   5.735  0.3056  0.6533 -0.4676
 8704TIP3   OH226075   1.397   0.080   2.349 -0.3381 -0.6899  0.0200
 8704TIP3    H126076   1.318   0.078   2.402 -1.7937 -1.2428 -2.0570
 8704TIP3    H226077   1.469   0.068   2.412 -1.9669 -1.7155  1.7783
 8705TIP3   OH226078   5.649   4.699   4.421  0.2695  0.2557 -0.1395
 8705TIP3    H126079   5.700   4.734   4.348  1.4624 -1.8936 -0.4166
 8705TIP3    H226080   5.688   4.614   4.439 -0.9167  0.1083  2.0954
 8706TIP3   OH226081   0.125   0.836   1.685 -0.1905 -0.2474 -0.4214
 8706TIP3    H126082   0.204   0.831   1.632  0.1468 -1.2627  0.1415
 8706TIP3    H226083   0.088   0.748   1.681  0.2456 -0.5688  1.5937
 8707TIP3   OH226084   5.853   1.373   4.998  0.8718 -0.2651  0.0848
 8707TIP3    H126085   5.865   1.422   4.917  0.4652 -0.6406 -0.2074
 8707TIP3    H226086   5.871   1.436   5.067 -1.1769  0.7631 -0.2466
 8708TIP3   OH226087   6.035   2.675   1.396  0.4139  0.2099  0.0592
 8708TIP3    H126088   6.004   2.757   1.358 -0.5812  1.3267  2.9765
 8708TIP3    H226089   6.108   2.701   1.453 -0.1818 -0.8360  1.3483
 8709TIP3   OH226090   2.798   3.230   3.124  0.5370 -0.4310  0.0261
 8709TIP3    H126091   2.843   3.149   3.148 -2.0631 -2.0326 -0.1263
 8709TIP3    H226092   2.777   3.219   3.031  0.3398  0.5222 -0.0557
 8710TIP3   OH226093   6.056   4.525   4.070 -0.4474  0.0456  0.5636
 8710TIP3    H126094   6.081   4.507   3.980 -0.2977  0.0904  0.5961
 8710TIP3    H226095   6.074   4.618   4.082  0.0388 -0.0759  0.8015
 8711TIP3   OH226096   6.127   1.011   2.698 -0.1188 -0.3880 -0.2813
 8711TIP3    H126097   6.205   0.974   2.739  0.0254  0.1584 -0.0515
 8711TIP3    H226098   6.161   1.077   2.637 -0.4238  0.2211  0.2068
 8712TIP3   OH226099   4.258   1.640   4.496  0.3436 -0.5874 -0.1833
 8712TIP3    H126100   4.260   1.680   4.409  2.6334 -2.2147 -0.9907
 8712TIP3    H226101   4.167   1.646   4.523 -0.3807  0.2881 -2.5458
 8713TIP3   OH226102   5.433   1.100   3.945  0.4452  0.1250 -0.1609
 8713TIP3    H126103   5.493   1.166   3.981  1.6532 -0.7385 -0.5344
 8713TIP3    H226104   5.477   1.017   3.961 -1.3968 -0.6773  0.9481
 8714TIP3   OH226105   2.370   2.527   0.687 -0.3131 -0.2979 -0.1185
 8714TIP3    H126106   2.342   2.618   0.700 -3.0062 -0.9416 -0.8173
 8714TIP3    H226107   2.419   2.506   0.766  1.5569  2.1109 -0.5026
 8715TIP3   OH226108   0.278   5.650   5.622 -0.6699 -0.3230  0.3929
 8715TIP3    H126109   0.373   5.643   5.611 -0.6045 -0.7763  1.1433
 8715TIP3    H226110   0.248   5.698   5.545  0.1569 -0.2597  0.1008
 8716TIP3   OH226111   0.920   0.886   2.259 -0.0417 -0.5975  0.5289
 8716TIP3    H126112   0.847   0.905   2.200  0.0132  0.9997  0.9105
 8716TIP3    H226113   0.970   0.968   2.262  1.2946 -1.3898  0.9396
 8717TIP3   OH226114   3.623   3.881   2.583 -0.0538  0.1269  0.3124
 8717TIP3    H126115   3.608   3.951   2.519 -0.0232  0.1600  0.3412
 8717TIP3    H226116   3.632   3.927   2.666 -0.1017  0.0826  0.3417
 8718TIP3   OH226117   3.900   1.255   1.880 -0.0245  0.1630 -0.4003
 8718TIP3    H126118   3.952   1.334   1.870  0.2747 -0.0306 -0.4084
 8718TIP3    H226119   3.892   1.219   1.792  0.6206 -0.2979 -0.2808
 8719TIP3   OH226120   1.301   5.726   1.588  0.3814  0.5377  0.5348
 8719TIP3    H126121   1.213   5.693   1.603  0.3206  0.6546  0.4448
 8719TIP3    H226122   1.329   5.683   1.507  0.9352 -0.5415  1.2839
 8720TIP3   OH226123   2.792   4.438   1.914  0.5718  0.1232  0.3164
 8720TIP3    H126124   2.837   4.400   1.989 -2.5525 -2.2489  1.1594
 8720TIP3    H226125   2.709   4.470   1.948  0.2711  1.7089 -1.6721
 8721TIP3   OH226126   0.324   0.812   5.253  0.0785 -0.5897 -0.3089
 8721TIP3    H126127   0.327   0.907   5.259  0.4111 -0.5551 -0.9634
 8721TIP3    H226128   0.246   0.793   5.201  0.8566 -0.6038 -1.4910
 8722TIP3   OH226129   3.864   1.648   1.932  0.0365 -1.2231 -0.4150
 8722TIP3    H126130   3.838   1.602   2.012 -1.1625 -0.7361 -0.5044
 8722TIP3    H226131   3.808   1.611   1.864 -1.0128  0.3640 -0.4784
 8723TIP3   OH226132   4.787   4.518   3.685 -0.0358 -0.3445 -0.4677
 8723TIP3    H126133   4.854   4.459   3.721  0.2581  1.2967  1.8865
 8723TIP3    H226134   4.713   4.510   3.746 -0.1990  1.2746 -0.4102
 8724TIP3   OH226135   4.377   6.207   0.967  0.0080  0.1156  0.4708
 8724TIP3    H126136   4.312   6.136   0.964 -0.1404  0.2208  0.9719
 8724TIP3    H226137   4.359   6.260   0.890  1.4655 -1.5351 -1.0807
 8725TIP3   OH226138   5.344   5.540   4.764 -0.2419 -0.3136  0.3265
 8725TIP3    H126139   5.380   5.457   4.733  1.0917  0.8362 -1.3385
 8725TIP3    H226140   5.401   5.566   4.836  0.6122  0.1382 -0.4948
 8726TIP3   OH226141   1.789   0.833   0.845 -0.0103  0.1838  0.9441
 8726TIP3    H126142   1.826   0.902   0.901  1.8776 -0.7120  0.8729
 8726TIP3    H226143   1.864   0.778   0.823 -0.9833 -0.3550 -1.2329
 8727TIP3   OH226144   6.123   4.529   1.260  0.4486  0.1241  0.1258
 8727TIP3    H126145   6.115   4.625   1.262 -1.8372 -0.0124  1.5277
 8727TIP3    H226146   6.041   4.498   1.297  1.1064 -2.4166 -0.3849
 8728TIP3   OH226147   4.492   2.579   3.108 -0.2568 -0.0670 -0.4776
 8728TIP3    H126148   4.404   2.583   3.070  0.2309  0.4740 -1.6091
 8728TIP3    H226149   4.529   2.497   3.075 -0.0037  0.1666 -0.7797
 8729TIP3   OH226150   6.298   3.515   3.136 -0.4785  0.0598  0.1187
 8729TIP3    H126151   6.320   3.564   3.057 -0.3951 -0.6130 -0.2836
 8729TIP3    H226152   6.345   3.432   3.126 -0.9218 -0.2537  0.6090
 8730TIP3   OH226153   0.333   1.923   1.858 -0.1289 -0.1404 -0.0562
 8730TIP3    H126154   0.280   1.854   1.896  0.1121  0.1599  0.8394
 8730TIP3    H226155   0.271   1.995   1.842 -0.3139 -0.4283 -0.6693
 8731TIP3   OH226156   4.479   6.583   3.732  0.4113 -0.1348  0.2995
 8731TIP3    H126157   4.423   6.511   3.703  0.5520 -0.0905 -0.0761
 8731TIP3    H226158   4.568   6.553   3.715  0.4578  0.2601 -0.1537
 8732TIP3   OH226159   1.083   2.087   0.136  0.2364 -0.2602  0.2672
 8732TIP3    H126160   0.990   2.085   0.114  0.7039 -0.1717 -2.0342
 8732TIP3    H226161   1.111   1.995   0.129  0.3150 -0.2930  0.9916
 8733TIP3   OH226162   5.475   0.123   1.962 -0.2150  0.5490  0.2305
 8733TIP3    H126163   5.456   0.211   1.929 -0.7122  0.7549  1.0284
 8733TIP3    H226164   5.430   0.120   2.047 -1.7132 -1.1081 -0.5784
 8734TIP3   OH226165   0.212   3.128   2.931 -0.0572  0.6301 -0.4401
 8734TIP3    H126166   0.267   3.202   2.956  2.1890 -1.2999  0.7460
 8734TIP3    H226167   0.168   3.157   2.851  0.2028  3.4365  0.3230
 8735TIP3   OH226168   1.482   1.369   5.524 -0.3169  0.2613  0.0104
 8735TIP3    H126169   1.515   1.456   5.502  0.0624 -0.0624 -0.7240
 8735TIP3    H226170   1.546   1.333   5.586  0.1515  0.0532 -0.5863
 8736TIP3   OH226171   3.122   4.281   2.329  0.3927  0.1222  0.0116
 8736TIP3    H126172   3.160   4.194   2.343  0.4339 -0.3387 -2.5095
 8736TIP3    H226173   3.160   4.310   2.245 -0.6421  2.0092  0.1466
 8737TIP3   OH226174   0.344   1.469   1.266  0.3102  0.6568 -0.1712
 8737TIP3    H126175   0.331   1.554   1.308  0.3275  0.8113 -0.4700
 8737TIP3    H226176   0.265   1.420   1.286 -0.2644  1.1941 -1.0347
 8738TIP3   OH226177   3.715   5.537   3.367 -0.3857  0.1216 -0.2054
 8738TIP3    H126178   3.759   5.453   3.364 -0.3365  0.0063  1.9163
 8738TIP3    H226179   3.626   5.520   3.336 -0.5132 -0.8312  0.6475
 8739TIP3   OH226180   1.896   6.533   1.035 -0.2125  0.0659 -0.2650
 8739TIP3    H126181   1.968   6.577   0.989 -0.6464  0.1247 -0.8978
 8739TIP3    H226182   1.870   6.594   1.103  1.5871 -0.7342  1.2217
 8740TIP3   OH226183   1.937   6.681   2.145 -0.1815 -0.6837  0.0763
 8740TIP3    H126184   1.900   6.646   2.226 -0.6749 -1.7342 -0.5895
 8740TIP3    H226185   1.884   6.642   2.076 -0.4260  0.9939 -0.7211
 8741TIP3   OH226186   3.320   3.483   0.515  0.6644  0.6040 -0.0334
 8741TIP3    H126187   3.364   3.405   0.481  0.7390  0.8664 -0.5564
 8741TIP3    H226188   3.272   3.519   0.440  0.8318  1.1952  0.1306
 8742TIP3   OH226189   0.807   3.770   1.314  0.5410 -0.3736 -0.4525
 8742TIP3    H126190   0.886   3.719   1.295  0.4360 -1.3645  1.5208
 8742TIP3    H226191   0.832   3.828   1.385 -0.4512 -0.5751  0.0792
 8743TIP3   OH226192   0.417   6.062   3.230 -0.5154 -0.0230 -0.2290
 8743TIP3    H126193   0.414   6.003   3.154  0.5998  2.5564 -2.4719
 8743TIP3    H226194   0.361   6.136   3.205 -0.1695  0.8885  1.5122
 8744TIP3   OH226195   0.738   2.466   0.638  0.3042  0.0015  0.2753
 8744TIP3    H126196   0.783   2.382   0.634 -0.9237 -0.7521  1.3529
 8744TIP3    H226197   0.716   2.486   0.547 -0.9080 -1.7398  0.1300
 8745TIP3   OH226198   0.783   5.397   4.965  0.3450 -0.2297 -0.3218
 8745TIP3    H126199   0.698   5.370   4.929 -0.6506 -0.3259  1.9406
 8745TIP3    H226200   0.844   5.330   4.935 -0.1311  0.3404 -2.7693
 8746TIP3   OH226201   5.458   3.395   3.099  0.1073 -0.2044 -0.1584
 8746TIP3    H126202   5.383   3.374   3.154 -0.1025 -0.9688 -0.7152
 8746TIP3    H226203   5.534   3.382   3.156 -0.1627  0.2885  0.3207
 8747TIP3   OH226204   3.358   5.163   2.797 -0.1148 -0.7051  0.9413
 8747TIP3    H126205   3.292   5.157   2.867 -2.0843 -0.6176 -0.8042
 8747TIP3    H226206   3.314   5.127   2.720  1.6440  0.0506 -0.4773
 8748TIP3   OH226207   1.657   5.903   4.765  0.1840 -0.0360 -0.6657
 8748TIP3    H126208   1.695   5.975   4.715  1.1550  0.7684  1.1356
 8748TIP3    H226209   1.699   5.824   4.731  1.0251  0.5180 -0.9338
 8749TIP3   OH226210   0.739   4.286   3.003  0.3983  0.4988 -0.2704
 8749TIP3    H126211   0.765   4.210   3.054 -0.2852 -0.6976 -1.6162
 8749TIP3    H226212   0.784   4.275   2.919 -0.7102  0.8634 -0.9395
 8750TIP3   OH226213   1.020   6.607   1.273 -0.3102  0.2382  0.4553
 8750TIP3    H126214   1.015   6.591   1.367  0.9450 -1.0064  0.3457
 8750TIP3    H226215   1.109   6.638   1.258 -0.6922  1.0302 -0.2439
 8751TIP3   OH226216   5.142   3.752   4.887 -0.9489  0.0193 -0.0448
 8751TIP3    H126217   5.177   3.756   4.798 -0.2687 -0.5254  0.1858
 8751TIP3    H226218   5.100   3.666   4.892 -1.4091  0.2444  0.0153
 8752TIP3   OH226219   7.009   6.288   4.963 -0.2814 -0.9334 -0.0992
 8752TIP3    H126220   6.986   6.305   5.055  1.5286 -1.3742  0.4712
 8752TIP3    H226221   7.034   6.374   4.929 -2.4984 -0.4569 -0.7112
 8753TIP3   OH226222   3.761   6.181   2.453 -0.1677  0.8550  0.6861
 8753TIP3    H126223   3.786   6.219   2.537 -2.8759  0.5226  1.7755
 8753TIP3    H226224   3.665   6.182   2.455 -0.3080 -0.7482 -1.6806
 8754TIP3   OH226225   3.447   3.362   3.811 -0.4305  0.3651 -0.2576
 8754TIP3    H126226   3.497   3.405   3.742 -0.7783  2.6610  0.8069
 8754TIP3    H226227   3.514   3.329   3.871 -0.1291  1.1300 -0.1531
 8755TIP3   OH226228   3.751   1.313   2.384 -0.4359 -0.7835  0.0999
 8755TIP3    H126229   3.768   1.389   2.440 -1.0174 -0.1228 -0.6008
 8755TIP3    H226230   3.788   1.239   2.432  0.9772  0.0580  0.3857
 8756TIP3   OH226231   4.520   2.314   4.805  0.4246 -0.5810 -0.5256
 8756TIP3    H126232   4.592   2.371   4.831  1.6386 -2.1622 -0.2617
 8756TIP3    H226233   4.562   2.233   4.778 -1.2943 -1.7276  0.0713
 8757TIP3   OH226234   0.144   4.599   4.172  0.5599  0.2202 -0.4399
 8757TIP3    H126235   0.229   4.582   4.212  0.2495 -1.2636 -0.3683
 8757TIP3    H226236   0.138   4.537   4.100 -0.6190  0.0152 -0.1988
 8758TIP3   OH226237   3.100   4.285   4.491 -0.1704 -0.3187  0.1595
 8758TIP3    H126238   3.120   4.331   4.572  3.3492 -1.3733  0.0591
 8758TIP3    H226239   3.116   4.193   4.512  1.9814 -0.5116 -1.9409
 8759TIP3   OH226240   5.447   2.166   5.074  0.3492 -0.3522  0.0009
 8759TIP3    H126241   5.495   2.103   5.128  0.1246 -1.5790 -1.1612
 8759TIP3    H226242   5.508   2.187   5.004  0.1676  0.1996  0.0088
 8760TIP3   OH226243   5.240   1.306   0.115 -0.0883  0.2793 -0.4860
 8760TIP3    H126244   5.278   1.393   0.115 -1.7600  1.1233  1.9845
 8760TIP3    H226245   5.146   1.321   0.106 -0.3991 -1.2581 -0.1071
 8761TIP3   OH226246   1.223   0.625   5.014  0.1322  0.3411  0.3073
 8761TIP3    H126247   1.257   0.535   5.009 -0.0736  0.1568  1.7813
 8761TIP3    H226248   1.259   0.668   4.937 -0.6702 -1.2954 -1.0569
 8762TIP3   OH226249   0.344   2.928   3.674 -0.2925 -0.2553  0.2863
 8762TIP3    H126250   0.377   2.891   3.756  0.4348  0.2278  0.2248
 8762TIP3    H226251   0.392   2.882   3.605 -1.4193 -1.1744  0.0812
 8763TIP3   OH226252   1.637   0.838   5.424 -0.1654  0.1615  0.3269
 8763TIP3    H126253   1.638   0.902   5.352  0.2873 -0.5005 -0.2714
 8763TIP3    H226254   1.716   0.786   5.410 -0.4243 -0.4016  0.9252
 8764TIP3   OH226255   1.314   3.753   5.761 -0.1417  0.5844  0.0077
 8764TIP3    H126256   1.319   3.658   5.776 -0.5726  0.4805 -0.4931
 8764TIP3    H226257   1.234   3.780   5.805 -0.1475  0.6780 -0.0603
 8765TIP3   OH226258   4.224   0.215   3.454 -0.2172 -0.0543  0.0940
 8765TIP3    H126259   4.290   0.282   3.440  0.5552 -1.4342 -4.0002
 8765TIP3    H226260   4.141   0.257   3.429 -0.2065  0.2429  0.5434
 8766TIP3   OH226261   2.712   4.088   1.822  0.0341  0.2361 -0.4299
 8766TIP3    H126262   2.646   4.149   1.855 -1.8767 -2.0398  0.1968
 8766TIP3    H226263   2.692   4.080   1.728  0.2350  0.4696 -0.4956
 8767TIP3   OH226264   0.929   4.506   3.383 -0.0632 -0.5387 -0.1789
 8767TIP3    H126265   0.854   4.560   3.406  0.8785  0.6217  0.3139
 8767TIP3    H226266   1.004   4.550   3.425  1.0962 -0.8463 -1.8066
 8768TIP3   OH226267   0.156   0.757   4.149 -0.6314  0.8225 -0.8065
 8768TIP3    H126268   0.225   0.693   4.133 -0.3496  0.6241  0.9438
 8768TIP3    H226269   0.201   0.841   4.153 -0.5338  0.7434 -0.0828
 8769TIP3   OH226270   1.969   5.799   2.979  0.7547 -0.1788 -0.3939
 8769TIP3    H126271   1.935   5.838   2.898  0.5569 -0.6548 -0.5453
 8769TIP3    H226272   2.064   5.809   2.972  0.8554 -1.4402 -1.3496
 8770TIP3   OH226273   4.543   5.633   4.374 -0.4449 -0.1949  0.1515
 8770TIP3    H126274   4.463   5.594   4.410 -0.0631 -2.2972 -1.1129
 8770TIP3    H226275   4.536   5.620   4.280  0.9752  0.4200 -0.0599
 8771TIP3   OH226276   5.017   1.848   4.543 -0.1219  0.3007 -0.3501
 8771TIP3    H126277   5.006   1.753   4.533 -0.0027  0.1999  0.3682
 8771TIP3    H226278   4.943   1.886   4.497  0.0824 -0.1216 -1.0507
 8772TIP3   OH226279   4.060   5.296   2.612  0.7319  0.1279 -0.0307
 8772TIP3    H126280   4.032   5.368   2.555  1.5693  0.5813  0.1149
 8772TIP3    H226281   4.097   5.231   2.553 -0.1613 -0.2590 -0.1773
 8773TIP3   OH226282   0.012   3.436   0.529  0.7580  0.0956 -0.0221
 8773TIP3    H126283  -0.056   3.379   0.564  0.7066 -0.5560 -1.1374
 8773TIP3    H226284   0.087   3.378   0.514  0.3361  0.0240 -2.2367
 8774TIP3   OH226285   3.749   3.277   4.344  0.3779  0.0384  0.3623
 8774TIP3    H126286   3.806   3.245   4.414  0.3064  1.7644  1.2594
 8774TIP3    H226287   3.807   3.288   4.269  0.7357 -0.5349  0.5541
 8775TIP3   OH226288   1.447   4.391   5.723  0.1971 -0.3796  0.6614
 8775TIP3    H126289   1.375   4.439   5.763  0.0267 -1.1070  1.2417
 8775TIP3    H226290   1.405   4.335   5.657  0.3689  0.1005  0.1420
 8776TIP3   OH226291   2.406   1.903   4.182 -0.5043 -0.1721 -0.4065
 8776TIP3    H126292   2.384   1.995   4.171 -1.6339 -0.3837 -0.0129
 8776TIP3    H226293   2.498   1.903   4.208 -0.1383  0.7718 -1.5965
 8777TIP3   OH226294   5.665   4.174   3.826 -0.2251  0.0067 -0.2393
 8777TIP3    H126295   5.673   4.257   3.778 -2.7975  0.1138 -0.6334
 8777TIP3    H226296   5.631   4.199   3.912  1.4917 -0.4583  0.6151
 8778TIP3   OH226297   1.113   1.372   1.194  0.0773  0.0314 -0.4035
 8778TIP3    H126298   1.185   1.315   1.169  0.2688  0.1681 -0.1663
 8778TIP3    H226299   1.152   1.459   1.201 -0.0984  0.0981 -0.2289
 8779TIP3   OH226300   0.618   4.142   2.267 -0.3469 -0.0211 -0.2766
 8779TIP3    H126301   0.633   4.120   2.359 -1.0389  0.5256 -0.0271
 8779TIP3    H226302   0.557   4.216   2.269 -0.1671  0.1673 -1.1685
 8780TIP3   OH226303   3.350   5.898   0.305 -0.6719 -0.1755 -0.5293
 8780TIP3    H126304   3.283   5.906   0.238 -0.5295 -0.3218 -0.6926
 8780TIP3    H226305   3.408   5.973   0.290 -0.5800 -0.2679 -0.6395
 8781TIP3   OH226306   0.425   3.658   2.321 -0.2747 -0.3769  0.1901
 8781TIP3    H126307   0.384   3.742   2.299 -0.1369 -0.0777  1.0328
 8781TIP3    H226308   0.434   3.613   2.237 -1.9745 -0.2920 -0.0752
 8782TIP3   OH226309   0.987   6.811   1.060 -0.2794  0.3481  0.3268
 8782TIP3    H126310   0.899   6.782   1.035 -0.5530  0.0987  1.4957
 8782TIP3    H226311   1.027   6.733   1.098 -1.0980  1.3956  3.7359
 8783TIP3   OH226312   2.808   2.106   4.462  0.6861 -0.2498 -0.4643
 8783TIP3    H126313   2.887   2.149   4.496  0.2261  1.9175 -1.9197
 8783TIP3    H226314   2.841   2.029   4.415  1.8591  0.1584 -0.3411
 8784TIP3   OH226315   0.769   3.749   3.982 -0.3854 -0.2669  0.2606
 8784TIP3    H126316   0.678   3.736   3.953  0.1402 -0.8020 -1.2650
 8784TIP3    H226317   0.816   3.773   3.902  0.6712  0.8749  1.1947
 8785TIP3   OH226318   5.287   0.406   0.919 -0.2897 -0.1072 -0.0435
 8785TIP3    H126319   5.374   0.444   0.902 -1.0555  0.6880 -2.6269
 8785TIP3    H226320   5.232   0.481   0.940 -0.8073 -0.3460 -0.5359
 8786TIP3   OH226321   0.916   4.860   5.777 -0.4730  0.0977 -0.3273
 8786TIP3    H126322   0.969   4.904   5.843  0.3669 -0.6163 -0.5111
 8786TIP3    H226323   0.905   4.771   5.808 -0.0255 -0.2632 -1.1637
 8787TIP3   OH226324   1.867   1.037   1.044  0.3779  0.1850 -0.6364
 8787TIP3    H126325   1.805   1.110   1.053  0.2170  0.2227 -1.9313
 8787TIP3    H226326   1.888   1.013   1.134 -1.4559  0.2209 -0.1582
 8788TIP3   OH226327   2.822   2.264   2.374  0.2646  0.2816 -0.0569
 8788TIP3    H126328   2.861   2.214   2.303  2.0603 -2.2131  2.4829
 8788TIP3    H226329   2.847   2.355   2.355  1.7403 -0.4465 -1.9563
 8789TIP3   OH226330   4.196   3.563   1.331  0.2161  0.3086  0.5361
 8789TIP3    H126331   4.139   3.598   1.399 -1.0398  1.6400 -1.1093
 8789TIP3    H226332   4.285   3.581   1.362 -0.3474  2.9450  0.8780
 8790TIP3   OH226333   7.077   4.154   0.943 -0.1108  0.0409  0.4545
 8790TIP3    H126334   7.056   4.195   1.027 -0.4113  0.3225  0.2414
 8790TIP3    H226335   7.018   4.079   0.938  0.0432 -0.0907  0.5825
 8791TIP3   OH226336   3.354   1.331   1.710  0.1007 -0.0968  0.2810
 8791TIP3    H126337   3.413   1.333   1.636  0.1323 -0.2091  0.3030
 8791TIP3    H226338   3.268   1.312   1.672  0.0514  0.2085  0.2329
 8792TIP3   OH226339   5.076   1.420   4.954  0.6108 -0.0257 -0.5425
 8792TIP3    H126340   5.039   1.491   5.007  0.4090  0.5871 -1.4758
 8792TIP3    H226341   4.999   1.378   4.915  0.8422  1.3860 -2.6633
 8793TIP3   OH226342   0.691   2.274   2.154 -0.2028 -0.0190  0.4720
 8793TIP3    H126343   0.680   2.267   2.059 -0.9131  0.3603  0.5136
 8793TIP3    H226344   0.648   2.195   2.188 -1.1306  0.4875  0.5313
 8794TIP3   OH226345   5.392   1.697   1.734 -0.0277  0.3784 -0.0342
 8794TIP3    H126346   5.330   1.710   1.663 -0.8744 -0.5684  0.5059
 8794TIP3    H226347   5.439   1.616   1.711 -0.2120  0.1405  0.4071
 8795TIP3   OH226348   0.124   1.571   0.678 -0.5960 -0.9445  0.5205
 8795TIP3    H126349   0.167   1.592   0.761  1.6942 -1.6481 -0.4084
 8795TIP3    H226350   0.150   1.481   0.659 -1.0904 -0.8076 -0.9665
 8796TIP3   OH226351   5.858   4.194   5.759  0.6664  0.0728  0.3485
 8796TIP3    H126352   5.947   4.173   5.786  0.4122 -0.4927  0.7575
 8796TIP3    H226353   5.807   4.191   5.840 -0.0941 -1.6036 -0.1516
 8797TIP3   OH226354   2.848   2.480   4.725 -0.1388  0.1977  0.4562
 8797TIP3    H126355   2.772   2.538   4.723 -0.8424 -0.6609  1.5724
 8797TIP3    H226356   2.816   2.396   4.693  1.0765  0.5728 -1.9924
 8798TIP3   OH226357   1.018   0.404   2.863 -0.3361  0.0519  0.2447
 8798TIP3    H126358   1.024   0.344   2.936  0.4779  0.8213  0.8377
 8798TIP3    H226359   0.935   0.383   2.820 -0.6336 -0.6608  1.1574
 8799TIP3   OH226360   6.893   1.676   5.647 -0.5981  0.3412 -0.5249
 8799TIP3    H126361   6.847   1.612   5.593 -0.5150 -0.3309  0.1925
 8799TIP3    H226362   6.911   1.749   5.587  0.0192 -0.6344 -1.5604
 8800TIP3   OH226363   3.960   0.349   5.040  0.6350  0.0452 -0.3537
 8800TIP3    H126364   3.885   0.349   4.980  1.2942  1.7177 -1.2381
 8800TIP3    H226365   3.960   0.261   5.077 -1.0737 -0.3673 -1.1934
 8801TIP3   OH226366   5.528   5.914   0.740 -0.1985 -0.2093 -0.3681
 8801TIP3    H126367   5.500   5.918   0.832 -0.4428 -0.4289 -0.4328
 8801TIP3    H226368   5.461   5.862   0.697  0.7076 -1.4154 -0.3736
 8802TIP3   OH226369   2.504   0.842   1.000  0.4501  0.2830 -0.6386
 8802TIP3    H126370   2.516   0.751   0.973  1.6738 -0.3449  1.7432
 8802TIP3    H226371   2.412   0.848   1.023  0.8316 -1.1871  1.6419
 8803TIP3   OH226372   0.467   4.472   1.427 -0.1964  0.1968 -0.2833
 8803TIP3    H126373   0.496   4.496   1.339  0.3658 -2.6087 -0.9645
 8803TIP3    H226374   0.376   4.445   1.416  0.1447 -1.0390 -0.2266
 8804TIP3   OH226375   3.317   5.353   0.860 -0.2136  0.2442  0.0723
 8804TIP3    H126376   3.296   5.446   0.846  0.3998  0.5448  1.1157
 8804TIP3    H226377   3.340   5.347   0.952 -1.2826 -1.1567  0.2714
 8805TIP3   OH226378   0.176   3.991   3.613  0.1449 -0.3297  0.4487
 8805TIP3    H126379   0.115   4.036   3.671 -0.7994 -0.2301 -0.5940
 8805TIP3    H226380   0.257   4.043   3.617 -0.1629  0.1066  1.0736
 8806TIP3   OH226381   3.628   0.585   2.747 -0.4713 -0.0145  0.4551
 8806TIP3    H126382   3.705   0.582   2.804 -2.4287 -1.0966  3.2471
 8806TIP3    H226383   3.641   0.512   2.686  0.6930 -0.2163  0.9131
 8807TIP3   OH226384   2.169   6.313   1.667 -0.1577 -0.3389 -0.3556
 8807TIP3    H126385   2.096   6.298   1.728  0.1673 -0.3066  0.0449
 8807TIP3    H226386   2.189   6.406   1.676 -1.2751  0.0884 -1.8353
 8808TIP3   OH226387   1.929   6.277   4.496 -0.6890 -0.3189 -0.3655
 8808TIP3    H126388   2.002   6.328   4.534 -0.1545 -1.8960  0.8537
 8808TIP3    H226389   1.971   6.220   4.432 -0.8824 -1.0721  0.1736
 8809TIP3   OH226390   6.813   5.131   0.067 -0.1506 -0.3209 -0.7672
 8809TIP3    H126391   6.720   5.123   0.045  0.2165 -1.4344 -2.0362
 8809TIP3    H226392   6.843   5.207   0.017 -0.0652 -0.8577 -1.5523
 8810TIP3   OH226393   5.268   0.126   1.065  0.1821  0.7132 -0.2019
 8810TIP3    H126394   5.282   0.204   1.011  1.2131  0.4485 -0.3377
 8810TIP3    H226395   5.270   0.053   1.004  3.3757  0.2162  0.3417
 8811TIP3   OH226396   1.376   0.396   2.451  0.3039 -0.1295 -0.0561
 8811TIP3    H126397   1.458   0.347   2.459  0.7604  0.6967  0.4886
 8811TIP3    H226398   1.319   0.360   2.519 -0.2539 -1.5527 -1.2240
 8812TIP3   OH226399   2.217   3.762   4.667 -0.0281  0.3890 -0.3807
 8812TIP3    H126400   2.177   3.819   4.600  0.3475  0.1561 -0.8094
 8812TIP3    H226401   2.263   3.695   4.617 -0.5961 -0.3888  0.1259
 8813TIP3   OH226402   1.236   3.700   4.907  0.1427 -0.2114  0.9196
 8813TIP3    H126403   1.182   3.623   4.924  1.2571 -1.1826  0.2720
 8813TIP3    H226404   1.258   3.734   4.994 -1.5850  0.3033  1.1944
 8814TIP3   OH226405   2.714   4.134   3.969  0.2184  0.4444  0.1196
 8814TIP3    H126406   2.661   4.087   4.033 -1.2170  0.5500 -0.9504
 8814TIP3    H226407   2.735   4.069   3.902  0.8534  0.5878  0.1679
 8815TIP3   OH226408   3.358   3.941   4.086  0.1796  0.1586 -0.1564
 8815TIP3    H126409   3.453   3.932   4.091  0.2931  0.7296 -0.9111
 8815TIP3    H226410   3.337   4.013   4.146  0.1227 -0.4821  0.5986
 8816TIP3   OH226411   4.621   0.473   1.395  0.4945  0.5906 -0.1616
 8816TIP3    H126412   4.607   0.551   1.341  1.4378  0.1536 -1.0742
 8816TIP3    H226413   4.627   0.401   1.332  0.0662 -0.1701  0.6397
 8817TIP3   OH226414   7.147   5.854   4.379  0.3744  0.5156  0.3427
 8817TIP3    H126415   7.158   5.760   4.390  0.9229  0.3343 -1.4694
 8817TIP3    H226416   7.236   5.890   4.382  0.3433  0.7298 -0.7276
 8818TIP3   OH226417   4.970   0.061   2.517  0.1049 -0.6892  0.1379
 8818TIP3    H126418   4.934   0.149   2.530  0.8534 -0.3333 -0.1955
 8818TIP3    H226419   5.046   0.057   2.575  0.2045 -1.0387 -0.0151
 8819TIP3   OH226420   0.410   1.862   4.536 -0.7988 -0.3274  0.1982
 8819TIP3    H126421   0.364   1.783   4.566  0.8141 -0.9641  1.1890
 8819TIP3    H226422   0.477   1.877   4.604  0.1165  0.8229 -0.9118
 8820TIP3   OH226423   1.765   5.630   4.012  0.0672 -0.4285  0.2103
 8820TIP3    H126424   1.754   5.713   4.059  0.0117  0.7094 -1.7007
 8820TIP3    H226425   1.676   5.599   3.997 -0.0366  0.3293 -0.9432
 8821TIP3   OH226426   4.447   2.464   3.385 -0.7455 -0.0347  0.0442
 8821TIP3    H126427   4.446   2.514   3.303  0.2268  1.0031  0.6301
 8821TIP3    H226428   4.357   2.472   3.418 -0.8211  0.6387 -0.2910
 8822TIP3   OH226429   3.801   1.175   5.660 -0.9538  0.6493 -0.1726
 8822TIP3    H126430   3.709   1.153   5.670 -0.8512 -1.4655 -2.7794
 8822TIP3    H226431   3.834   1.113   5.595  2.1138  1.8975  0.0022
 8823TIP3   OH226432   2.417   3.974   3.464 -1.0333  0.0005  0.3363
 8823TIP3    H126433   2.498   3.924   3.456 -0.3099  1.1136  0.4702
 8823TIP3    H226434   2.416   4.032   3.389 -0.7522  1.3067  1.3028
 8824TIP3   OH226435   2.108   4.861   4.304 -0.3701 -0.8516  0.0405
 8824TIP3    H126436   2.138   4.779   4.265  0.3202  0.4824 -2.3952
 8824TIP3    H226437   2.128   4.852   4.398  2.9517 -2.0856 -0.6718
 8825TIP3   OH226438   2.318   3.995   4.039  0.4124  0.7216 -0.1654
 8825TIP3    H126439   2.279   4.016   4.123  0.1135 -1.4087  0.2890
 8825TIP3    H226440   2.404   3.958   4.061  0.0249 -0.5588 -0.7131
 8826TIP3   OH226441   1.351   1.648   1.500  0.5338  0.0387 -0.2525
 8826TIP3    H126442   1.295   1.716   1.464 -0.4755 -1.1334 -0.9957
 8826TIP3    H226443   1.404   1.618   1.426 -0.9497 -1.8042 -0.6538
 8827TIP3   OH226444   6.748   1.906   1.471  0.0425 -0.2803 -0.0996
 8827TIP3    H126445   6.806   1.972   1.432  1.5783 -0.4480  1.7314
 8827TIP3    H226446   6.677   1.956   1.510 -0.9990 -0.0508 -2.1608
 8828TIP3   OH226447   1.509   3.264   2.738 -0.3636  0.2508  0.3249
 8828TIP3    H126448   1.496   3.190   2.797 -3.4509  1.5917  1.5128
 8828TIP3    H226449   1.517   3.225   2.652 -4.1150 -1.5019  0.6067
 8829TIP3   OH226450   5.130   3.417   5.140  0.5105  0.0239  0.0176
 8829TIP3    H126451   5.139   3.414   5.235 -2.8990  1.5424  0.5288
 8829TIP3    H226452   5.058   3.356   5.121  1.4048 -0.5774 -1.6941
 8830TIP3   OH226453   4.874   5.074   3.676 -0.2486 -0.1888  0.0250
 8830TIP3    H126454   4.788   5.097   3.711  0.3071  2.3054 -0.0414
 8830TIP3    H226455   4.914   5.020   3.744 -1.4230 -0.4037  0.5747
 8831TIP3   OH226456   4.300   3.952   0.774 -0.1096  0.6890 -0.0212
 8831TIP3    H126457   4.240   3.963   0.701  0.4364 -2.0902 -1.0212
 8831TIP3    H226458   4.379   4.000   0.748  0.1647 -0.4611 -1.4272
 8832TIP3   OH226459   0.779   1.782   2.108 -0.0925 -0.0537  0.1358
 8832TIP3    H126460   0.855   1.724   2.100  0.7319  1.0837 -0.5744
 8832TIP3    H226461   0.740   1.783   2.021 -0.2491  0.2532  0.2052
 8833TIP3   OH226462   0.062   5.714   3.015  0.4871 -0.1441 -0.4490
 8833TIP3    H126463   0.011   5.638   2.986  0.4348  0.4765 -2.1345
 8833TIP3    H226464   0.134   5.677   3.067  1.2040 -1.5154 -2.2865
 8834TIP3   OH226465   1.931   2.420   5.418  0.2979 -0.4740  0.0950
 8834TIP3    H126466   1.933   2.327   5.396 -2.3601 -0.4772 -0.4052
 8834TIP3    H226467   1.899   2.463   5.339 -1.5809  0.4612  1.2910
 8835TIP3   OH226468   3.154   2.791   3.141  0.5374  0.0542  0.2985
 8835TIP3    H126469   3.195   2.876   3.129 -0.0336  0.1039 -1.7104
 8835TIP3    H226470   3.074   2.810   3.190 -0.1739  0.8803 -1.1239
 8836TIP3   OH226471   6.315   3.869   3.188 -0.2068 -0.1887 -0.4983
 8836TIP3    H126472   6.387   3.808   3.177 -1.2676 -1.5312 -0.2039
 8836TIP3    H226473   6.276   3.878   3.101  0.4493  0.7534 -0.7161
 8837TIP3   OH226474   3.093   5.982   4.289  0.3130 -0.4371  0.4570
 8837TIP3    H126475   3.043   5.902   4.306  1.5718 -0.9359  2.1667
 8837TIP3    H226476   3.117   6.013   4.377  1.1125  0.9956 -0.2440
 8838TIP3   OH226477   4.965   1.240   2.635 -0.1897 -0.7705  0.5045
 8838TIP3    H126478   4.891   1.296   2.612 -2.4493 -3.1270  1.4216
 8838TIP3    H226479   4.958   1.229   2.730  0.7460 -1.8008  0.4698
 8839TIP3   OH226480   2.383   5.614   3.432  0.5874 -0.1780  0.0918
 8839TIP3    H126481   2.353   5.558   3.361 -0.8407 -1.5676  1.7189
 8839TIP3    H226482   2.335   5.695   3.421 -1.2095 -1.1260  0.6158
 8840TIP3   OH226483   5.957   1.547   5.171 -0.2997  0.0657  0.3514
 8840TIP3    H126484   5.983   1.639   5.172 -0.2073  0.0477 -0.1831
 8840TIP3    H226485   5.986   1.513   5.256 -1.1628  0.7476  0.9409
 8841TIP3   OH226486   5.304   1.961   3.719  0.1377  0.1165  0.3993
 8841TIP3    H126487   5.285   1.979   3.811 -1.1630 -0.0719  0.1809
 8841TIP3    H226488   5.354   2.038   3.690  1.7578 -0.4205  1.5740
 8842TIP3   OH226489   5.045   0.706   2.805  0.0163  0.4992 -0.0856
 8842TIP3    H126490   4.977   0.762   2.844 -1.2229 -1.5058  0.7922
 8842TIP3    H226491   5.024   0.704   2.712 -0.8673  0.2974  0.1076
 8843TIP3   OH226492   5.002   3.768   0.749  0.1372  0.1663 -0.1258
 8843TIP3    H126493   4.907   3.778   0.750  0.1036  0.2476 -1.7654
 8843TIP3    H226494   5.033   3.827   0.818 -0.9005  1.4308 -0.7118
 8844TIP3   OH226495   6.500   3.212   0.316  0.2210  0.1612 -0.0713
 8844TIP3    H126496   6.529   3.128   0.351  1.2453  0.1831 -0.8381
 8844TIP3    H226497   6.423   3.191   0.263  1.0461 -0.4651 -1.0685
 8845TIP3   OH226498   1.306   6.753   0.784  0.3438  0.2433  0.2517
 8845TIP3    H126499   1.280   6.688   0.849  3.7062 -1.7761 -0.1579
 8845TIP3    H226500   1.284   6.837   0.824 -1.3519 -1.0248  2.1897
 8846TIP3   OH226501   1.910   2.618   0.877 -0.0137  0.0261  0.1528
 8846TIP3    H126502   1.911   2.668   0.795  0.3106 -1.2963 -0.6889
 8846TIP3    H226503   1.935   2.530   0.851 -2.4827 -1.0825  1.2808
 8847TIP3   OH226504   4.253   0.412   0.580  0.5345  0.4357  0.3688
 8847TIP3    H126505   4.341   0.381   0.600 -0.5126 -1.0882  3.3983
 8847TIP3    H226506   4.263   0.468   0.504  3.9665 -0.3209  0.1104
 8848TIP3   OH226507   5.278   2.994   5.509  0.6652  0.1180  0.3369
 8848TIP3    H126508   5.259   3.086   5.531  1.2979  0.0875  1.0377
 8848TIP3    H226509   5.192   2.956   5.493  0.2830  0.4932  1.4214
 8849TIP3   OH226510   3.386   3.170   2.180 -0.0255 -0.2227  0.6627
 8849TIP3    H126511   3.472   3.136   2.159 -0.1953 -0.5412  0.4784
 8849TIP3    H226512   3.329   3.138   2.109 -0.1298  0.6824  0.3196
 8850TIP3   OH226513   2.866   6.749   5.858  0.7100 -0.0303 -0.1243
 8850TIP3    H126514   2.801   6.814   5.831 -1.4173 -2.6785 -1.8330
 8850TIP3    H226515   2.830   6.711   5.938  0.3633 -1.1963 -0.8219
 8851TIP3   OH226516   5.851   6.733   2.956 -0.0311  0.0781 -0.4569
 8851TIP3    H126517   5.915   6.690   3.013  0.6806  0.0635 -1.2342
 8851TIP3    H226518   5.794   6.661   2.927  0.7121 -0.2449 -1.1759
 8852TIP3   OH226519   2.114   3.435   0.315 -0.2013  0.7404 -0.2964
 8852TIP3    H126520   2.165   3.475   0.386 -1.7894 -0.5559  1.7194
 8852TIP3    H226521   2.025   3.469   0.328 -1.4145 -2.4701  0.9503
 8853TIP3   OH226522   4.380   0.851   1.947  0.2441  0.2340 -0.2966
 8853TIP3    H126523   4.398   0.934   1.992 -0.9621  0.4233 -0.1209
 8853TIP3    H226524   4.434   0.854   1.868  0.4633  1.0495 -0.1254
 8854TIP3   OH226525   2.179   2.581   1.474 -0.1444 -0.0616  0.6057
 8854TIP3    H126526   2.096   2.553   1.435 -0.4872  0.4430  0.9657
 8854TIP3    H226527   2.175   2.546   1.564 -0.6362  1.2349  1.1054
 8855TIP3   OH226528   5.643   6.192   2.905  0.4890  0.5283  0.0700
 8855TIP3    H126529   5.672   6.101   2.900 -1.3757 -0.0295 -1.8660
 8855TIP3    H226530   5.571   6.191   2.969 -2.8535 -0.4926 -3.3537
 8856TIP3   OH226531   1.400   6.379   4.573  0.0502 -0.3998  0.0070
 8856TIP3    H126532   1.411   6.427   4.655 -0.9032  0.2950 -0.2486
 8856TIP3    H226533   1.418   6.288   4.596  2.8679  0.1435  0.2861
 8857TIP3   OH226534   5.414   6.538   1.996  0.1823  0.3521 -0.5109
 8857TIP3    H126535   5.456   6.584   2.069 -1.0199  1.9746 -0.7715
 8857TIP3    H226536   5.358   6.604   1.956 -0.5585 -1.0052 -1.8029
 8858TIP3   OH226537   1.290   2.055   5.283 -0.0065 -0.4469 -0.0305
 8858TIP3    H126538   1.267   2.098   5.365 -1.7374 -2.0676  0.4032
 8858TIP3    H226539   1.351   2.115   5.240 -0.4271  1.2377  1.6313
 8859TIP3   OH226540   4.486   4.161   3.365  0.0388 -0.1314  0.0849
 8859TIP3    H126541   4.483   4.247   3.408  1.1000  0.8016 -1.5901
 8859TIP3    H226542   4.562   4.118   3.403  1.6662  1.1477 -1.5695
 8860TIP3   OH226543   6.584   1.256   1.453 -0.4598 -0.3396  0.0787
 8860TIP3    H126544   6.548   1.179   1.497 -0.8170 -0.1078  0.2006
 8860TIP3    H226545   6.615   1.224   1.369  0.1695 -0.7746  0.4740
 8861TIP3   OH226546   3.112   1.314   1.584  0.5923 -0.5918  0.1457
 8861TIP3    H126547   3.087   1.280   1.499  1.8822 -0.5550 -0.2804
 8861TIP3    H226548   3.041   1.290   1.643  0.7996 -2.7905 -0.4189
 8862TIP3   OH226549   2.624   5.639   1.618 -0.3097 -0.1499  0.3639
 8862TIP3    H126550   2.620   5.733   1.639 -2.2080 -0.4719  1.7336
 8862TIP3    H226551   2.645   5.636   1.524  0.6149  1.6004  0.4740
 8863TIP3   OH226552   6.846   6.546   0.425  0.0074 -0.6699  0.5006
 8863TIP3    H126553   6.933   6.580   0.406 -0.4147 -0.7552 -1.8411
 8863TIP3    H226554   6.803   6.617   0.473  0.6963  0.2105 -0.1456
 8864TIP3   OH226555   4.420   2.424   2.072  0.0508 -0.0249 -0.4033
 8864TIP3    H126556   4.428   2.360   2.142 -0.5149  0.4513  0.1071
 8864TIP3    H226557   4.463   2.383   1.997  1.4967 -0.1487  0.4573
 8865TIP3   OH226558   5.796   1.774   1.279 -0.0116 -0.1838  0.4048
 8865TIP3    H126559   5.822   1.771   1.187  2.6438 -3.1351  1.0532
 8865TIP3    H226560   5.717   1.720   1.284  0.0973 -0.3971 -0.1211
 8866TIP3   OH226561   6.692   0.732   1.458 -0.2652 -0.1555  0.5017
 8866TIP3    H126562   6.646   0.778   1.388  0.4949 -0.3362 -0.1388
 8866TIP3    H226563   6.751   0.798   1.495 -1.4274  0.2384  1.7104
 8867TIP3   OH226564   4.380   4.369   5.578  0.0041  0.0144 -0.1735
 8867TIP3    H126565   4.441   4.436   5.608 -0.9224  0.2856  1.2094
 8867TIP3    H226566   4.397   4.360   5.484  2.5070 -0.3066  0.2428
 8868TIP3   OH226567   1.409   5.351   2.468 -0.1242  0.2676  0.0148
 8868TIP3    H126568   1.394   5.446   2.464  0.1019  0.3185  0.3794
 8868TIP3    H226569   1.414   5.324   2.376  2.2324  0.9880 -0.1285
 8869TIP3   OH226570   3.084   6.606   0.449  0.4058 -0.0076  0.4224
 8869TIP3    H126571   3.013   6.542   0.456  1.5027 -1.1024  2.0018
 8869TIP3    H226572   3.082   6.633   0.357 -0.0013 -2.4225 -0.3391
 8870TIP3   OH226573   7.024   0.907   4.901  0.1109 -0.2887 -0.4755
 8870TIP3    H126574   6.973   0.899   4.821 -1.9056 -1.8009  0.8609
 8870TIP3    H226575   7.005   0.827   4.950  4.4857 -1.3788 -0.1732
 8871TIP3   OH226576   1.199   2.859   3.887  0.5547  0.1009  0.3923
 8871TIP3    H126577   1.252   2.847   3.966  0.5836 -1.9198  0.1305
 8871TIP3    H226578   1.130   2.793   3.894  0.7510 -0.3556 -1.3830
 8872TIP3   OH226579   2.833   4.348   2.623 -0.5612 -0.1134 -0.1101
 8872TIP3    H126580   2.809   4.386   2.707  0.3443  1.2589 -0.4329
 8872TIP3    H226581   2.865   4.422   2.571 -1.6745 -0.8150 -1.8956
 8873TIP3   OH226582   5.136   3.683   4.409 -0.5325 -0.0955 -0.3985
 8873TIP3    H126583   5.073   3.705   4.340 -0.5187 -1.3419 -0.8326
 8873TIP3    H226584   5.222   3.691   4.367 -0.3674  1.7044  0.2212
 8874TIP3   OH226585   3.463   3.393   4.104  0.3572 -0.5109  0.1557
 8874TIP3    H126586   3.437   3.474   4.061  1.2629  0.8535  2.0234
 8874TIP3    H226587   3.558   3.400   4.113  0.5402 -2.1104 -0.2407
 8875TIP3   OH226588   3.357   1.212   0.410 -0.1036  0.0015  0.1113
 8875TIP3    H126589   3.313   1.293   0.433  0.0311  0.0291  0.2781
 8875TIP3    H226590   3.347   1.204   0.316 -1.2032 -0.4297  0.2566
 8876TIP3   OH226591   5.782   5.953   2.321 -0.4572  0.0515 -0.1212
 8876TIP3    H126592   5.718   5.906   2.266 -2.1213  0.0299  1.7198
 8876TIP3    H226593   5.785   6.041   2.283 -0.9943 -0.1709 -0.7059
 8877TIP3   OH226594   0.850   0.539   0.844  0.1012 -0.2689  0.3005
 8877TIP3    H126595   0.935   0.577   0.824 -0.2046  1.3344  1.7697
 8877TIP3    H226596   0.863   0.445   0.837  1.6660 -0.0118 -0.6415
 8878TIP3   OH226597   2.788   5.404   3.778 -0.2231 -0.2271 -0.1240
 8878TIP3    H126598   2.844   5.446   3.844 -1.4240 -0.3299  0.9860
 8878TIP3    H226599   2.709   5.381   3.825 -0.0885 -2.6848 -0.9860
 8879TIP3   OH226600   0.971   0.467   3.870  0.2101  0.2376  0.1060
 8879TIP3    H126601   0.919   0.534   3.914  1.3849  0.4377  1.2454
 8879TIP3    H226602   0.922   0.447   3.790 -2.1266 -0.3387  1.6077
 8880TIP3   OH226603   2.761   6.714   2.313  0.3820  0.0662  0.3522
 8880TIP3    H126604   2.770   6.769   2.235  0.0888 -1.0767 -0.5070
 8880TIP3    H226605   2.698   6.761   2.368  0.3336  0.7233 -0.2441
 8881TIP3   OH226606   4.140   2.566   4.811  0.5958 -0.3552  0.5656
 8881TIP3    H126607   4.093   2.486   4.787  3.0125 -1.8452  0.4454
 8881TIP3    H226608   4.192   2.588   4.734  0.7619  0.7388  0.9658
 8882TIP3   OH226609   2.249   0.616   5.307  0.7735  0.0027 -0.2150
 8882TIP3    H126610   2.194   0.549   5.348  0.3289  0.8641  0.6344
 8882TIP3    H226611   2.319   0.633   5.371  0.7476  0.5084 -0.3137
 8883TIP3   OH226612   6.771   0.479   1.749 -0.0317 -0.0400  0.0373
 8883TIP3    H126613   6.727   0.549   1.797  0.0381 -0.9685  1.4865
 8883TIP3    H226614   6.820   0.431   1.815  0.1846 -1.2724 -0.9821
 8884TIP3   OH226615   5.078   5.197   5.849 -0.1510 -0.5148  0.1239
 8884TIP3    H126616   5.098   5.290   5.853 -1.4856 -0.2270  0.4108
 8884TIP3    H226617   5.078   5.169   5.941 -0.6457 -0.5950  0.1009
 8885TIP3   OH226618   5.141   6.665   2.263  0.1233 -0.0631  0.9448
 8885TIP3    H126619   5.160   6.748   2.218  0.1573 -0.9810 -0.8252
 8885TIP3    H226620   5.113   6.606   2.193  0.5839 -1.7053  2.0909
 8886TIP3   OH226621   0.891   1.757   0.746 -0.5644 -0.0945  0.3318
 8886TIP3    H126622   0.805   1.720   0.728 -1.5136  1.9965  0.2638
 8886TIP3    H226623   0.952   1.703   0.695 -1.5684 -2.6384  1.6309
 8887TIP3   OH226624   2.031   6.545   1.843 -0.2998  0.1650 -0.6577
 8887TIP3    H126625   1.953   6.558   1.897 -0.4887 -0.7989 -0.6781
 8887TIP3    H226626   2.003   6.572   1.755 -0.8673 -0.8954 -0.8219
 8888TIP3   OH226627   1.507   2.729   2.782 -0.0016  0.6586  0.0076
 8888TIP3    H126628   1.459   2.657   2.741 -0.7981  1.2452 -0.1066
 8888TIP3    H226629   1.594   2.726   2.743  0.0454 -0.3683  0.1538
 8889TIP3   OH226630   0.237   4.676   5.526  0.0993  0.1513  0.0246
 8889TIP3    H126631   0.319   4.660   5.573 -0.2252  0.9520  0.8926
 8889TIP3    H226632   0.258   4.747   5.465  0.1639  0.0431 -0.0809
 8890TIP3   OH226633   6.415   5.098   0.720 -0.6694  0.1756 -0.2428
 8890TIP3    H126634   6.447   5.151   0.794  1.0026 -1.5391  0.3454
 8890TIP3    H226635   6.492   5.089   0.664 -0.5214 -2.5647  0.2725
 8891TIP3   OH226636   2.950   3.702   5.848  0.2246 -0.0022  0.4779
 8891TIP3    H126637   3.037   3.702   5.888  0.7123 -3.1024 -0.3082
 8891TIP3    H226638   2.923   3.610   5.851 -1.9539  0.4937 -1.5729
 8892TIP3   OH226639   6.859   1.687   1.965 -0.1222 -0.6148  0.8992
 8892TIP3    H126640   6.878   1.611   2.019  0.4030 -0.8948  0.3316
 8892TIP3    H226641   6.836   1.650   1.879 -0.4086 -0.1567  0.7740
 8893TIP3   OH226642   2.598   2.068   5.602  0.1676 -0.0047  0.0268
 8893TIP3    H126643   2.613   2.139   5.541 -0.7357 -0.3138 -0.5750
 8893TIP3    H226644   2.584   1.991   5.547 -1.3843 -0.1539  0.5524
 8894TIP3   OH226645   5.989   6.704   5.250 -0.1370  0.1243  0.4690
 8894TIP3    H126646   6.030   6.722   5.334 -0.1538 -0.4994  0.6156
 8894TIP3    H226647   5.978   6.609   5.248 -0.9737  0.2193  0.1535
 8895TIP3   OH226648   6.971   0.528   2.334  0.3219  0.3235 -0.0294
 8895TIP3    H126649   6.919   0.448   2.335  1.2445 -0.3915  3.5808
 8895TIP3    H226650   6.913   0.596   2.367 -0.0681  0.9509 -1.8759
 8896TIP3   OH226651   5.893   4.451   1.371  0.5254  0.1194 -0.2488
 8896TIP3    H126652   5.817   4.393   1.379  0.5746 -0.1299 -1.4465
 8896TIP3    H226653   5.856   4.533   1.337  0.6814  0.2703 -0.0567
 8897TIP3   OH226654   2.380   3.793   0.373 -0.0138 -0.1478 -0.3953
 8897TIP3    H126655   2.444   3.759   0.310  0.9105  0.6857  0.0659
 8897TIP3    H226656   2.433   3.840   0.437 -0.8922 -1.3482  1.2658
 8898TIP3   OH226657   3.970   6.246   1.486  0.4003 -0.0509 -0.1787
 8898TIP3    H126658   3.945   6.319   1.542 -0.6946 -0.4375 -0.1354
 8898TIP3    H226659   4.045   6.206   1.531 -0.4945 -0.3903  1.0569
 8899TIP3   OH226660   5.402   4.503   0.714  0.3534 -0.8092 -0.2841
 8899TIP3    H126661   5.442   4.467   0.635  2.6959  1.7188 -0.4226
 8899TIP3    H226662   5.324   4.450   0.728  0.2587 -1.8687 -3.8246
 8900TIP3   OH226663   0.757   1.228   5.348  0.0642 -0.3398 -0.1734
 8900TIP3    H126664   0.807   1.171   5.407  1.5091  0.8234 -0.1943
 8900TIP3    H226665   0.760   1.185   5.263  0.7622 -0.4623 -0.0925
 8901TIP3   OH226666   3.907   1.080   3.166 -0.6780 -0.4153 -0.3867
 8901TIP3    H126667   3.821   1.108   3.198 -0.6858 -1.2066  0.3360
 8901TIP3    H226668   3.964   1.155   3.181 -1.2688  0.1690 -1.0029
 8902TIP3   OH226669   4.629   5.434   1.617 -0.2983 -0.3446  0.2631
 8902TIP3    H126670   4.645   5.494   1.690  0.3857  0.1129 -0.2555
 8902TIP3    H226671   4.684   5.358   1.636  0.3342  0.0243 -0.0703
 8903TIP3   OH226672   1.620   5.351   5.221  0.2933 -0.0306  0.0296
 8903TIP3    H126673   1.639   5.430   5.170 -2.5529  0.0653 -1.0868
 8903TIP3    H226674   1.668   5.363   5.303 -0.2934  3.0715  0.0623
 8904TIP3   OH226675   4.208   5.762   1.041 -0.3616 -0.0101 -0.4164
 8904TIP3    H126676   4.152   5.786   0.967 -0.8689 -0.6782 -0.2578
 8904TIP3    H226677   4.179   5.674   1.065 -0.0288  0.1009  0.4132
 8905TIP3   OH226678   5.057   5.330   4.896  0.4443  0.3046  0.1609
 8905TIP3    H126679   5.133   5.294   4.942  1.3198  2.8324  0.8679
 8905TIP3    H226680   5.000   5.362   4.966  0.4353  1.6139 -0.4100
 8906TIP3   OH226681   2.250   2.048   2.182  0.0946  0.1249 -0.1019
 8906TIP3    H126682   2.250   2.132   2.137  0.2521  0.4512  0.4960
 8906TIP3    H226683   2.172   2.003   2.149 -0.3425  0.7621  0.0505
 8907TIP3   OH226684   0.733   3.301   4.569 -0.2436  0.0844 -0.0623
 8907TIP3    H126685   0.787   3.290   4.647 -0.3378 -1.8942 -0.2161
 8907TIP3    H226686   0.646   3.324   4.602 -0.3076 -0.8427  0.4567
 8908TIP3   OH226687   4.963   5.358   4.626  0.2495  0.1904 -0.0426
 8908TIP3    H126688   5.042   5.316   4.591 -1.4223 -1.9495 -1.5740
 8908TIP3    H226689   4.968   5.345   4.720  0.6282 -2.1357 -0.3148
 8909TIP3   OH226690   1.388   2.723   4.043 -1.0431 -0.3870 -0.2378
 8909TIP3    H126691   1.452   2.652   4.047  0.9522  1.2735 -1.2214
 8909TIP3    H226692   1.436   2.801   4.070 -3.3573  0.5423  1.5493
 8910TIP3   OH226693   0.915   0.199   4.893  0.3093 -0.5054  1.0450
 8910TIP3    H126694   0.840   0.231   4.842  0.9595  0.5045  0.6956
 8910TIP3    H226695   0.886   0.205   4.984  0.1149  0.3082  0.9389
 8911TIP3   OH226696   4.059   2.033   4.642 -0.8794 -0.4852 -0.6149
 8911TIP3    H126697   4.097   2.018   4.728  1.4337  0.1911 -1.4150
 8911TIP3    H226698   3.970   2.062   4.659 -0.6179 -0.7779  1.5163
 8912TIP3   OH226699   4.267   3.780   1.020 -0.2274 -0.2797  0.3737
 8912TIP3    H126700   4.225   3.832   0.951 -0.1640  0.0110  0.5532
 8912TIP3    H226701   4.194   3.749   1.074 -0.2777 -0.5137  0.1746
 8913TIP3   OH226702   6.541   6.639   0.990  0.1847  0.1124  0.5194
 8913TIP3    H126703   6.624   6.612   0.949  0.4352  0.0509  1.0646
 8913TIP3    H226704   6.484   6.563   0.979 -0.1829  0.5441 -0.8541
 8914TIP3   OH226705   2.128   6.644   5.376  0.0935 -0.0493  0.2923
 8914TIP3    H126706   2.048   6.618   5.423 -0.6533 -0.1186 -0.9571
 8914TIP3    H226707   2.140   6.575   5.311  0.2940  0.7417 -0.5309
 8915TIP3   OH226708   1.578   1.239   4.033  0.0386  0.1417 -0.2025
 8915TIP3    H126709   1.586   1.334   4.028  1.5356  0.0032 -0.9719
 8915TIP3    H226710   1.663   1.208   4.064 -0.5480 -0.9376  0.4233
 8916TIP3   OH226711   4.217   3.340   0.394  0.5406 -0.1051  0.4818
 8916TIP3    H126712   4.235   3.286   0.317  0.5581 -0.5174  0.7736
 8916TIP3    H226713   4.244   3.287   0.468 -0.5567 -0.1849  0.8449
 8917TIP3   OH226714   5.601   0.259   4.654  0.0343 -0.3774  0.5443
 8917TIP3    H126715   5.549   0.277   4.733  0.1448  0.9264  0.3377
 8917TIP3    H226716   5.650   0.340   4.638 -0.9868 -0.1003 -1.6113
 8918TIP3   OH226717   0.402   4.804   0.566  0.1778 -0.0706  0.1825
 8918TIP3    H126718   0.442   4.803   0.653  2.3800 -0.9034 -0.7569
 8918TIP3    H226719   0.464   4.853   0.512 -0.5327 -0.6077 -1.1634
 8919TIP3   OH226720   4.568   1.498   2.590  0.2610 -0.3670  0.1822
 8919TIP3    H126721   4.500   1.560   2.615 -2.3550 -1.6104 -3.0687
 8919TIP3    H226722   4.546   1.418   2.639  0.5933 -0.1751  0.6412
 8920TIP3   OH226723   6.020   6.449   0.174 -0.6253  0.6706  0.3128
 8920TIP3    H126724   5.979   6.432   0.089  2.0303 -0.0981 -0.9482
 8920TIP3    H226725   6.103   6.492   0.152  1.4170 -1.9041  2.2391
 8921TIP3   OH226726   0.619   6.503   3.993  0.1197  0.5751 -0.1255
 8921TIP3    H126727   0.591   6.540   4.076  0.4135  0.4045  0.0543
 8921TIP3    H226728   0.544   6.452   3.962  0.1209  0.3733  0.1969
 8922TIP3   OH226729   2.480   3.354   0.863  0.2190 -0.6624 -0.2497
 8922TIP3    H126730   2.417   3.390   0.925  2.6161  1.2555  1.2833
 8922TIP3    H226731   2.535   3.296   0.916  0.4227 -1.4365 -1.2872
 8923TIP3   OH226732   3.176   5.010   2.607 -0.1400 -0.1603  0.2859
 8923TIP3    H126733   3.109   5.034   2.543 -0.8509 -1.0496  0.6789
 8923TIP3    H226734   3.189   4.916   2.593 -0.7775 -0.5096  1.8738
 8924TIP3   OH226735   3.633   1.232   3.779 -0.1980 -0.1035 -0.0193
 8924TIP3    H126736   3.627   1.273   3.693  1.5209 -2.5139 -1.4278
 8924TIP3    H226737   3.572   1.158   3.775 -1.7154  0.9706  1.6975
 8925TIP3   OH226738   5.854   3.373   0.802 -0.0592  0.2886  0.2419
 8925TIP3    H126739   5.797   3.438   0.760  0.5594  0.4072 -0.4264
 8925TIP3    H226740   5.822   3.369   0.892 -2.2390 -0.9104 -0.5223
 8926TIP3   OH226741   4.549   6.139   1.671  0.1340 -0.3793  0.2965
 8926TIP3    H126742   4.547   6.127   1.576 -0.5861  0.8697  0.1327
 8926TIP3    H226743   4.564   6.051   1.706 -1.5673 -1.1874 -0.8898
 8927TIP3   OH226744   3.681   2.077   0.037 -0.1547  0.0222 -0.2150
 8927TIP3    H126745   3.610   2.117   0.088  0.7538  1.3460  0.0416
 8927TIP3    H226746   3.658   1.984   0.034 -0.8100  0.0865  1.6626
 8928TIP3   OH226747   4.819   5.279   2.467 -0.0209  0.2330  0.7407
 8928TIP3    H126748   4.733   5.304   2.433  0.7192  1.5241 -0.2853
 8928TIP3    H226749   4.807   5.274   2.562 -1.9285 -2.5703  0.4963
 8929TIP3   OH226750   1.644   3.575   2.284  0.5839  0.4819 -0.2259
 8929TIP3    H126751   1.686   3.511   2.341  1.2517 -0.2915 -1.5493
 8929TIP3    H226752   1.590   3.522   2.225 -0.9626  1.3426  0.3538
 8930TIP3   OH226753   5.149   4.386   0.735 -0.3888  0.1308  0.2277
 8930TIP3    H126754   5.090   4.331   0.786  0.5711 -2.6605 -1.3996
 8930TIP3    H226755   5.092   4.437   0.678 -1.3132  0.8163  1.7099
 8931TIP3   OH226756   0.530   5.499   4.622  0.0441  0.5191  0.2577
 8931TIP3    H126757   0.492   5.525   4.538 -1.4870 -1.7785  0.1461
 8931TIP3    H226758   0.621   5.476   4.601 -0.2553  0.1978 -0.7237
 8932TIP3   OH226759   3.536   2.941   2.120  0.4159 -0.2472  0.0859
 8932TIP3    H126760   3.464   2.914   2.063  0.7823  0.5983 -0.8098
 8932TIP3    H226761   3.611   2.890   2.089  0.4049 -0.4721  0.4285
 8933TIP3   OH226762   4.405   0.063   1.358  0.7547 -0.0447  0.7326
 8933TIP3    H126763   4.409   0.151   1.322  1.5140 -0.1628  0.4943
 8933TIP3    H226764   4.470   0.014   1.308 -1.3372 -1.3922 -0.8342
 8934TIP3   OH226765   5.583   2.509   4.954 -0.5045  0.3749 -0.0349
 8934TIP3    H126766   5.541   2.582   4.907  0.7788  1.2941  0.1861
 8934TIP3    H226767   5.592   2.540   5.044  0.6325  0.2043 -0.0790
 8935TIP3   OH226768   3.133   1.162   1.869  0.0415  0.2492  0.5240
 8935TIP3    H126769   3.106   1.254   1.867  1.7062  0.7581  0.5344
 8935TIP3    H226770   3.204   1.159   1.933 -0.5452 -1.2276  1.1673
 8936TIP3   OH226771   4.832   2.520   1.184 -0.1076  0.0976 -0.3161
 8936TIP3    H126772   4.883   2.592   1.147 -0.1778 -0.1858 -0.9928
 8936TIP3    H226773   4.897   2.465   1.228  0.2889 -0.5549 -1.6488
 8937TIP3   OH226774   0.912   1.318   2.996 -0.4550  0.1977  0.4283
 8937TIP3    H126775   0.875   1.397   3.036 -0.5767  0.5076 -0.2832
 8937TIP3    H226776   0.948   1.348   2.912  0.7386 -0.2401  0.7570
 8938TIP3   OH226777   1.490   5.620   2.474 -0.1036 -0.2456  0.4291
 8938TIP3    H126778   1.484   5.601   2.380  0.0183  1.6029  0.0180
 8938TIP3    H226779   1.563   5.682   2.481 -0.9153  0.6106  1.5693
 8939TIP3   OH226780   2.907   6.007   5.200 -0.0733  0.2740  0.6362
 8939TIP3    H126781   2.888   6.040   5.287  2.8724 -2.0224  2.3648
 8939TIP3    H226782   2.910   5.912   5.211  0.3923 -0.0852 -1.9824
 8940TIP3   OH226783   5.910   4.065   0.162 -0.4378  0.3462 -0.1631
 8940TIP3    H126784   5.830   4.089   0.208  1.0077  1.0264  2.1863
 8940TIP3    H226785   5.980   4.083   0.225  1.5975 -0.0030 -2.1884
 8941TIP3   OH226786   2.622   5.149   1.883 -0.4223  0.7299  0.2258
 8941TIP3    H126787   2.673   5.104   1.951  0.8908  0.8643 -0.6398
 8941TIP3    H226788   2.533   5.153   1.919  0.2186  0.7417  1.9036
 8942TIP3   OH226789   1.088   5.404   1.107  0.0390 -0.1271 -0.1018
 8942TIP3    H126790   1.026   5.345   1.065 -1.3043  0.5569  0.8678
 8942TIP3    H226791   1.172   5.358   1.101 -0.7789 -1.6462 -0.3177
 8943TIP3   OH226792   5.539   5.109   1.187  0.3355 -0.3814 -0.2378
 8943TIP3    H126793   5.554   5.160   1.266  1.1800  0.2899 -0.8116
 8943TIP3    H226794   5.476   5.042   1.213 -2.5668  2.2309  0.0413
 8944TIP3   OH226795   1.616   1.984   4.230  0.2497  0.0119 -0.8382
 8944TIP3    H126796   1.613   1.955   4.322  0.6292 -0.3002 -0.9200
 8944TIP3    H226797   1.524   1.995   4.206  0.1622  0.6756 -0.2437
 8945TIP3   OH226798   2.619   4.714   5.540 -0.8225 -0.3891  0.5406
 8945TIP3    H126799   2.586   4.739   5.454 -1.5584  1.2793  1.2716
 8945TIP3    H226800   2.699   4.665   5.521 -0.5317  0.6250 -1.0733
 8946TIP3   OH226801   5.029   3.768   1.186  0.6175  0.0592 -0.0512
 8946TIP3    H126802   5.066   3.742   1.270 -0.5197  0.3579  0.5504
 8946TIP3    H226803   4.962   3.832   1.207 -1.2298 -1.4610 -0.9714
 8947TIP3   OH226804   2.518   3.561   3.367 -0.0181  0.0235 -0.0049
 8947TIP3    H126805   2.518   3.469   3.340 -1.1096 -0.3704  1.2766
 8947TIP3    H226806   2.438   3.598   3.328  1.0062  0.7708 -1.5078
 8948TIP3   OH226807   2.287   4.836   2.703 -0.4280  0.5078  0.6631
 8948TIP3    H126808   2.282   4.761   2.762 -1.6500 -1.1328 -1.4216
 8948TIP3    H226809   2.197   4.865   2.692 -0.7743 -1.3987 -2.9279
 8949TIP3   OH226810   0.221   5.759   2.793  0.0014 -0.5065  0.1964
 8949TIP3    H126811   0.181   5.845   2.783  2.4150  0.6032 -0.7302
 8949TIP3    H226812   0.201   5.733   2.883 -0.8499  0.9823  0.4612
 8950TIP3   OH226813   2.913   2.181   4.926  0.1095  0.1191 -0.2123
 8950TIP3    H126814   2.965   2.252   4.964  0.9775 -0.6737  0.1114
 8950TIP3    H226815   2.972   2.141   4.862 -0.7032  0.2778 -1.0741
 8951TIP3   OH226816   7.128   2.732   0.316  0.3617  0.2270 -0.5583
 8951TIP3    H126817   7.168   2.669   0.376 -1.0264  0.7982  1.0622
 8951TIP3    H226818   7.196   2.797   0.300  0.2058  1.2238  2.2027
 8952TIP3   OH226819   2.849   2.027   0.121 -0.1864  0.1384 -1.2314
 8952TIP3    H126820   2.772   2.082   0.126 -1.0689 -1.1174 -0.0462
 8952TIP3    H226821   2.913   2.068   0.179 -1.1810 -0.5412  0.4120
 8953TIP3   OH226822   5.320   5.190   5.643 -0.2056 -0.5223  0.0068
 8953TIP3    H126823   5.331   5.150   5.729  1.1106  1.2766  0.7387
 8953TIP3    H226824   5.395   5.158   5.592  0.9384  0.9866  0.6418
 8954TIP3   OH226825   5.974   1.983   1.507  0.0654 -0.3034  0.1537
 8954TIP3    H126826   6.034   1.947   1.442  0.5103  0.3816  0.1681
 8954TIP3    H226827   5.910   2.033   1.457  0.1035 -0.2038  0.2033
 8955TIP3   OH226828   6.329   3.606   1.063  0.4452 -0.0779 -0.4993
 8955TIP3    H126829   6.265   3.654   1.116  0.4722 -0.2633 -0.2968
 8955TIP3    H226830   6.400   3.669   1.050 -0.3202  0.5709 -1.8034
 8956TIP3   OH226831   1.338   1.392   1.889  0.6915 -0.2084 -0.1126
 8956TIP3    H126832   1.271   1.388   1.822  1.3272 -1.3455 -0.7082
 8956TIP3    H226833   1.292   1.370   1.970 -0.2209  1.8308 -0.0163
 8957TIP3   OH226834   6.204   5.503   3.529  0.4629 -0.9062  0.3006
 8957TIP3    H126835   6.246   5.570   3.475 -0.9631 -0.9165 -0.9024
 8957TIP3    H226836   6.159   5.552   3.597  1.2391 -0.8029  0.7445
 8958TIP3   OH226837   2.498   3.065   3.083  0.5511  0.3463 -0.3647
 8958TIP3    H126838   2.477   3.064   2.990  2.3707 -1.2216 -0.8273
 8958TIP3    H226839   2.580   3.016   3.090  0.7407  0.8563  2.0085
 8959TIP3   OH226840   2.786   5.507   4.743  0.2731 -0.4495  0.2269
 8959TIP3    H126841   2.733   5.581   4.712 -2.0867 -1.6933  1.0720
 8959TIP3    H226842   2.787   5.517   4.838  0.7235 -1.0288  0.2899
 8960TIP3   OH226843   2.521   2.068   4.547  0.1550  0.4937 -0.6830
 8960TIP3    H126844   2.485   2.056   4.634 -0.1483  0.9490 -0.7439
 8960TIP3    H226845   2.600   2.121   4.561  0.0117  0.7127 -0.7035
 8961TIP3   OH226846   6.011   5.173   2.697 -0.0845 -0.7715  0.1214
 8961TIP3    H126847   5.947   5.240   2.678  0.4215 -0.0821  0.7885
 8961TIP3    H226848   6.095   5.218   2.694  0.2824 -1.4187  0.3488
 8962TIP3   OH226849   4.176   4.916   1.457 -0.0912 -0.4576  0.6986
 8962TIP3    H126850   4.116   4.988   1.438 -0.5665 -0.3373  2.4667
 8962TIP3    H226851   4.122   4.837   1.447  0.0274 -0.4829  0.2379
 8963TIP3   OH226852   6.144   6.560   4.887  0.3704  0.1841  0.4409
 8963TIP3    H126853   6.081   6.488   4.889 -0.0151  0.5003 -0.1112
 8963TIP3    H226854   6.102   6.630   4.937 -0.0007  0.6204 -0.4731
 8964TIP3   OH226855   3.325   4.745   2.731 -0.7360  1.0915 -0.3131
 8964TIP3    H126856   3.389   4.690   2.686 -2.4496 -0.4892 -0.9329
 8964TIP3    H226857   3.376   4.818   2.765  1.6104 -0.7078  0.2878
 8965TIP3   OH226858   3.050   3.892   4.280 -0.1007 -0.5547  0.7654
 8965TIP3    H126859   3.041   3.904   4.186  0.8784 -0.7280  0.6368
 8965TIP3    H226860   3.139   3.857   4.291 -0.7732 -2.0603  1.6236
 8966TIP3   OH226861   0.777   6.569   2.379 -0.1547  0.2918  0.3787
 8966TIP3    H126862   0.753   6.478   2.393  0.7976 -0.3596 -1.7934
 8966TIP3    H226863   0.825   6.594   2.458  0.6993 -1.5166  0.4671
 8967TIP3   OH226864   7.163   3.495   2.702 -0.2637 -0.1488  0.3027
 8967TIP3    H126865   7.163   3.558   2.774 -0.5121 -2.0511  2.0642
 8967TIP3    H226866   7.080   3.509   2.657  0.4945  1.9966 -0.5239
 8968TIP3   OH226867   3.971   5.922   1.507 -0.1770 -0.2670  0.2359
 8968TIP3    H126868   4.033   5.978   1.459 -0.6834  0.8921  0.8988
 8968TIP3    H226869   3.912   5.983   1.551  1.1602 -1.1990  3.6161
 8969TIP3   OH226870   6.289   0.459   1.526  0.1555  0.1291 -0.0220
 8969TIP3    H126871   6.244   0.498   1.601 -1.3106  1.7573 -1.6283
 8969TIP3    H226872   6.380   0.485   1.536  0.0349  0.1035  1.3045
 8970TIP3   OH226873   5.669   2.614   4.464 -0.3399  0.0834 -0.1629
 8970TIP3    H126874   5.580   2.590   4.490  0.5772 -1.9637  1.2830
 8970TIP3    H226875   5.685   2.565   4.383 -0.3662  0.1702 -0.2221
 8971TIP3   OH226876   0.926   5.851   2.623  0.2868 -0.1917  0.9840
 8971TIP3    H126877   0.880   5.873   2.704 -1.4774  0.6095 -0.1811
 8971TIP3    H226878   0.966   5.766   2.641  0.8762  0.4581  3.0500
 8972TIP3   OH226879   2.493   3.442   0.259  0.1940  0.5202  0.4818
 8972TIP3    H126880   2.583   3.444   0.291  0.3124  0.9296  0.1168
 8972TIP3    H226881   2.441   3.467   0.335  0.3530 -0.0525  0.7933
 8973TIP3   OH226882   0.767   4.594   4.811  0.2479 -0.6245 -0.0211
 8973TIP3    H126883   0.840   4.614   4.752 -1.3210 -0.1431 -1.9097
 8973TIP3    H226884   0.762   4.499   4.812 -0.6267 -0.6389 -1.9491
 8974TIP3   OH226885   6.657   1.004   2.986 -0.3811  0.3538  0.2814
 8974TIP3    H126886   6.709   1.057   3.046  0.3906 -0.0494 -0.0251
 8974TIP3    H226887   6.595   1.067   2.947 -1.1735  0.5402  1.7660
 8975TIP3   OH226888   2.160   1.333   1.069  0.2661 -0.2317  0.6549
 8975TIP3    H126889   2.184   1.260   1.125  0.8231 -0.5844 -0.0165
 8975TIP3    H226890   2.188   1.306   0.981  1.3486  1.1550  0.5336
 8976TIP3   OH226891   1.948   4.360   1.075 -0.1496  0.3321 -0.5142
 8976TIP3    H126892   1.964   4.267   1.088  2.2689  0.8235  0.6453
 8976TIP3    H226893   1.913   4.391   1.158 -1.7895  0.3654 -1.1699
 8977TIP3   OH226894   3.021   1.189   0.073 -0.8491  0.0640  0.0913
 8977TIP3    H126895   3.080   1.188  -0.003  0.2518  1.9262  0.8712
 8977TIP3    H226896   3.046   1.111   0.123 -0.8594 -0.5867 -0.8704
 8978TIP3   OH226897   5.428   1.387   0.387 -0.0069  0.3466 -0.1227
 8978TIP3    H126898   5.473   1.433   0.316  1.0222 -1.7434 -0.9071
 8978TIP3    H226899   5.343   1.362   0.349 -0.1049  0.6015 -0.0740
 8979TIP3   OH226900   4.166   3.176   1.373  0.2236  0.1212 -0.2517
 8979TIP3    H126901   4.094   3.237   1.355 -0.8197 -0.9455  0.1350
 8979TIP3    H226902   4.245   3.224   1.350 -0.3464  2.5311  2.3109
 8980TIP3   OH226903   3.077   2.405   0.697  0.3572 -0.5392  0.0735
 8980TIP3    H126904   3.094   2.442   0.611 -0.5329  0.7591  0.4304
 8980TIP3    H226905   3.103   2.313   0.689 -0.5612 -0.6881 -1.8471
 8981TIP3   OH226906   1.919   6.414   0.639 -0.0034  0.1059 -0.0295
 8981TIP3    H126907   1.961   6.453   0.563 -0.8445 -1.2023 -1.2085
 8981TIP3    H226908   1.829   6.447   0.637 -0.7269 -1.7634 -1.0369
 8982TIP3   OH226909   4.055   4.707   1.824 -0.5717  0.5213 -0.2273
 8982TIP3    H126910   4.063   4.763   1.901  0.1239  0.0778  0.0341
 8982TIP3    H226911   4.141   4.712   1.782 -0.6894  0.1168 -0.5231
 8983TIP3   OH226912   5.611   4.448   1.107 -0.3525  0.2095 -0.6659
 8983TIP3    H126913   5.700   4.434   1.075  0.0604 -1.0320  0.8959
 8983TIP3    H226914   5.605   4.542   1.121  0.0204  0.5721 -2.5980
 8984TIP3   OH226915   2.118   0.321   1.271  0.1295  0.1258  0.3036
 8984TIP3    H126916   2.172   0.377   1.327  0.2835  0.1959  0.0876
 8984TIP3    H226917   2.166   0.239   1.264 -0.7540 -0.5542  1.7490
 8985TIP3   OH226918   3.519   3.731   4.256 -0.2692 -0.0695  0.2194
 8985TIP3    H126919   3.531   3.662   4.322 -0.9697 -1.0625 -0.6628
 8985TIP3    H226920   3.559   3.696   4.177  0.4382  1.0577  0.0597
 8986TIP3   OH226921   0.217   1.717   2.005  0.1139  0.2700  0.2174
 8986TIP3    H126922   0.270   1.646   2.042  0.2632 -0.3723 -1.1382
 8986TIP3    H226923   0.127   1.686   2.012  0.0341  0.6998  1.1584
 8987TIP3   OH226924   3.546   1.488   3.852  0.2258  1.1369  0.0946
 8987TIP3    H126925   3.571   1.398   3.873  1.8429  0.8922 -2.4514
 8987TIP3    H226926   3.451   1.491   3.867 -0.2421 -1.6151 -1.7110
 8988TIP3   OH226927   1.889   5.590   2.726  0.4952 -0.0386  0.0513
 8988TIP3    H126928   1.901   5.655   2.657  1.0233  0.0229  0.1990
 8988TIP3    H226929   1.816   5.536   2.695 -0.2148  0.8536  0.1118
 8989TIP3   OH226930   1.560   6.492   3.769 -0.1854 -0.0115  0.0758
 8989TIP3    H126931   1.492   6.471   3.832 -2.4023  1.8854 -1.4770
 8989TIP3    H226932   1.605   6.409   3.752 -2.1359 -1.3497  1.1539
 8990TIP3   OH226933   4.885   2.599   5.024  0.0954 -0.4897  0.3865
 8990TIP3    H126934   4.903   2.691   5.005  0.9540 -0.3049  1.9640
 8990TIP3    H226935   4.842   2.600   5.110 -0.0934 -1.5497  0.3185
 8991TIP3   OH226936   4.724   0.410   0.395 -0.2672 -0.0685 -0.0497
 8991TIP3    H126937   4.706   0.498   0.428  1.4690  0.1306  0.4816
 8991TIP3    H226938   4.647   0.387   0.342 -0.9660  1.5506  0.2248
 8992TIP3   OH226939   4.276   5.617   5.647 -0.0728  0.5318  0.1902
 8992TIP3    H126940   4.247   5.643   5.735  0.0737 -0.8094  0.6632
 8992TIP3    H226941   4.371   5.631   5.648  0.4236 -2.1884  1.3218
 8993TIP3   OH226942   1.294   5.488   4.700 -0.4599  0.4153 -0.3042
 8993TIP3    H126943   1.355   5.456   4.767  1.2572  0.8902 -1.5699
 8993TIP3    H226944   1.207   5.472   4.737  0.4055  1.3535  2.3699
 8994TIP3   OH226945   2.047   3.253   0.712  0.0759  1.0563  0.6932
 8994TIP3    H126946   1.999   3.321   0.664  0.2849  0.4470 -0.4189
 8994TIP3    H226947   2.139   3.267   0.688  0.0239 -0.2414 -0.4181
 8995TIP3   OH226948   4.890   1.039   1.495 -0.2150 -0.2115  0.4425
 8995TIP3    H126949   4.857   0.993   1.572  0.4607 -1.3500  0.0631
 8995TIP3    H226950   4.817   1.036   1.432  0.6031 -2.9928 -0.5102
 8996TIP3   OH226951   0.397   5.693   0.736  0.4583  0.2182 -0.2247
 8996TIP3    H126952   0.425   5.622   0.794 -0.2017 -0.7954 -1.1101
 8996TIP3    H226953   0.381   5.650   0.652  0.7700  1.5513 -0.9865
 8997TIP3   OH226954   6.322   4.326   1.254  0.8146 -0.2397  0.1948
 8997TIP3    H126955   6.294   4.293   1.169 -2.2367 -3.5633  2.2474
 8997TIP3    H226956   6.253   4.388   1.279  1.2895  0.1236  0.6239
 8998TIP3   OH226957   1.548   4.558   4.099 -0.4761 -0.3246 -0.3703
 8998TIP3    H126958   1.507   4.571   4.013 -0.5334  1.5492 -0.1004
 8998TIP3    H226959   1.480   4.580   4.162  0.1036  0.0477  0.1282
 8999TIP3   OH226960   1.597   3.491   0.098  0.1038  0.4979  0.3898
 8999TIP3    H126961   1.691   3.503   0.083  0.5695  0.1606  2.6783
 8999TIP3    H226962   1.573   3.417   0.042  1.5623 -0.3893  0.8755
 9000TIP3   OH226963   6.132   3.975   2.523 -0.3246  0.4291 -0.1233
 9000TIP3    H126964   6.121   4.033   2.448 -1.3605  0.5818  0.1266
 9000TIP3    H226965   6.098   3.891   2.493  0.0476  0.2671 -0.0943
 9001TIP3   OH226966   1.817   0.814   3.096  0.2305 -0.7405 -0.1883
 9001TIP3    H126967   1.821   0.893   3.042  0.3061 -0.1456  0.6685
 9001TIP3    H226968   1.723   0.798   3.106  0.2158 -0.9475 -0.6192
 9002TIP3   OH226969   6.147   4.937   1.781 -0.5868 -0.2284 -0.4676
 9002TIP3    H126970   6.136   5.009   1.719  3.0332 -0.6157 -1.8450
 9002TIP3    H226971   6.171   4.980   1.864 -1.5486  0.1799 -0.3865
 9003TIP3   OH226972   4.938   1.326   1.587 -0.3740 -0.2820  0.1036
 9003TIP3    H126973   4.968   1.331   1.496  0.0368  0.6294  0.2762
 9003TIP3    H226974   4.910   1.235   1.597  1.4708 -0.9675 -0.3604
 9004TIP3   OH226975   7.094   1.394   1.291 -0.5615  0.5425 -0.2755
 9004TIP3    H126976   7.184   1.425   1.282 -0.1109 -1.0671 -2.0137
 9004TIP3    H226977   7.072   1.360   1.204 -2.5299  0.0512  0.3660
 9005TIP3   OH226978   4.083   5.214   4.556  0.5553  0.4344 -0.1362
 9005TIP3    H126979   4.079   5.286   4.618  0.0105 -0.8651  1.4215
 9005TIP3    H226980   4.164   5.228   4.506  0.1133  2.4382 -0.3442
 9006TIP3   OH226981   2.657   1.221   2.820 -0.1874  0.4702  0.5996
 9006TIP3    H126982   2.655   1.139   2.870  5.6499 -1.6919 -1.7408
 9006TIP3    H226983   2.618   1.199   2.735  0.6166  0.2673  0.2657
 9007TIP3   OH226984   5.735   0.926   5.293  0.0712  0.1394  0.5887
 9007TIP3    H126985   5.794   0.988   5.250  0.1633  0.7942  1.6370
 9007TIP3    H226986   5.674   0.900   5.223  0.4877  0.8424 -0.0569
 9008TIP3   OH226987   6.453   5.800   1.399  0.0983  0.3019  0.3223
 9008TIP3    H126988   6.459   5.756   1.484  0.5674 -0.5953 -0.1617
 9008TIP3    H226989   6.389   5.748   1.350  0.4135  0.3623 -0.1482
 9009TIP3   OH226990   2.777   5.506   2.443 -0.0291  0.0853 -0.5541
 9009TIP3    H126991   2.685   5.508   2.418 -0.2631 -0.7819  0.2079
 9009TIP3    H226992   2.825   5.517   2.361 -0.7849  3.8153 -0.6700
 9010TIP3   OH226993   6.350   3.109   2.050  0.1436 -0.4403  0.9938
 9010TIP3    H126994   6.372   3.062   1.969 -1.0440  0.6866 -0.0323
 9010TIP3    H226995   6.430   3.108   2.101  0.5627 -2.3052  0.3852
 9011TIP3   OH226996   0.038   4.129   4.449  0.3789  0.2869  0.1247
 9011TIP3    H126997   0.058   4.206   4.502 -0.3999 -0.3039  1.3375
 9011TIP3    H226998   0.078   4.146   4.365  0.6230  1.8119  0.5242
 9012TIP3   OH226999   0.842   4.683   2.813  0.3998  0.4853  0.0683
 9012TIP3    H127000   0.793   4.646   2.886  0.4187 -1.2801 -0.7751
 9012TIP3    H227001   0.817   4.776   2.812 -0.9695  0.1616  1.1933
 9013TIP3   OH227002   6.930   4.293   2.557  0.6010 -0.0128 -0.3655
 9013TIP3    H127003   6.929   4.333   2.470 -0.2072 -0.9128 -0.7882
 9013TIP3    H227004   7.019   4.308   2.589  0.7960  0.6777 -1.1748
 9014TIP3   OH227005   2.740   4.108   3.089  0.1619 -0.0845 -0.0138
 9014TIP3    H127006   2.751   4.018   3.122  0.3079  0.2495  0.8852
 9014TIP3    H227007   2.737   4.098   2.994 -1.5714 -1.2285  0.1211
 9015TIP3   OH227008   3.680   5.041   1.999  0.0517  0.7497  0.1521
 9015TIP3    H127009   3.685   4.946   1.991  0.4733  0.6516  1.3858
 9015TIP3    H227010   3.762   5.073   1.961  0.2540  0.5656  0.4304
 9016TIP3   OH227011   5.767   2.993   5.704 -0.0254  0.2155  0.2927
 9016TIP3    H127012   5.833   3.057   5.732 -1.2187  1.3948  0.5044
 9016TIP3    H227013   5.779   2.987   5.609  1.4868 -0.8902  0.5078
 9017TIP3   OH227014   3.530   5.970   1.188 -0.3086  0.1800 -0.5967
 9017TIP3    H127015   3.552   6.030   1.117  1.2855  1.5144  0.9262
 9017TIP3    H227016   3.515   6.026   1.264 -1.9388 -1.2027  0.1649
 9018TIP3   OH227017   6.965   3.008   5.286  0.2047  0.3599 -0.0124
 9018TIP3    H127018   6.920   2.924   5.291 -0.5976  0.6754 -1.2883
 9018TIP3    H227019   7.011   3.016   5.369  0.4550 -1.4147  0.0652
 9019TIP3   OH227020   1.785   4.099   2.252 -0.3141  0.2015  0.1754
 9019TIP3    H127021   1.823   4.012   2.238  0.4203  0.3535  1.1331
 9019TIP3    H227022   1.765   4.130   2.164  0.9585 -0.2597 -0.3129
 9020TIP3   OH227023   2.306   0.477   0.867  0.5312  0.0700  0.3791
 9020TIP3    H127024   2.336   0.433   0.788  0.4507 -1.0872  0.9796
 9020TIP3    H227025   2.334   0.420   0.939 -3.6653 -1.5414  0.9793
 9021TIP3   OH227026   1.666   2.067   0.087  0.0400 -0.2079 -0.1253
 9021TIP3    H127027   1.721   2.145   0.077 -0.9447  0.2003 -3.7952
 9021TIP3    H227028   1.595   2.095   0.145  0.7309  1.0021  0.1706
 9022TIP3   OH227029   6.237   3.969   3.706  0.0282 -0.1990 -0.0762
 9022TIP3    H127030   6.331   3.958   3.698  0.3413  0.6387  1.8874
 9022TIP3    H227031   6.201   3.885   3.676  1.4363 -0.7930 -0.1841
 9023TIP3   OH227032   2.471   4.409   4.437 -0.2679 -0.2114 -0.1846
 9023TIP3    H127033   2.560   4.427   4.466  0.2478 -1.2036 -1.0898
 9023TIP3    H227034   2.434   4.355   4.506 -0.1492  0.1312  0.1523
 9024TIP3   OH227035   3.091   5.772   0.815 -0.0365 -0.2003  0.2450
 9024TIP3    H127036   3.058   5.854   0.853  0.7540 -0.0848  0.6860
 9024TIP3    H227037   3.014   5.715   0.811 -0.4738  0.3642  0.4572
 9025TIP3   OH227038   5.378   2.205   0.806  0.0230  0.2452  0.0980
 9025TIP3    H127039   5.369   2.185   0.899 -1.3861  1.0553  0.1572
 9025TIP3    H227040   5.404   2.297   0.803 -1.5522  0.7190 -0.2957
 9026TIP3   OH227041   1.482   6.098   4.611  0.2494  0.2681  0.4328
 9026TIP3    H127042   1.454   6.008   4.626  0.1501  0.1517 -0.3939
 9026TIP3    H227043   1.516   6.098   4.521 -0.4712  1.2201  0.1388
 9027TIP3   OH227044   6.209   3.820   5.258 -0.0564  0.6612 -0.1813
 9027TIP3    H127045   6.256   3.782   5.184  0.6007  0.2720  0.4260
 9027TIP3    H227046   6.179   3.905   5.227 -0.4411  0.1938 -1.1406
 9028TIP3   OH227047   5.527   0.397   3.985  0.7159 -0.5330  0.0201
 9028TIP3    H127048   5.546   0.432   4.071 -0.4616 -0.7723  0.3970
 9028TIP3    H227049   5.566   0.459   3.924 -1.8918  1.9197  0.6318
 9029TIP3   OH227050   5.335   1.839   0.042  0.0753 -0.2888 -0.4056
 9029TIP3    H127051   5.295   1.924   0.062  0.4058 -0.3055  0.3590
 9029TIP3    H227052   5.368   1.849  -0.047 -0.2175  0.2567 -0.4634
 9030TIP3   OH227053   6.365   4.867   4.597 -0.5278 -0.2025  0.5838
 9030TIP3    H127054   6.327   4.929   4.659  0.6380  2.7304 -1.3871
 9030TIP3    H227055   6.439   4.829   4.644 -0.8762  0.3858  1.6511
 9031TIP3   OH227056   1.876   1.318   0.892  0.6179  0.1148  0.0907
 9031TIP3    H127057   1.939   1.390   0.883  1.4632 -0.5069  0.8655
 9031TIP3    H227058   1.853   1.296   0.801  0.1627  1.4935 -0.1579
 9032TIP3   OH227059   6.787   1.884   0.950  0.8036  0.6622 -0.2777
 9032TIP3    H127060   6.727   1.937   1.002  0.0482 -0.1653 -0.2872
 9032TIP3    H227061   6.834   1.832   1.015  1.3369  1.1137 -0.2908
 9033TIP3   OH227062   4.060   5.857   1.760  1.2127  0.0054 -0.6290
 9033TIP3    H127063   4.056   5.947   1.791  1.2578 -0.2008  0.0076
 9033TIP3    H227064   3.987   5.849   1.699 -0.9648 -0.4263  1.8217
 9034TIP3   OH227065   0.688   0.641   4.978  0.4393 -0.4271  0.9010
 9034TIP3    H127066   0.663   0.598   4.896  1.9828  3.7031 -2.1041
 9034TIP3    H227067   0.768   0.597   5.005  0.2112 -1.5020 -0.1023
 9035TIP3   OH227068   5.178   4.442   0.105  0.6930  0.0179  0.2970
 9035TIP3    H127069   5.092   4.455   0.064  0.1363 -0.1191  1.3692
 9035TIP3    H227070   5.214   4.364   0.062 -0.0744 -0.3987  0.3851
 9036TIP3   OH227071   6.344   6.811   3.864 -0.1534  0.0116  0.0165
 9036TIP3    H127072   6.435   6.825   3.838 -0.0626 -0.0633  0.2900
 9036TIP3    H227073   6.339   6.717   3.882 -0.3330 -0.0170 -0.1857
 9037TIP3   OH227074   7.051   4.183   1.266  0.1684  0.0426  0.6017
 9037TIP3    H127075   7.091   4.270   1.276 -0.2580  0.2372  0.6601
 9037TIP3    H227076   7.118   4.122   1.295  1.1130  0.2392 -1.0224
 9038TIP3   OH227077   4.251  -0.024   2.447 -0.1606 -0.0053  0.0346
 9038TIP3    H127078   4.155  -0.016   2.448 -0.1709  0.1491 -1.1499
 9038TIP3    H227079   4.281   0.043   2.508 -0.8153 -0.1893  0.5696
 9039TIP3   OH227080   2.675   5.621   0.556  0.3486  0.3161 -0.5354
 9039TIP3    H127081   2.587   5.591   0.580  0.1341  2.4861  1.8392
 9039TIP3    H227082   2.666   5.649   0.464 -1.2220 -0.2394 -0.5908
 9040TIP3   OH227083   6.770   2.910   5.779  0.0793 -0.3881 -0.5164
 9040TIP3    H127084   6.766   2.885   5.687 -2.2392 -1.1125 -0.2783
 9040TIP3    H227085   6.723   2.994   5.783  0.4531 -0.1981 -0.0508
 9041TIP3   OH227086   3.808   2.091   2.683  0.0295 -0.4070  0.2973
 9041TIP3    H127087   3.852   2.112   2.765  0.1831  0.3611  0.0276
 9041TIP3    H227088   3.829   2.164   2.625 -0.8258 -0.4871 -0.1336
 9042TIP3   OH227089   2.434   4.502   2.005 -0.3639 -0.6199 -0.0551
 9042TIP3    H127090   2.495   4.549   2.061  0.9613  0.4018 -2.2173
 9042TIP3    H227091   2.425   4.416   2.046  1.5981 -0.3867  0.9833
 9043TIP3   OH227092   6.105   5.483   1.243  0.0259 -0.6297  0.4510
 9043TIP3    H127093   6.073   5.494   1.154  0.2909 -3.1605 -0.0516
 9043TIP3    H227094   6.163   5.557   1.258  0.0723 -0.2278 -1.5396
 9044TIP3   OH227095   7.053   2.881   0.879 -0.0669  0.0553  0.6813
 9044TIP3    H127096   7.143   2.909   0.899  0.2882  0.6998 -1.5025
 9044TIP3    H227097   7.058   2.850   0.788 -2.0248 -0.0195  0.5722
 9045TIP3   OH227098   0.739   2.130   1.903  0.3313 -0.1697  0.1869
 9045TIP3    H127099   0.671   2.069   1.929 -0.3612  0.3868 -0.2924
 9045TIP3    H227100   0.821   2.083   1.919 -0.1123 -0.4439  1.8182
 9046TIP3   OH227101   3.440   0.887   1.809  0.2663  0.3649  0.0667
 9046TIP3    H127102   3.536   0.882   1.806  0.5328  3.2413  1.2028
 9046TIP3    H227103   3.418   0.864   1.899 -0.0752  0.2237 -0.0516
 9047TIP3   OH227104   5.097   0.419   2.733 -0.3180  0.0538  0.2913
 9047TIP3    H127105   5.103   0.440   2.826 -0.8408 -1.2267  0.6408
 9047TIP3    H227106   5.145   0.489   2.689 -0.5955  1.0251  1.4761
 9048TIP3   OH227107   2.362   3.995   1.242  0.5914  0.0902  0.1539
 9048TIP3    H127108   2.446   4.040   1.235  0.0378  1.0728 -0.4730
 9048TIP3    H227109   2.335   3.980   1.152 -0.0244  0.0139  0.3469
 9049TIP3   OH227110   0.635   6.726   4.979  0.5276  0.2149  0.2880
 9049TIP3    H127111   0.666   6.720   4.888  0.8655  1.3396  0.3046
 9049TIP3    H227112   0.643   6.820   5.000 -3.2268  0.6981  0.1667
 9050TIP3   OH227113   3.565   5.707   3.515  0.4117 -0.2665  0.1576
 9050TIP3    H127114   3.597   5.791   3.481 -1.5501  0.3712 -0.2718
 9050TIP3    H227115   3.609   5.641   3.461  0.0839  0.6121 -1.2429
 9051TIP3   OH227116   0.773   2.807   1.050  0.5174  0.4649  0.1890
 9051TIP3    H127117   0.682   2.789   1.077 -0.0306  3.2597  0.5009
 9051TIP3    H227118   0.776   2.781   0.958  0.0333 -1.5248  0.6778
 9052TIP3   OH227119   2.957   2.422   1.836 -0.5316  0.1925 -0.0338
 9052TIP3    H127120   2.999   2.458   1.758 -0.3988  0.9512  0.3841
 9052TIP3    H227121   2.994   2.334   1.844  0.0794  0.4132 -0.3506
 9053TIP3   OH227122   6.787   6.126   3.876  0.0848 -0.4890  0.2095
 9053TIP3    H127123   6.802   6.192   3.809  2.4479 -1.3871 -0.2371
 9053TIP3    H227124   6.854   6.143   3.942  0.7958 -2.4049  0.0556
 9054TIP3   OH227125   6.016   6.535   2.414 -0.1113  0.3585 -0.5244
 9054TIP3    H127126   6.092   6.584   2.447 -0.6838  1.9218 -1.4680
 9054TIP3    H227127   5.986   6.485   2.490  0.2631  1.7649  0.5877
 9055TIP3   OH227128   2.951   4.733   3.647 -0.1476 -0.3288  0.1543
 9055TIP3    H127129   2.970   4.679   3.571  0.3627 -0.2250  0.2091
 9055TIP3    H227130   2.983   4.682   3.721 -0.1230 -0.1744  0.2505
 9056TIP3   OH227131   2.719   5.416   5.696  0.0447 -0.3958 -0.3260
 9056TIP3    H127132   2.699   5.352   5.765 -0.1215 -0.7412 -0.6876
 9056TIP3    H227133   2.637   5.465   5.685 -0.2365 -0.9860 -0.9446
 9057TIP3   OH227134   2.947   5.088   2.759  0.2266  0.3387 -0.0972
 9057TIP3    H127135   3.037   5.055   2.759 -0.7229 -2.4926 -0.8468
 9057TIP3    H227136   2.908   5.053   2.839 -0.6110  0.3378 -0.4893
 9058TIP3   OH227137   1.870   5.483   1.405 -0.1519 -0.1791 -0.0074
 9058TIP3    H127138   1.962   5.502   1.421 -0.1458  0.4262 -0.6790
 9058TIP3    H227139   1.838   5.445   1.486  0.7249 -0.5313  0.1779
 9059TIP3   OH227140   1.906   4.755   1.928 -0.1966 -0.0363 -0.4449
 9059TIP3    H127141   1.872   4.784   2.013  2.1600  0.4065  0.4172
 9059TIP3    H227142   1.923   4.662   1.940  1.3839  0.2960  0.0445
 9060TIP3   OH227143   0.188   5.237   3.215 -0.2946  0.2633  0.0225
 9060TIP3    H127144   0.111   5.181   3.210 -0.0548 -0.2402  1.4687
 9060TIP3    H227145   0.238   5.202   3.289  0.5468  1.5529  0.0924
 9061TIP3   OH227146   5.174   1.152   4.090  0.3592  0.0837 -0.0182
 9061TIP3    H127147   5.262   1.133   4.055  0.3940  0.1124  0.0535
 9061TIP3    H227148   5.114   1.111   4.027  0.4122  0.4657 -0.3240
 9062TIP3   OH227149   7.081   5.584   5.476  0.0538 -0.1191  0.6616
 9062TIP3    H127150   7.049   5.670   5.446  0.6981  0.7102  2.2058
 9062TIP3    H227151   7.164   5.572   5.430  0.9805  1.0837  1.9456
 9063TIP3   OH227152   2.380   3.082   0.343 -0.1110  0.4956 -0.2570
 9063TIP3    H127153   2.331   3.164   0.330  1.0168  1.1994 -0.1587
 9063TIP3    H227154   2.394   3.049   0.254 -1.4629 -0.1670 -0.2616
 9064TIP3   OH227155   1.869   6.339   2.257 -0.1393  0.1297  0.1477
 9064TIP3    H127156   1.923   6.374   2.186 -0.0596  0.6343  0.4547
 9064TIP3    H227157   1.785   6.318   2.216 -0.4183  1.3154  0.0920
 9065TIP3   OH227158   1.098   6.531   1.537  0.0566  0.2070  0.3462
 9065TIP3    H127159   1.020   6.524   1.591 -0.2932  0.0110 -0.1773
 9065TIP3    H227160   1.166   6.483   1.585 -0.0549  0.6511  0.9563
 9066TIP3   OH227161   0.757   4.312   0.565 -0.4216  0.4495 -0.5399
 9066TIP3    H127162   0.760   4.396   0.519  3.0281  0.5228 -0.4415
 9066TIP3    H227163   0.691   4.261   0.518 -0.5488  2.2271 -2.4182
 9067TIP3   OH227164   7.134   0.752   0.486 -0.1928  0.1101 -0.1142
 9067TIP3    H127165   7.206   0.699   0.452  0.5752  0.8704  0.2968
 9067TIP3    H227166   7.130   0.729   0.579  0.8963  1.5726  0.3285
 9068TIP3   OH227167   6.555   4.422   3.060  0.1227 -0.3219  0.6565
 9068TIP3    H127168   6.647   4.421   3.036 -0.5458  0.5508 -2.3859
 9068TIP3    H227169   6.518   4.343   3.020 -0.6099 -0.2101  1.0880
 9069TIP3   OH227170   1.309   3.969   4.091 -0.1348  0.0026 -1.0192
 9069TIP3    H127171   1.325   3.944   4.000 -1.9670  0.2697 -1.4429
 9069TIP3    H227172   1.239   3.911   4.120 -0.3357  0.6722 -0.1212
 9070TIP3   OH227173   6.756   2.452   2.768 -0.0132  0.2465  0.2484
 9070TIP3    H127174   6.687   2.423   2.829  0.9862  0.4036  1.4908
 9070TIP3    H227175   6.838   2.439   2.816  0.6664  2.7225 -0.0836
 9071TIP3   OH227176   2.547   4.595   4.673 -0.5977  0.3169 -0.5038
 9071TIP3    H127177   2.624   4.548   4.643 -1.7927 -1.6129 -0.6917
 9071TIP3    H227178   2.546   4.675   4.621  0.0841 -0.6669 -2.0852
 9072TIP3   OH227179   3.755   1.140   0.978 -0.3345 -0.0278  0.0195
 9072TIP3    H127180   3.661   1.129   0.997 -0.0696  0.4360  1.7617
 9072TIP3    H227181   3.764   1.111   0.887 -1.8725 -1.7755  0.3504
 9073TIP3   OH227182   3.233   5.272   2.527  0.0039 -0.6337  0.0887
 9073TIP3    H127183   3.153   5.322   2.539  0.4014 -0.1475  0.7470
 9073TIP3    H227184   3.210   5.183   2.553  0.4124  0.0434  3.1998
 9074TIP3   OH227185   3.637   6.597   5.681  0.4388  0.4347 -0.4271
 9074TIP3    H127186   3.561   6.643   5.647 -0.2944 -0.5185 -0.1325
 9074TIP3    H227187   3.631   6.509   5.644  2.5046  0.8652 -2.0065
 9075TIP3   OH227188   4.384   3.646   3.294  0.1958  0.3171  0.3646
 9075TIP3    H127189   4.427   3.647   3.209  0.0396  0.6899  0.2867
 9075TIP3    H227190   4.307   3.701   3.283 -0.4362 -0.5312  0.4380
 9076TIP3   OH227191   3.608   5.965   2.674  0.3790 -0.2333  0.2855
 9076TIP3    H127192   3.611   5.871   2.693  0.2652 -0.6723 -1.6966
 9076TIP3    H227193   3.598   5.970   2.579 -3.0676  1.7527  0.6025
 9077TIP3   OH227194   6.609   4.359   4.257  0.0506 -0.3576 -0.0622
 9077TIP3    H127195   6.569   4.281   4.296 -1.1675  1.1522  1.8640
 9077TIP3    H227196   6.582   4.431   4.313  3.1151  1.1947 -0.3672
 9078TIP3   OH227197   5.932   3.734   4.575  0.2030  0.5038 -0.0633
 9078TIP3    H127198   5.871   3.664   4.598  1.1412 -0.3295 -0.0517
 9078TIP3    H227199   6.016   3.690   4.564  0.6050  1.4906 -1.0791
 9079TIP3   OH227200   2.091   5.458   2.881 -0.1496  0.2921  0.1118
 9079TIP3    H127201   2.062   5.502   2.961 -0.9103  0.9880 -0.5273
 9079TIP3    H227202   2.046   5.505   2.810  0.4375 -0.3686 -0.7180
 9080TIP3   OH227203   3.401   5.355   1.133 -0.0643 -0.3036  0.2819
 9080TIP3    H127204   3.427   5.264   1.146 -1.1415 -0.5035  1.2451
 9080TIP3    H227205   3.456   5.405   1.194  0.1480 -0.3727  0.1470
 9081TIP3   OH227206   5.160   4.534   2.666  0.2824 -0.1673  0.0516
 9081TIP3    H127207   5.138   4.562   2.755  0.8484  0.9011 -0.1263
 9081TIP3    H227208   5.149   4.613   2.613 -0.3047 -0.8586 -0.8841
 9082TIP3   OH227209   2.458   1.225   5.246 -0.3996 -0.0683  0.2498
 9082TIP3    H127210   2.373   1.183   5.251 -1.4939  2.0195  0.6261
 9082TIP3    H227211   2.490   1.207   5.158 -1.2782 -0.7674  0.0647
 9083TIP3   OH227212   4.624   3.117   3.848 -0.0650  0.0422 -0.5409
 9083TIP3    H127213   4.645   3.097   3.757 -2.5979 -1.5499 -0.8625
 9083TIP3    H227214   4.659   3.043   3.898  1.3759  0.9408 -0.1346
 9084TIP3   OH227215   2.714   4.445   2.845  0.0133  0.5794  0.3320
 9084TIP3    H127216   2.734   4.422   2.935  1.2140 -1.2333 -0.3476
 9084TIP3    H227217   2.641   4.507   2.852  0.2966  0.7419  2.5313
 9085TIP3   OH227218   5.586   5.750   5.182 -0.1933 -0.0114 -0.4927
 9085TIP3    H127219   5.498   5.764   5.217  0.2247 -1.2727  1.1953
 9085TIP3    H227220   5.635   5.829   5.206  0.3631 -1.2148  2.9269
 9086TIP3   OH227221   6.574   2.284   2.963 -0.4041 -0.1885 -0.4511
 9086TIP3    H127222   6.596   2.230   3.040  1.3676 -0.9637 -1.4260
 9086TIP3    H227223   6.569   2.221   2.891 -2.4264  0.4827 -0.9386
 9087TIP3   OH227224   3.785   1.891   0.641 -0.4487  0.0491  0.2519
 9087TIP3    H127225   3.750   1.960   0.586 -0.3854  1.3594  1.7734
 9087TIP3    H227226   3.729   1.815   0.624 -0.8640  0.6194 -1.0352
 9088TIP3   OH227227   5.464   6.473   3.762  0.1687  0.0750  0.0617
 9088TIP3    H127228   5.483   6.427   3.681  0.5677  0.9166 -0.3292
 9088TIP3    H227229   5.524   6.547   3.763 -1.5970  1.5688 -0.1422
 9089TIP3   OH227230   5.421   4.844   4.114  0.6753 -0.0511 -0.2316
 9089TIP3    H127231   5.484   4.796   4.167  0.3507  0.4427  0.6352
 9089TIP3    H227232   5.429   4.807   4.026  0.1401 -1.9879  0.4902
 9090TIP3   OH227233   6.195   1.513   2.908 -0.5421  0.1774 -0.1560
 9090TIP3    H127234   6.174   1.590   2.961  2.9614  1.5532 -0.5040
 9090TIP3    H227235   6.163   1.535   2.820 -0.7418  0.6465  0.0309
 9091TIP3   OH227236   4.744   6.453   4.588 -0.0838 -0.2211  0.6225
 9091TIP3    H127237   4.825   6.411   4.616  0.3856  0.4858  0.3604
 9091TIP3    H227238   4.751   6.458   4.493  0.6572  1.9404  0.7290
 9092TIP3   OH227239   0.742   4.915   1.976 -0.2095  0.3296  0.4259
 9092TIP3    H127240   0.747   4.900   1.882  0.5211  1.0963  0.3288
 9092TIP3    H227241   0.792   4.843   2.015 -1.1884 -0.4543  0.3000
 9093TIP3   OH227242   4.671   3.554   2.878 -0.2347  0.6674 -0.0333
 9093TIP3    H127243   4.706   3.467   2.860  2.7497  2.1795 -2.5252
 9093TIP3    H227244   4.733   3.593   2.939  0.0183  1.8990 -1.0249
 9094TIP3   OH227245   3.360   1.813   3.121 -0.2150 -0.7022  0.1262
 9094TIP3    H127246   3.440   1.833   3.169 -1.1747  0.6844  1.2447
 9094TIP3    H227247   3.386   1.812   3.029  1.3216 -1.6266  0.5369
 9095TIP3   OH227248   1.367   6.027   3.356 -0.7208 -0.1183  0.0393
 9095TIP3    H127249   1.302   6.097   3.352 -0.8137 -0.2542 -0.7874
 9095TIP3    H227250   1.338   5.972   3.430 -0.2907  1.0512  1.1233
 9096TIP3   OH227251   6.463   4.333   5.726 -0.0247  0.4398 -0.3532
 9096TIP3    H127252   6.377   4.292   5.715  1.1694 -2.0110 -1.4740
 9096TIP3    H227253   6.501   4.330   5.638  1.1626  1.6369  0.0941
 9097TIP3   OH227254   5.113   6.390   0.985  0.6771  0.0061 -0.4081
 9097TIP3    H127255   5.107   6.296   0.999 -1.0106 -0.0027 -0.9256
 9097TIP3    H227256   5.129   6.426   1.072  2.0795 -0.7868 -0.3136
 9098TIP3   OH227257   0.299   4.558   0.736  0.1568 -0.1182 -0.0141
 9098TIP3    H127258   0.283   4.584   0.827  0.3063  1.8693 -0.5075
 9098TIP3    H227259   0.390   4.528   0.735  0.2045 -0.0047  0.4632
 9099TIP3   OH227260   3.926   5.070   1.871  0.6827 -0.1025 -0.6919
 9099TIP3    H127261   3.906   5.130   1.800 -0.3276  0.9880  0.4635
 9099TIP3    H227262   3.983   5.120   1.930 -0.4567 -0.1012  0.4583
 9100TIP3   OH227263   4.738   6.038   2.211 -0.5877  0.4556 -0.0745
 9100TIP3    H127264   4.661   5.983   2.223  0.5048 -0.7019  2.1163
 9100TIP3    H227265   4.797   5.985   2.156  0.4518 -0.6570  2.0096
 9101TIP3   OH227266   7.090   6.169   4.733  0.0422 -0.0643 -0.0496
 9101TIP3    H127267   6.996   6.180   4.722 -0.3427 -1.9995  0.8952
 9101TIP3    H227268   7.108   6.202   4.821  0.3507  0.6462 -0.3634
 9102TIP3   OH227269   3.248   6.569   4.743  0.0794  0.0062 -0.2071
 9102TIP3    H127270   3.161   6.608   4.751  0.7754  1.3362  1.3473
 9102TIP3    H227271   3.251   6.503   4.811  0.0062 -0.6564 -0.8309
 9103TIP3   OH227272   0.049   6.558   5.670  0.2481  0.3906  0.0641
 9103TIP3    H127273   0.081   6.558   5.580  1.7443 -0.9235  0.5602
 9103TIP3    H227274  -0.043   6.586   5.662 -0.3495 -1.7732 -2.1159
 9104TIP3   OH227275   7.017   0.270   4.187  0.2960  0.4096 -0.0853
 9104TIP3    H127276   7.004   0.272   4.282  1.8319  0.4120  0.1549
 9104TIP3    H227277   6.993   0.181   4.162  0.5429  0.1934  0.4204
 9105TIP3   OH227278   1.891   1.009   3.960 -0.3019 -0.2194 -0.1915
 9105TIP3    H127279   1.922   0.952   4.031 -0.9102 -1.4724 -0.8814
 9105TIP3    H227280   1.813   0.964   3.926  0.0085  0.3164 -1.6904
 9106TIP3   OH227281   5.601   1.287   5.175 -0.4952 -0.2792  0.0149
 9106TIP3    H127282   5.579   1.289   5.268  2.0669  2.4142  0.7216
 9106TIP3    H227283   5.686   1.243   5.172  1.7085  3.5971 -0.2685
 9107TIP3   OH227284   7.064   3.676   2.902 -0.0404 -0.0194  0.5685
 9107TIP3    H127285   7.039   3.747   2.842 -0.2692  0.4779  1.2473
 9107TIP3    H227286   7.033   3.705   2.988 -0.5753 -1.1580  0.7784
 9108TIP3   OH227287   5.331   6.183   1.236  0.3109 -0.1708 -0.3246
 9108TIP3    H127288   5.292   6.263   1.272 -0.4746 -0.2894 -0.8933
 9108TIP3    H227289   5.339   6.125   1.312  0.1980  0.1703 -0.0462
 9109TIP3   OH227290   0.875   2.317   3.661 -0.3375  0.0149 -0.3281
 9109TIP3    H127291   0.841   2.241   3.613  2.6250 -1.2014 -0.7569
 9109TIP3    H227292   0.931   2.279   3.729  0.7168  1.8016 -0.1286
 9110TIP3   OH227293   6.432   4.697   2.862 -0.7469 -0.2930  0.0050
 9110TIP3    H127294   6.508   4.651   2.899 -1.3785 -0.2328  1.4659
 9110TIP3    H227295   6.359   4.636   2.876 -0.8832 -0.7110 -2.1340
 9111TIP3   OH227296   6.155   0.550   3.730 -0.8277 -0.1632 -0.2626
 9111TIP3    H127297   6.152   0.473   3.788 -0.5160  0.3962  0.5165
 9111TIP3    H227298   6.152   0.625   3.790  2.4516  0.4838 -0.7582
 9112TIP3   OH227299   6.123   5.144   1.287 -0.2049  0.6622 -0.4226
 9112TIP3    H127300   6.029   5.152   1.270 -0.6804 -0.9747  1.0729
 9112TIP3    H227301   6.134   5.173   1.377  0.9497  1.9331 -0.9398
 9113TIP3   OH227302   3.084   1.431   2.389  0.0016 -0.8970 -0.2745
 9113TIP3    H127303   3.047   1.351   2.352 -1.9606 -0.5035  0.6618
 9113TIP3    H227304   3.151   1.400   2.450 -0.9903 -1.8831  0.3596
 9114TIP3   OH227305   3.817   2.833   5.558 -0.3788 -0.4273 -0.3502
 9114TIP3    H127306   3.879   2.900   5.586  1.9260 -2.7381  0.5103
 9114TIP3    H227307   3.747   2.837   5.623  1.7135 -1.4001  2.1271
 9115TIP3   OH227308   5.847   3.168   0.213  0.5302  0.5326 -0.1902
 9115TIP3    H127309   5.866   3.207   0.128  2.8437  0.8508  0.4210
 9115TIP3    H227310   5.876   3.233   0.277 -0.3738 -0.0562  0.8523
 9116TIP3   OH227311   0.148   1.783   3.668 -0.2630  0.0318  0.1882
 9116TIP3    H127312   0.222   1.734   3.633 -1.0888 -0.0779 -1.5096
 9116TIP3    H227313   0.187   1.862   3.706  0.8909 -0.9673  1.1579
 9117TIP3   OH227314   3.563   0.921   4.223 -0.0006  0.5025 -0.2613
 9117TIP3    H127315   3.491   0.865   4.192 -1.3837  1.4675  1.0786
 9117TIP3    H227316   3.621   0.861   4.270 -0.4317 -0.1249 -0.5157
 9118TIP3   OH227317   6.347   5.980   1.668  0.4727  0.1751 -0.2310
 9118TIP3    H127318   6.282   6.010   1.605  1.0933  0.2970 -0.8224
 9118TIP3    H227319   6.357   5.886   1.650  1.2673  0.3794 -0.8872
 9119TIP3   OH227320   5.258   6.189   0.068  0.5733 -0.1446  0.0917
 9119TIP3    H127321   5.253   6.115   0.008 -2.3926  0.2375 -0.2794
 9119TIP3    H227322   5.202   6.165   0.142  1.2632  0.8827  0.9866
 9120TIP3   OH227323   5.903   6.195   0.370 -0.6222  0.0763  0.1783
 9120TIP3    H127324   5.837   6.264   0.374  0.1826  1.2236 -3.0955
 9120TIP3    H227325   5.917   6.180   0.276  3.0674 -0.7649  0.7030
 9121TIP3   OH227326   5.004   3.517   4.875 -0.1092 -0.7243 -0.7992
 9121TIP3    H127327   4.918   3.519   4.918 -0.5800 -0.0158 -1.7370
 9121TIP3    H227328   5.034   3.427   4.887 -1.0214 -1.0060 -0.5106
 9122TIP3   OH227329   5.800   1.336   4.258 -0.0788 -0.1171  0.5814
 9122TIP3    H127330   5.782   1.348   4.165  2.3349  0.9334  0.1700
 9122TIP3    H227331   5.798   1.241   4.271 -1.1873 -0.2449 -0.3421
 9123TIP3   OH227332   0.313   2.684   0.930  0.7794  0.1865 -0.0182
 9123TIP3    H127333   0.320   2.600   0.975  1.5151 -0.2672 -0.9264
 9123TIP3    H227334   0.255   2.736   0.984  0.5334 -0.8170  0.7100
 9124TIP3   OH227335   1.986   4.961   4.741 -0.6034 -0.0033  0.1817
 9124TIP3    H127336   1.971   4.986   4.832 -0.0157  0.2838  0.2037
 9124TIP3    H227337   1.927   4.887   4.726 -1.0163  0.2235  0.6650
 9125TIP3   OH227338   1.098   5.107   0.468  0.2732 -0.5146 -0.3736
 9125TIP3    H127339   1.028   5.106   0.403  0.8841  0.7264 -1.0748
 9125TIP3    H227340   1.092   5.193   0.509  0.9153 -0.6859  0.1042
 9126TIP3   OH227341   0.774   0.285   2.696 -0.3392 -0.5528  0.0493
 9126TIP3    H127342   0.696   0.337   2.677 -0.6828 -0.3610  1.8301
 9126TIP3    H227343   0.741   0.196   2.705 -0.2174 -0.6065 -0.0394
 9127TIP3   OH227344   4.838   6.705   2.439 -0.0224 -0.3537  0.0816
 9127TIP3    H127345   4.831   6.796   2.413 -0.9579 -0.5794 -0.5135
 9127TIP3    H227346   4.931   6.692   2.457  0.5010  0.1203 -2.0705
 9128TIP3   OH227347   6.279   0.180   5.581  0.8399  0.3095 -0.1344
 9128TIP3    H127348   6.189   0.207   5.597  0.6555  0.4156 -1.2952
 9128TIP3    H227349   6.331   0.258   5.601  1.1371 -0.7608  4.3030
 9129TIP3   OH227350   5.254   5.646   1.983  0.2349 -0.2325  0.3043
 9129TIP3    H127351   5.345   5.622   1.968 -0.1304 -1.3345 -0.2633
 9129TIP3    H227352   5.207   5.615   1.905 -0.7460 -0.4162  0.9418
 9130TIP3   OH227353   2.740   1.511   1.529 -0.1518  0.2702  0.0732
 9130TIP3    H127354   2.811   1.566   1.496 -0.8416  0.2908 -1.4553
 9130TIP3    H227355   2.661   1.550   1.492 -0.9649  0.1617  1.6349
 9131TIP3   OH227356   5.180   6.673   2.706  0.0948 -0.3557  0.5150
 9131TIP3    H127357   5.185   6.580   2.680 -0.1528 -0.5466  1.1368
 9131TIP3    H227358   5.161   6.719   2.624 -0.2838 -0.9068  0.2864
 9132TIP3   OH227359   6.169   0.002   4.424  0.3381  0.0854 -0.4090
 9132TIP3    H127360   6.083   0.019   4.388  0.4520  0.8362 -0.3393
 9132TIP3    H227361   6.156   0.001   4.519  0.5270  0.9157 -0.3706
 9133TIP3   OH227362   6.377   1.149   3.177  0.1741  0.0315 -0.1103
 9133TIP3    H127363   6.347   1.122   3.090  0.8840 -0.3211 -0.2567
 9133TIP3    H227364   6.390   1.243   3.170  0.1197  0.0219 -0.3593
 9134TIP3   OH227365   0.912   2.599   5.504  0.2180  0.0167  0.4256
 9134TIP3    H127366   0.892   2.582   5.412  0.6096  0.8142  0.1878
 9134TIP3    H227367   0.983   2.663   5.502  1.1226 -0.9085  1.2647
 9135TIP3   OH227368   3.022   3.457   0.129  0.2073  0.0352 -0.1079
 9135TIP3    H127369   2.976   3.379   0.100  2.1725 -1.3680  0.2834
 9135TIP3    H227370   3.109   3.449   0.089  0.6107  1.7897  0.3431
 9136TIP3   OH227371   3.122   3.793   2.325 -0.3019 -0.1498 -0.0356
 9136TIP3    H127372   3.133   3.698   2.336  0.7612 -0.4961 -3.0133
 9136TIP3    H227373   3.164   3.831   2.401 -0.5070 -2.0415  1.1031
 9137TIP3   OH227374   3.715   0.569   0.217 -0.3657 -0.0984  0.3163
 9137TIP3    H127375   3.750   0.592   0.131 -0.0079 -1.0866  0.1853
 9137TIP3    H227376   3.647   0.503   0.198 -0.9542  0.3830  0.7171
 9138TIP3   OH227377   6.901   1.898   4.639 -0.3281 -0.2682  0.1846
 9138TIP3    H127378   6.963   1.830   4.664 -0.5444 -0.3079  0.6264
 9138TIP3    H227379   6.815   1.859   4.655 -0.4470  0.2615  0.8494
 9139TIP3   OH227380   3.903   1.820   4.270 -0.4940 -0.0717 -0.3325
 9139TIP3    H127381   3.859   1.761   4.208  0.0265  1.1434 -1.9347
 9139TIP3    H227382   3.952   1.762   4.327 -0.8123 -1.2480 -1.2081
 9140TIP3   OH227383   2.001   3.874   2.736  0.2792  0.2483  0.0834
 9140TIP3    H127384   1.966   3.800   2.687  1.7980 -0.5199  0.1089
 9140TIP3    H227385   1.957   3.950   2.699 -0.7775 -0.5916 -0.4413
 9141TIP3   OH227386   5.008   3.889   3.029 -0.4101  0.5345  0.1480
 9141TIP3    H127387   5.063   3.893   2.951  0.8480  2.6233  1.0477
 9141TIP3    H227388   5.065   3.855   3.097 -1.5525 -1.4499  0.1802
 9142TIP3   OH227389   2.647   4.625   2.112 -0.2446  0.6399  0.1039
 9142TIP3    H127390   2.693   4.612   2.195 -0.2595  0.0993  0.0345
 9142TIP3    H227391   2.665   4.716   2.088 -1.0089  1.0794  1.1526
 9143TIP3   OH227392   1.134   0.904   0.511 -0.0802  0.3076  0.5694
 9143TIP3    H127393   1.072   0.949   0.452 -0.8210 -0.6814  0.5587
 9143TIP3    H227394   1.110   0.934   0.598  1.1125  1.8892  0.3910
 9144TIP3   OH227395   0.679   5.984   5.102  0.0293  0.0809  0.1922
 9144TIP3    H127396   0.586   5.964   5.092  0.3600 -0.4829 -2.2057
 9144TIP3    H227397   0.723   5.900   5.086  0.9561  0.1575  2.0872
 9145TIP3   OH227398   2.517   3.037   3.357 -0.1547  0.0947  0.3381
 9145TIP3    H127399   2.473   3.054   3.274 -0.8447  0.6777  0.8087
 9145TIP3    H227400   2.610   3.048   3.338 -0.3615  1.0474 -0.1674
 9146TIP3   OH227401   0.234   3.534   5.834  0.4556 -0.4073 -0.6310
 9146TIP3    H127402   0.303   3.600   5.840  0.7479 -0.8624  1.4897
 9146TIP3    H227403   0.166   3.576   5.780  1.0845  1.2153 -0.2138
 9147TIP3   OH227404   6.506   4.479   5.146 -0.0798  0.5998  0.2881
 9147TIP3    H127405   6.477   4.562   5.108 -1.1578  0.4395  0.7228
 9147TIP3    H227406   6.600   4.475   5.127 -0.3990  0.9328 -1.5664
 9148TIP3   OH227407   6.479   1.529   0.340  0.0144 -0.8890  1.0883
 9148TIP3    H127408   6.499   1.604   0.396 -0.3573 -1.6754  2.3158
 9148TIP3    H227409   6.468   1.567   0.252  2.7280  0.1087  1.0927
 9149TIP3   OH227410   4.352   1.463   1.417  0.2795  0.3234 -0.7557
 9149TIP3    H127411   4.417   1.529   1.392 -0.4408  1.1765 -0.4571
 9149TIP3    H227412   4.303   1.504   1.488  1.3294 -1.4763  1.0918
 9150TIP3   OH227413   5.135   1.820   2.507 -0.2042 -0.2360  0.8278
 9150TIP3    H127414   5.103   1.872   2.433 -0.5859 -0.6391  0.7093
 9150TIP3    H227415   5.146   1.884   2.578  2.5362  0.6217 -0.2304
 9151TIP3   OH227416   0.721   5.935   0.212 -0.2451 -0.0989  0.0467
 9151TIP3    H127417   0.764   6.017   0.234 -2.2853  0.9121  0.5483
 9151TIP3    H227418   0.786   5.886   0.162 -0.2921  3.6729 -4.3770
 9152TIP3   OH227419   7.045   1.766   1.407  0.5429  0.3644 -0.4051
 9152TIP3    H127420   7.037   1.683   1.453  1.2112 -0.4310 -1.6887
 9152TIP3    H227421   7.014   1.831   1.471 -1.2386 -0.9614  0.1898
 9153TIP3   OH227422   1.869   3.319   0.897  0.1077 -0.8468  0.1527
 9153TIP3    H127423   1.818   3.258   0.951  0.8205 -1.1646  0.4908
 9153TIP3    H227424   1.933   3.263   0.852 -1.9203 -0.9506 -2.8829
 9154TIP3   OH227425   6.735   3.950   4.427  0.6204  0.1723  0.1977
 9154TIP3    H127426   6.826   3.967   4.407  0.5514 -0.9707 -1.2397
 9154TIP3    H227427   6.704   3.896   4.355 -1.6536  1.8617 -0.2059
 9155TIP3   OH227428   3.016   3.203   0.348 -1.0133 -0.4258  0.1613
 9155TIP3    H127429   2.952   3.133   0.359 -0.3154 -0.8663  1.6965
 9155TIP3    H227430   2.991   3.269   0.412 -1.3634  0.5141 -0.9289
 9156TIP3   OH227431   2.036   3.148   1.106  0.4800 -0.0274 -0.2648
 9156TIP3    H127432   2.062   3.057   1.090  1.0911  0.1706 -0.4132
 9156TIP3    H227433   1.941   3.147   1.095  0.2499 -1.0039  1.4122
 9157TIP3   OH227434   2.342   5.085   4.438  0.4361 -0.5207  0.4615
 9157TIP3    H127435   2.287   5.024   4.486 -0.5961 -0.2891 -0.3767
 9157TIP3    H227436   2.376   5.035   4.364  0.7627 -0.4671  0.5731
 9158TIP3   OH227437   2.359   4.741   5.173  0.0221  0.2797 -0.7836
 9158TIP3    H127438   2.403   4.815   5.216 -0.2684  0.4354 -0.7502
 9158TIP3    H227439   2.346   4.770   5.082  1.5461 -0.4371 -1.2653
 9159TIP3   OH227440   2.120   4.790   5.507 -0.1616 -0.3440  0.2302
 9159TIP3    H127441   2.051   4.843   5.547 -1.0661 -1.1873 -0.1835
 9159TIP3    H227442   2.189   4.788   5.573 -1.0405 -0.5307  1.1773
 9160TIP3   OH227443   0.607   3.112   2.901  0.7837 -0.1182 -0.0674
 9160TIP3    H127444   0.623   3.199   2.937  2.6245 -0.9310  1.2683
 9160TIP3    H227445   0.631   3.052   2.973 -0.3471 -1.7248 -0.9754
 9161TIP3   OH227446   3.901   5.217   1.653  0.1329 -0.3175  0.5073
 9161TIP3    H127447   3.958   5.278   1.700  0.7876 -1.1868  0.8737
 9161TIP3    H227448   3.826   5.270   1.627  0.6111  0.6091  0.9404
 9162TIP3   OH227449   6.310   6.133   0.831 -0.1426 -0.1008 -0.2098
 9162TIP3    H127450   6.244   6.126   0.899  0.0358  0.0040 -0.0230
 9162TIP3    H227451   6.291   6.061   0.771 -1.9212  1.3484 -1.4932
 9163TIP3   OH227452   5.439   2.721   4.869  0.1911 -0.0530 -0.4258
 9163TIP3    H127453   5.361   2.732   4.815 -0.4099  0.3870  0.4951
 9163TIP3    H227454   5.405   2.720   4.959  0.9464 -2.4610 -0.0890
 9164TIP3   OH227455   4.976   0.709   1.223  0.3339 -0.2774 -0.7781
 9164TIP3    H127456   4.992   0.616   1.241 -1.3859 -0.6077 -0.8404
 9164TIP3    H227457   4.936   0.743   1.303  1.0848  0.4646 -0.7016
 9165TIP3   OH227458   1.840   3.284   4.317  0.0408  0.6645 -0.1237
 9165TIP3    H127459   1.758   3.309   4.360  0.2786  0.4350  0.4705
 9165TIP3    H227460   1.908   3.332   4.365  0.2646  0.8007 -0.5690
 9166TIP3   OH227461   4.556   5.649   1.457 -0.7464 -0.3690 -0.1824
 9166TIP3    H127462   4.461   5.653   1.471 -0.7676  2.0396 -0.5555
 9166TIP3    H227463   4.578   5.557   1.469 -2.8476 -0.7163  1.6508
 9167TIP3   OH227464   1.506   1.460   3.341  0.1398  0.8771 -0.2528
 9167TIP3    H127465   1.473   1.550   3.353 -0.9563  0.3985  0.4761
 9167TIP3    H227466   1.482   1.438   3.251 -0.9312  0.8000  0.0335
 9168TIP3   OH227467   1.953   0.447   0.796  0.2572  0.5279  0.8711
 9168TIP3    H127468   1.945   0.431   0.890 -1.1363  2.4177  1.1201
 9168TIP3    H227469   1.977   0.539   0.789 -0.1364  0.5362 -0.6540
 9169TIP3   OH227470   5.430   1.874   3.322 -0.0176  0.1414  0.8211
 9169TIP3    H127471   5.456   1.783   3.307  1.3318  0.3114  1.9565
 9169TIP3    H227472   5.412   1.908   3.235  1.0256 -0.7638  0.2271
 9170TIP3   OH227473   0.531   5.650   0.051 -0.1222  0.1806 -0.4321
 9170TIP3    H127474   0.589   5.698  -0.008 -1.0595  0.3121 -1.2736
 9170TIP3    H227475   0.492   5.582  -0.004  0.5525 -1.0359  0.5391
 9171TIP3   OH227476   5.945   3.157   4.751  0.0477 -0.3680 -0.0615
 9171TIP3    H127477   5.946   3.209   4.832 -0.8658  1.2957 -1.0625
 9171TIP3    H227478   5.955   3.067   4.781 -0.8462  0.1337  1.9759
 9172TIP3   OH227479   0.330   2.222   5.659 -0.7438  0.3249 -0.1352
 9172TIP3    H127480   0.289   2.244   5.575  0.2986 -0.3488 -0.8494
 9172TIP3    H227481   0.422   2.247   5.648 -0.4427 -0.4368  0.5370
 9173TIP3   OH227482   5.706   4.476   3.982  0.0270  0.2408 -0.2517
 9173TIP3    H127483   5.777   4.457   4.043 -0.0623  1.6645  0.3482
 9173TIP3    H227484   5.745   4.463   3.896  0.9819  0.8274  0.0713
 9174TIP3   OH227485   6.310   3.378   1.995 -0.0011 -0.2105 -0.2559
 9174TIP3    H127486   6.229   3.408   1.953 -0.9093  0.0724  1.5701
 9174TIP3    H227487   6.293   3.286   2.017 -0.9246  0.4834  2.3872
 9175TIP3   OH227488   1.942   3.116   1.836  0.3397  0.1812  0.2622
 9175TIP3    H127489   1.960   3.048   1.771 -1.5093 -0.6513  0.5685
 9175TIP3    H227490   1.860   3.156   1.808 -0.3635 -0.0146  1.9008
 9176TIP3   OH227491   0.357   5.200   2.532 -0.4553  0.1710  0.3070
 9176TIP3    H127492   0.327   5.147   2.458 -0.9695  0.2404  0.4670
 9176TIP3    H227493   0.308   5.166   2.607  0.1663  0.0025  0.6497
 9177TIP3   OH227494   7.105   4.920   5.587 -0.2205 -0.0729  0.5661
 9177TIP3    H127495   7.102   4.825   5.575 -0.3008 -0.1982  1.4988
 9177TIP3    H227496   7.198   4.943   5.579 -0.3757  0.0326 -1.3999
 9178TIP3   OH227497   2.153   3.593   2.181 -0.7044 -0.1959 -0.7932
 9178TIP3    H127498   2.170   3.613   2.273 -2.2110 -2.6389  0.1054
 9178TIP3    H227499   2.125   3.676   2.143 -1.2285  0.6172  1.2590
 9179TIP3   OH227500   2.310   3.316   0.667  0.2144 -0.2739 -0.4379
 9179TIP3    H127501   2.376   3.320   0.737 -1.1208  0.7846  0.8375
 9179TIP3    H227502   2.342   3.378   0.601 -0.6039  2.1377  1.2722
 9180TIP3   OH227503   4.011   4.208   3.920  0.7389  0.3929  0.2850
 9180TIP3    H127504   3.974   4.134   3.967  0.6243  0.1589 -0.1623
 9180TIP3    H227505   4.038   4.171   3.835 -1.3014  1.2808 -0.8156
 9181TIP3   OH227506   3.881   2.259   5.145  0.5565  0.2688  0.7573
 9181TIP3    H127507   3.921   2.343   5.169  1.0620  0.0948  0.5448
 9181TIP3    H227508   3.830   2.234   5.221  1.2174  0.2819  1.2114
 9182TIP3   OH227509   3.044   1.322   4.563 -0.0564 -0.2072  0.0256
 9182TIP3    H127510   3.014   1.404   4.600 -0.2338  1.1713 -2.9139
 9182TIP3    H227511   3.140   1.325   4.571 -0.0503  0.4055 -0.2610
 9183TIP3   OH227512   2.243   4.390   0.653 -0.4242 -0.0616  0.8474
 9183TIP3    H127513   2.158   4.349   0.639 -0.0421 -0.2772 -1.1749
 9183TIP3    H227514   2.307   4.320   0.641  0.3244  1.1016 -4.0156
 9184TIP3   OH227515   3.930   3.236   1.873 -0.6478 -0.0028 -0.5648
 9184TIP3    H127516   3.871   3.310   1.887 -1.2508 -0.0285 -2.5845
 9184TIP3    H227517   3.914   3.177   1.946 -1.8017  0.8452 -0.1208
 9185TIP3   OH227518   5.960   6.471   2.727 -0.1459  0.0695 -0.3352
 9185TIP3    H127519   5.876   6.511   2.747  0.3153  1.0298 -0.2664
 9185TIP3    H227520   6.006   6.467   2.811 -0.6434 -1.7536 -0.1136
 9186TIP3   OH227521   4.626   4.441   5.025  0.6598  0.0755 -0.3503
 9186TIP3    H127522   4.653   4.531   5.042 -2.1027  1.2017 -1.3061
 9186TIP3    H227523   4.645   4.395   5.107  2.1680  1.5052  0.1490
 9187TIP3   OH227524   3.028   1.643   3.970  0.0026  0.7266  0.0070
 9187TIP3    H127525   2.994   1.561   4.005 -0.9598  0.8602 -0.5661
 9187TIP3    H227526   2.950   1.697   3.956  0.5167  1.3113 -0.7058
 9188TIP3   OH227527   0.630   5.530   2.268 -0.3934 -0.0920 -0.0460
 9188TIP3    H127528   0.684   5.538   2.347 -0.6792  2.5411 -0.0055
 9188TIP3    H227529   0.653   5.607   2.216 -1.4334 -0.8828 -1.7672
 9189TIP3   OH227530   2.313   5.911   1.307 -0.0335 -0.8566 -0.5623
 9189TIP3    H127531   2.353   5.904   1.220  0.9896  0.3811 -0.2043
 9189TIP3    H227532   2.308   5.820   1.338  2.2137 -1.0993 -0.7607
 9190TIP3   OH227533   0.580   1.088   4.002 -0.1063 -0.2323 -0.4991
 9190TIP3    H127534   0.564   1.142   4.079 -2.3097  0.8595 -1.6316
 9190TIP3    H227535   0.558   1.144   3.928 -0.9078 -2.1583 -1.8092
 9191TIP3   OH227536   4.527   2.061   0.487 -0.4536  0.2650  0.0728
 9191TIP3    H127537   4.544   1.995   0.420 -2.1563 -1.5722  1.3434
 9191TIP3    H227538   4.447   2.105   0.457  0.0362  1.0135 -0.1837
 9192TIP3   OH227539   3.010   4.356   5.538 -0.1684  0.4405  0.4771
 9192TIP3    H127540   2.919   4.339   5.512  0.0236 -0.2357  0.2187
 9192TIP3    H227541   3.032   4.281   5.594  0.0247  0.9319  1.0644
 9193TIP3   OH227542   3.239   5.395   4.095 -0.6651 -0.3871  0.5550
 9193TIP3    H127543   3.313   5.344   4.129  0.5366  2.0511  1.8097
 9193TIP3    H227544   3.206   5.443   4.170 -0.5973  2.0189 -0.8569
 9194TIP3   OH227545   1.164   6.236   3.027 -0.0280 -0.7482  0.0884
 9194TIP3    H127546   1.075   6.213   3.053 -0.4542  1.3368  0.6477
 9194TIP3    H227547   1.194   6.161   2.975 -1.2937 -2.4552  1.6941
 9195TIP3   OH227548   3.826   1.024   4.474 -0.3998 -0.4757  0.5304
 9195TIP3    H127549   3.857   0.941   4.511  0.3268  0.3879  1.9266
 9195TIP3    H227550   3.750   1.047   4.527  0.8068  0.9123  1.7252
 9196TIP3   OH227551   1.948   0.654   1.251  0.2883 -0.3134 -0.3405
 9196TIP3    H127552   1.955   0.749   1.239 -0.7260 -0.4749 -3.0285
 9196TIP3    H227553   2.027   0.619   1.209 -0.3379 -0.6978 -1.2445
 9197TIP3   OH227554   4.339   4.889   3.799  0.0575  0.6698 -0.1668
 9197TIP3    H127555   4.353   4.826   3.870  0.7651  0.5459 -0.4101
 9197TIP3    H227556   4.315   4.836   3.724 -0.3560  0.7767 -0.1157
 9198TIP3   OH227557   6.293   4.493   4.264  0.7016  0.0733  0.0410
 9198TIP3    H127558   6.319   4.401   4.252  0.2790  0.1816 -2.0971
 9198TIP3    H227559   6.205   4.498   4.226 -0.0410  0.9975  1.7818
 9199TIP3   OH227560   6.341   1.196   3.737  0.2876 -0.5595  0.1818
 9199TIP3    H127561   6.339   1.131   3.667  2.0307  0.3055 -0.7423
 9199TIP3    H227562   6.404   1.261   3.707 -2.9762  2.8258 -0.0031
 9200TIP3   OH227563   2.831   2.431   3.577  0.5865  0.3156 -0.2232
 9200TIP3    H127564   2.748   2.432   3.530  0.7809 -0.9969 -0.6281
 9200TIP3    H227565   2.857   2.523   3.582 -1.0440  0.7803  0.2219
 9201TIP3   OH227566   4.462   4.605   1.586 -0.3895  0.2131 -0.2862
 9201TIP3    H127567   4.558   4.603   1.584 -0.3973 -1.3744  0.2160
 9201TIP3    H227568   4.438   4.567   1.670 -1.4780  1.0479 -0.1853
 9202TIP3   OH227569   7.171   1.323   4.916  0.0162 -0.1340 -0.6846
 9202TIP3    H127570   7.144   1.231   4.926  0.4907 -0.2254 -0.2137
 9202TIP3    H227571   7.184   1.333   4.822  0.4721 -0.7029 -0.6917
 9203TIP3   OH227572   2.322   5.982   4.978 -0.2971  0.2618  0.7197
 9203TIP3    H127573   2.298   5.936   4.897 -1.3266  0.8333  0.6856
 9203TIP3    H227574   2.402   5.938   5.007 -0.4597 -0.6046 -0.0760
 9204TIP3   OH227575   4.107   3.840   0.147 -0.5907  0.1986 -0.3272
 9204TIP3    H127576   4.035   3.900   0.131  0.1984  1.5608  1.0445
 9204TIP3    H227577   4.082   3.791   0.225  0.2692  1.2235  0.6196
 9205TIP3   OH227578   4.868   5.229   0.623  0.0080 -0.3352  0.3172
 9205TIP3    H127579   4.794   5.289   0.616  0.1955 -0.1334  0.0585
 9205TIP3    H227580   4.945   5.286   0.623  0.4797 -0.6648 -3.7730
 9206TIP3   OH227581   0.760   6.039   2.445  0.0348 -0.8658 -0.2263
 9206TIP3    H127582   0.791   6.060   2.534  0.6055 -1.0145 -0.3883
 9206TIP3    H227583   0.834   5.996   2.403  0.4784  0.9862 -1.4409
 9207TIP3   OH227584   4.342   0.344   5.232 -0.0973  0.2158  0.0619
 9207TIP3    H127585   4.354   0.421   5.177  0.2553  0.2953  0.2465
 9207TIP3    H227586   4.379   0.368   5.317  2.3090 -0.9755 -0.5706
 9208TIP3   OH227587   3.598   6.381   1.732 -0.1912 -0.1414  0.0471
 9208TIP3    H127588   3.685   6.379   1.691 -0.8163 -0.8211 -1.3315
 9208TIP3    H227589   3.611   6.342   1.818  0.3601 -3.3050 -1.3020
 9209TIP3   OH227590   2.912   6.032   0.841  0.2605 -0.8636 -0.5256
 9209TIP3    H127591   2.983   6.066   0.787  0.3965 -0.5889 -0.1799
 9209TIP3    H227592   2.896   6.101   0.905 -0.4984 -0.8113 -0.7623
 9210TIP3   OH227593   2.356   5.370   0.144  0.3649 -0.1734 -0.0552
 9210TIP3    H127594   2.428   5.314   0.173  0.6160  1.4322  2.8154
 9210TIP3    H227595   2.386   5.459   0.163 -1.9580  0.6038  0.2444
 9211TIP3   OH227596   6.568   3.725   1.344 -0.4518  0.1926 -0.2667
 9211TIP3    H127597   6.488   3.778   1.345 -0.3143  0.4049 -0.2612
 9211TIP3    H227598   6.639   3.790   1.339 -0.2065  0.1100  1.4976
 9212TIP3   OH227599   5.581   3.090   3.121 -0.7836  0.3431  0.1293
 9212TIP3    H127600   5.538   3.081   3.036 -0.0138 -0.0274 -0.2297
 9212TIP3    H227601   5.519   3.054   3.184 -1.0158 -0.1339 -0.3713
 9213TIP3   OH227602   4.400   3.104   3.156  0.3490  0.0054 -0.4324
 9213TIP3    H127603   4.330   3.053   3.116  1.4481 -0.2433 -2.1220
 9213TIP3    H227604   4.412   3.179   3.098  0.9925  0.4272  0.2267
 9214TIP3   OH227605   2.296   2.649   1.087  0.2851  0.4370 -0.1401
 9214TIP3    H127606   2.262   2.565   1.119  0.5884  0.1113 -0.6517
 9214TIP3    H227607   2.297   2.705   1.164  3.3432 -1.0497  1.1067
 9215TIP3   OH227608   2.295   6.453   2.214 -0.5130 -0.5195  0.6541
 9215TIP3    H127609   2.321   6.534   2.258  1.4689 -0.0131 -1.2604
 9215TIP3    H227610   2.287   6.389   2.285  0.4199  0.7451  1.9685
 9216TIP3   OH227611   5.564   5.211   2.122 -0.3040  0.4700  0.0794
 9216TIP3    H127612   5.549   5.211   2.217 -2.0878 -1.4001 -0.1198
 9216TIP3    H227613   5.633   5.146   2.108  0.5867  1.3825  0.1383
 9217TIP3   OH227614   3.551   3.923   5.595  0.1655  0.4336  0.0306
 9217TIP3    H127615   3.631   3.881   5.563  0.8458  1.4581  0.3296
 9217TIP3    H227616   3.480   3.876   5.552  0.9867  0.4731 -1.4337
 9218TIP3   OH227617   0.488   6.415   5.312  0.9204  0.1470  0.9265
 9218TIP3    H127618   0.559   6.360   5.278  0.6511  0.7566 -0.7093
 9218TIP3    H227619   0.408   6.368   5.290  0.7415  0.5751  0.6284
 9219TIP3   OH227620   3.576   2.514   5.368 -0.0855  0.3685  0.3927
 9219TIP3    H127621   3.645   2.538   5.430 -0.0359  1.5032 -0.0691
 9219TIP3    H227622   3.542   2.598   5.337  0.2324 -0.1634 -1.4971
 9220TIP3   OH227623   5.791   5.452   4.104 -0.5275  0.4257 -0.4360
 9220TIP3    H127624   5.748   5.460   4.189  0.5949 -2.6146  0.5643
 9220TIP3    H227625   5.863   5.515   4.107  0.6616 -0.9085  1.7283
 9221TIP3   OH227626   3.992   2.908   2.462 -0.0360  0.5680  0.1245
 9221TIP3    H127627   4.065   2.961   2.495 -0.3076  1.5614 -0.8139
 9221TIP3    H227628   4.031   2.855   2.392  0.1027 -0.0185  0.6429
 9222TIP3   OH227629   3.693   0.121   4.311 -0.0607  0.0190 -0.4318
 9222TIP3    H127630   3.707   0.168   4.229 -2.0422 -0.4207 -1.0968
 9222TIP3    H227631   3.598   0.104   4.312  0.0800 -0.8725  1.4641
 9223TIP3   OH227632   4.558   4.399   3.774  0.6830 -0.4382  0.1835
 9223TIP3    H127633   4.588   4.331   3.834  2.1913 -1.3876 -1.5327
 9223TIP3    H227634   4.480   4.361   3.733  0.9833 -0.7679 -0.0956
 9224TIP3   OH227635   3.137   0.561   1.099 -0.0750 -0.0628 -0.4151
 9224TIP3    H127636   3.135   0.478   1.146 -0.9822  0.1780 -0.0091
 9224TIP3    H227637   3.141   0.537   1.007 -0.7431 -0.5672 -0.3173
 9225TIP3   OH227638   5.171   4.099   1.346 -0.4588  0.7419 -0.5766
 9225TIP3    H127639   5.149   4.126   1.257 -2.0357  0.6819 -0.2321
 9225TIP3    H227640   5.113   4.149   1.402 -0.0071  0.2277  0.3834
 9226TIP3   OH227641   6.240   5.548   1.873 -0.4655  0.2972 -0.1004
 9226TIP3    H127642   6.257   5.454   1.862  0.4634  0.4725 -0.2459
 9226TIP3    H227643   6.175   5.568   1.806 -0.9528 -0.3184  0.1759
 9227TIP3   OH227644   6.530   5.657   5.352  0.5456 -0.2484  0.3817
 9227TIP3    H127645   6.479   5.614   5.421 -1.1423 -0.7601 -1.1051
 9227TIP3    H227646   6.497   5.747   5.351  1.7607  0.2436  1.3009
 9228TIP3   OH227647   3.586   4.099   2.399 -0.2010  0.7208  0.2638
 9228TIP3    H127648   3.615   4.175   2.450  1.7554  0.1589  0.0742
 9228TIP3    H227649   3.648   4.095   2.326 -1.1311 -0.2547 -0.5035
 9229TIP3   OH227650   0.705   4.633   0.792  0.6324 -0.4324  0.3373
 9229TIP3    H127651   0.642   4.564   0.773  1.1283 -0.9611  0.6026
 9229TIP3    H227652   0.651   4.710   0.812 -0.0148 -1.4898  3.0520
 9230TIP3   OH227653   5.366   1.098   1.755  0.3857  0.5331 -0.1929
 9230TIP3    H127654   5.280   1.136   1.774  0.7894  1.5025 -0.2714
 9230TIP3    H227655   5.390   1.052   1.835  0.5399  1.6858  0.4480
 9231TIP3   OH227656   4.699   2.533   4.849  0.0524  0.3678  0.1335
 9231TIP3    H127657   4.785   2.501   4.824 -0.7918 -0.1086 -2.4967
 9231TIP3    H227658   4.697   2.623   4.816 -0.8333 -0.0207 -0.9524
 9232TIP3   OH227659   0.634   2.138   3.144 -0.0006 -0.0430  0.3148
 9232TIP3    H127660   0.697   2.079   3.185 -0.4047 -0.1387  0.8108
 9232TIP3    H227661   0.642   2.219   3.194  0.8664  0.4868 -0.6398
 9233TIP3   OH227662   6.852   4.136  -0.036  0.1335 -0.3476 -0.3872
 9233TIP3    H127663   6.852   4.053   0.012  0.8753  0.0693  0.3543
 9233TIP3    H227664   6.809   4.198   0.024  2.0351  0.4346  0.2581
 9234TIP3   OH227665   3.429   2.297   3.460 -0.3663  0.1751  0.3246
 9234TIP3    H127666   3.483   2.244   3.401  0.0808  2.1857 -1.1709
 9234TIP3    H227667   3.367   2.342   3.402 -1.2819  0.6766  1.6330
 9235TIP3   OH227668   6.729   4.756   3.008 -0.1407 -0.1276 -0.2227
 9235TIP3    H127669   6.774   4.836   2.980 -0.6979  0.2977  0.0800
 9235TIP3    H227670   6.723   4.703   2.929  1.5335 -0.5194 -0.1285
 9236TIP3   OH227671   5.419   3.832   2.404  0.3165 -0.3067 -0.4731
 9236TIP3    H127672   5.441   3.866   2.317  2.2927 -0.1721  0.0097
 9236TIP3    H227673   5.416   3.737   2.393 -1.2030 -0.2214 -1.0113
 9237TIP3   OH227674   5.517   5.441   0.643  0.1984 -0.3686  0.3508
 9237TIP3    H127675   5.448   5.459   0.707  0.9688  0.2470  1.0286
 9237TIP3    H227676   5.518   5.345   0.636  0.5374 -0.4903  1.7615
 9238TIP3   OH227677   3.310   3.552   1.369 -0.3045 -0.5740 -0.1931
 9238TIP3    H127678   3.235   3.498   1.391  0.0570 -0.0477  2.7905
 9238TIP3    H227679   3.384   3.491   1.365 -0.4446 -0.7318 -0.3965
 9239TIP3   OH227680   3.893   3.145   4.950  0.2868  0.5031  0.1297
 9239TIP3    H127681   3.973   3.147   4.897  0.9187  0.6116  1.0604
 9239TIP3    H227682   3.849   3.228   4.929 -0.0423  0.0498 -1.0487
 9240TIP3   OH227683   5.738   3.192   5.130  0.6416  0.2229  0.1454
 9240TIP3    H127684   5.829   3.217   5.111  0.1938  1.3254 -0.6812
 9240TIP3    H227685   5.691   3.276   5.132 -0.7927 -0.4725 -1.8791
 9241TIP3   OH227686   3.348   3.808   1.271 -0.4702 -0.0344 -0.2980
 9241TIP3    H127687   3.275   3.837   1.217 -1.1730  0.6294  0.9678
 9241TIP3    H227688   3.317   3.729   1.314 -0.8513  0.7857  1.0045
 9242TIP3   OH227689   5.981   0.248   2.085 -1.3558  0.1949  0.3019
 9242TIP3    H127690   6.020   0.329   2.118 -2.1030  0.8686 -0.4243
 9242TIP3    H227691   6.053   0.186   2.082 -0.5514  1.1205 -0.0586
 9243TIP3   OH227692   1.886   2.843   5.624  0.0043 -0.1009  0.2378
 9243TIP3    H127693   1.831   2.765   5.619  0.5699 -0.5266  0.5373
 9243TIP3    H227694   1.832   2.908   5.668  0.1450 -0.8855  1.6263
 9244TIP3   OH227695   5.291   4.953   5.422 -0.3150  0.4616  0.2509
 9244TIP3    H127696   5.221   4.983   5.480 -1.9755 -1.0226 -0.8652
 9244TIP3    H227697   5.354   5.025   5.421 -1.8717  1.9149  1.2304
 9245TIP3   OH227698   5.217   2.672   3.706 -0.1597  0.0344  0.8253
 9245TIP3    H127699   5.227   2.764   3.731 -1.0858  0.3902 -0.0429
 9245TIP3    H227700   5.123   2.659   3.700 -0.0205 -0.4896 -0.7195
 9246TIP3   OH227701   5.788   5.546   0.034  0.5049 -0.0467 -0.1578
 9246TIP3    H127702   5.845   5.618   0.061  1.9480 -1.4489  0.6689
 9246TIP3    H227703   5.710   5.589   0.000  1.4085  1.9086  0.1188
 9247TIP3   OH227704   6.127   4.564   4.714  0.2888 -0.1913 -0.2186
 9247TIP3    H127705   6.169   4.478   4.725  1.4870  0.3444 -0.4543
 9247TIP3    H227706   6.035   4.543   4.703  0.7686 -1.6400 -2.1928
 9248TIP3   OH227707   2.012   3.121   5.308  0.3471 -0.2021 -0.3984
 9248TIP3    H127708   2.003   3.146   5.400 -1.4475  0.4023 -0.6965
 9248TIP3    H227709   2.058   3.037   5.310  1.6727  0.5189  0.9391
 9249TIP3   OH227710   4.329   0.335   2.043 -0.1575 -0.2144  0.2758
 9249TIP3    H127711   4.247   0.383   2.038 -0.4364 -0.5657  1.3121
 9249TIP3    H227712   4.322   0.282   2.122  1.0350 -0.3004  0.3498
 9250TIP3   OH227713   1.980   6.194   1.866  0.2057 -0.1372 -0.0300
 9250TIP3    H127714   1.904   6.154   1.907  0.6648 -0.5786  0.3970
 9250TIP3    H227715   2.022   6.244   1.936 -0.0624  0.6645 -0.4284
 9251TIP3   OH227716   2.878   6.683   5.265 -0.1680  0.3698  0.6354
 9251TIP3    H127717   2.954   6.661   5.320  1.4847  2.5007 -0.6026
 9251TIP3    H227718   2.916   6.728   5.189 -2.4301 -1.4492 -1.7444
 9252TIP3   OH227719   5.474   3.480   1.562 -0.5034 -0.4147  0.2993
 9252TIP3    H127720   5.557   3.513   1.597 -0.1276 -1.3621  0.3354
 9252TIP3    H227721   5.455   3.537   1.488 -0.4288  0.5438  1.0000
 9253TIP3   OH227722   2.784   0.528   2.822  0.2123  0.0594  0.0588
 9253TIP3    H127723   2.820   0.600   2.874 -0.8923  0.6139  0.0833
 9253TIP3    H227724   2.736   0.571   2.751 -1.7939 -0.5663  0.9491
 9254TIP3   OH227725   7.134   3.366   2.119 -0.4682 -0.2672 -0.1302
 9254TIP3    H127726   7.130   3.364   2.214  1.2961  0.7550  0.0122
 9254TIP3    H227727   7.109   3.456   2.096 -0.1437 -0.2834 -0.5661
 9255TIP3   OH227728   7.030   2.673   3.371 -0.4136 -0.4528 -0.0931
 9255TIP3    H127729   7.008   2.753   3.418  1.4223 -0.1145  0.2830
 9255TIP3    H227730   6.947   2.625   3.364 -1.3446  1.0002  0.5707
 9256TIP3   OH227731   4.174   2.835   4.185  0.3583 -0.0110 -0.1184
 9256TIP3    H127732   4.227   2.756   4.198  0.2776  0.1411  1.3064
 9256TIP3    H227733   4.085   2.802   4.170  0.3382 -0.2076  0.3937
 9257TIP3   OH227734   1.441   4.796   2.373 -0.3080  0.4306  0.0686
 9257TIP3    H127735   1.412   4.784   2.464  0.4743 -0.3922  0.2295
 9257TIP3    H227736   1.373   4.753   2.321  1.2054 -2.7908  0.5199
 9258TIP3   OH227737   3.284   5.611   1.483 -0.4793  0.0383  0.2135
 9258TIP3    H127738   3.235   5.666   1.422  0.2996  0.7575  0.2193
 9258TIP3    H227739   3.375   5.618   1.454 -0.3064 -0.8886  0.4970
 9259TIP3   OH227740   6.240   2.714   1.890  0.0508  0.1159  0.0520
 9259TIP3    H127741   6.280   2.663   1.960  1.3261  0.1620 -0.6178
 9259TIP3    H227742   6.223   2.800   1.930  2.6255  0.8194 -0.1787
 9260TIP3   OH227743   2.482   4.235   1.849 -0.7189  0.3804  0.3429
 9260TIP3    H127744   2.417   4.226   1.779  0.3368  0.3042 -0.6596
 9260TIP3    H227745   2.495   4.330   1.858  0.7565  0.3781 -1.1622
 9261TIP3   OH227746   6.241   1.769   5.450  0.8364 -0.2031  0.2982
 9261TIP3    H127747   6.170   1.706   5.439  0.1043  0.7690 -0.7471
 9261TIP3    H227748   6.306   1.722   5.502  0.7017 -2.1124 -1.1454
 9262TIP3   OH227749   2.531   4.916   3.878  0.6238 -0.2121 -0.4340
 9262TIP3    H127750   2.566   4.992   3.924  0.4055 -1.2844  1.6336
 9262TIP3    H227751   2.602   4.890   3.819  1.4276  0.5171  0.1695
 9263TIP3   OH227752   6.390   6.183   4.923 -0.2574  0.4479  0.0054
 9263TIP3    H127753   6.438   6.140   4.994  1.4094  0.2855 -1.1805
 9263TIP3    H227754   6.325   6.118   4.895  2.2452 -1.4346 -1.8041
 9264TIP3   OH227755   5.847   2.698   3.832  0.3446 -0.4514 -0.2582
 9264TIP3    H127756   5.757   2.731   3.829  0.3457 -0.3419  0.5796
 9264TIP3    H227757   5.900   2.771   3.799  0.1651 -0.3660 -0.3607
 9265TIP3   OH227758   4.572   5.847   2.290  0.1728 -0.1963 -0.2941
 9265TIP3    H127759   4.494   5.837   2.236 -0.4473  2.2772 -0.0112
 9265TIP3    H227760   4.616   5.762   2.287  0.0423 -0.2835 -4.4253
 9266TIP3   OH227761   0.987   0.949   4.411 -0.7172  0.1640  0.1051
 9266TIP3    H127762   0.923   1.014   4.384 -1.2362 -1.3894 -2.7200
 9266TIP3    H227763   0.983   0.881   4.344  0.7836 -2.1401  2.1552
 9267TIP3   OH227764   2.704   4.633   1.278  0.0250 -0.3052  0.5210
 9267TIP3    H127765   2.759   4.705   1.246  1.3572 -1.2097  0.7211
 9267TIP3    H227766   2.618   4.673   1.291 -0.0192  0.6070 -2.0573
 9268TIP3   OH227767   3.323   5.654   4.950  0.1849  0.6134  0.1526
 9268TIP3    H127768   3.366   5.690   4.873 -0.5683  0.9389 -0.1277
 9268TIP3    H227769   3.383   5.587   4.982 -0.1167 -0.5185 -1.5345
 9269TIP3   OH227770   1.111   6.382   2.787 -0.0360 -0.1452 -0.1209
 9269TIP3    H127771   1.067   6.457   2.747 -0.6385 -0.3952  0.0529
 9269TIP3    H227772   1.042   6.316   2.797  0.1315 -0.1599  1.1323
 9270TIP3   OH227773   2.882   3.262   2.106 -0.2295 -0.1212  0.0420
 9270TIP3    H127774   2.951   3.300   2.160 -0.5199 -0.6073  0.7598
 9270TIP3    H227775   2.813   3.328   2.105  0.4876  0.6559 -1.2221
 9271TIP3   OH227776   0.501   6.383   2.637 -0.0958  0.0652 -0.1054
 9271TIP3    H127777   0.417   6.340   2.621 -0.2540  0.6409 -0.8975
 9271TIP3    H227778   0.484   6.443   2.710 -0.6112  0.7845 -0.7937
 9272TIP3   OH227779   3.014   4.503   1.607 -0.7974 -0.3563  0.5556
 9272TIP3    H127780   3.026   4.566   1.536 -0.6112 -0.1560  0.7621
 9272TIP3    H227781   2.945   4.541   1.662 -1.5712 -0.9354  0.0099
 9273TIP3   OH227782   1.193   4.464   5.833  0.3887 -0.9911  0.1466
 9273TIP3    H127783   1.143   4.384   5.815 -0.3933 -0.6311  0.6580
 9273TIP3    H227784   1.126   4.531   5.846  1.0175 -0.4573  0.6798
 9274TIP3   OH227785   2.240   2.775   4.386 -0.1400  0.3948 -0.4629
 9274TIP3    H127786   2.206   2.750   4.300 -2.4987  1.9622 -0.0691
 9274TIP3    H227787   2.320   2.824   4.366 -0.1193 -0.1111 -1.6990
 9275TIP3   OH227788   3.548   2.914   4.806 -0.4967  0.3360  0.0863
 9275TIP3    H127789   3.528   3.008   4.803  0.2722  0.5069 -0.0326
 9275TIP3    H227790   3.579   2.899   4.895  2.1410  0.8218 -0.6635
 9276TIP3   OH227791   6.121   0.276   0.901 -0.4817 -0.2852 -0.0649
 9276TIP3    H127792   6.071   0.197   0.880 -0.9273  0.0140 -0.1431
 9276TIP3    H227793   6.072   0.318   0.971 -0.0811 -0.2315  0.1870
 9277TIP3   OH227794   1.692   6.095   1.073 -0.2554  0.0091  0.1612
 9277TIP3    H127795   1.663   6.015   1.116 -1.9229  0.2968 -0.3774
 9277TIP3    H227796   1.622   6.158   1.088  1.5761  1.8459  1.7178
 9278TIP3   OH227797   2.489   0.131   0.764 -0.5440  0.3989 -0.3750
 9278TIP3    H127798   2.548   0.057   0.776 -1.0694 -0.3282 -1.9339
 9278TIP3    H227799   2.431   0.129   0.840 -0.2276 -0.4926 -0.1440
 9279TIP3   OH227800   5.032   0.572   4.422 -0.0120  0.1525  0.5502
 9279TIP3    H127801   5.045   0.539   4.512 -0.3246 -0.9952  0.1911
 9279TIP3    H227802   5.115   0.554   4.378  0.0998  0.6061  0.5713
 9280TIP3   OH227803   6.180   1.109   0.157 -0.1284 -0.1627 -0.2524
 9280TIP3    H127804   6.139   1.075   0.077 -0.7760  1.7059 -0.7511
 9280TIP3    H227805   6.123   1.080   0.228 -0.4987 -0.3646 -0.6315
 9281TIP3   OH227806   6.965   3.355   5.361 -0.0980  0.0031 -0.4551
 9281TIP3    H127807   6.972   3.263   5.335 -0.0176 -0.4790  1.1503
 9281TIP3    H227808   7.049   3.375   5.403 -1.3490 -0.2932  2.3888
 9282TIP3   OH227809   1.280   2.621   4.652 -0.1148 -0.0497  0.0207
 9282TIP3    H127810   1.206   2.560   4.656  0.0107 -0.2174 -0.1357
 9282TIP3    H227811   1.253   2.696   4.704 -1.0735  0.6334 -1.3759
 9283TIP3   OH227812   6.321   3.575   4.369  0.5615 -0.1405 -0.0068
 9283TIP3    H127813   6.277   3.490   4.366 -0.9257  0.6087 -1.5947
 9283TIP3    H227814   6.414   3.554   4.364  0.2550 -1.6816  0.1268
 9284TIP3   OH227815   4.572   0.222   4.278 -0.2713  0.5998 -0.1462
 9284TIP3    H127816   4.625   0.209   4.356 -1.3021  0.1942  0.5039
 9284TIP3    H227817   4.621   0.179   4.208  0.5952  0.8548  0.2877
 9285TIP3   OH227818   3.337   4.267   1.784  0.2238 -0.3526  0.2591
 9285TIP3    H127819   3.397   4.333   1.819  0.6381 -0.0354 -0.9967
 9285TIP3    H227820   3.361   4.186   1.830  0.2396  0.1866  1.2368
 9286TIP3   OH227821   6.002   4.154   3.996 -0.5772  0.0146 -0.1963
 9286TIP3    H127822   6.021   4.204   3.917 -0.6150 -0.7069 -0.6721
 9286TIP3    H227823   5.939   4.087   3.967 -0.9200  0.0126  0.5339
 9287TIP3   OH227824   4.656   0.648   0.504 -0.0578  0.6341 -0.1797
 9287TIP3    H127825   4.638   0.736   0.470 -0.8076  0.6814  0.3101
 9287TIP3    H227826   4.701   0.663   0.587 -0.3439  0.5638 -0.0094
 9288TIP3   OH227827   4.045   1.345   0.503  0.2449 -0.3080 -0.8483
 9288TIP3    H127828   4.093   1.415   0.546  0.0688 -1.5897  1.6297
 9288TIP3    H227829   4.107   1.306   0.443  0.7333  1.1148 -1.3123
 9289TIP3   OH227830   2.242   1.077   0.098 -0.1648  0.3346  0.5006
 9289TIP3    H127831   2.216   1.063   0.189  1.0016 -0.5550  0.7185
 9289TIP3    H227832   2.163   1.059   0.047  0.0015 -2.4652  1.1048
 9290TIP3   OH227833   6.499   4.854   2.666  0.1710  0.0889 -0.3801
 9290TIP3    H127834   6.469   4.793   2.732 -0.2593 -0.0228 -0.6773
 9290TIP3    H227835   6.430   4.854   2.599  1.2792 -0.9582 -1.5850
 9291TIP3   OH227836   5.671   4.138   2.336  0.8943 -0.8712 -0.2457
 9291TIP3    H127837   5.732   4.186   2.392 -0.2467  0.1784  0.1482
 9291TIP3    H227838   5.592   4.192   2.335  1.1080 -0.4305 -3.4830
 9292TIP3   OH227839   7.165   1.289   0.212 -0.3978  0.2668  0.0687
 9292TIP3    H127840   7.125   1.244   0.286 -0.2803 -0.6592 -0.4137
 9292TIP3    H227841   7.129   1.245   0.135 -0.0987  0.8544 -0.4130
 9293TIP3   OH227842   4.604   1.467   0.791  0.1982  0.5821 -0.2053
 9293TIP3    H127843   4.691   1.464   0.751 -0.1418 -0.3395 -0.8890
 9293TIP3    H227844   4.610   1.538   0.855  1.0194  1.4736 -1.2418
 9294TIP3   OH227845   7.087   3.557   5.125  0.5963 -0.2382  0.2973
 9294TIP3    H127846   7.005   3.556   5.174  1.3300 -0.3406  1.5654
 9294TIP3    H227847   7.071   3.617   5.052 -0.5066 -0.0287  0.6950
 9295TIP3   OH227848   6.839   3.594   3.278  0.3464 -0.2109 -0.1794
 9295TIP3    H127849   6.794   3.543   3.345 -0.8157  0.1335 -0.6801
 9295TIP3    H227850   6.849   3.681   3.318  2.0392 -0.6830  0.5477
 9296TIP3   OH227851   5.139   3.772   2.283 -0.1862 -0.2347 -0.2418
 9296TIP3    H127852   5.167   3.780   2.192  1.4877 -0.4929  0.2261
 9296TIP3    H227853   5.074   3.842   2.294  1.3258  1.3653 -0.9844
 9297TIP3   OH227854   4.995   3.345   2.707  0.7472  0.5190 -0.1026
 9297TIP3    H127855   4.984   3.433   2.671  1.5337 -0.0034 -1.6955
 9297TIP3    H227856   4.976   3.287   2.634 -0.3616 -0.6813  1.0804
 9298TIP3   OH227857   6.754   5.445   1.171  0.0067 -0.4468  0.5432
 9298TIP3    H127858   6.833   5.400   1.200 -0.5996 -1.8270  0.1303
 9298TIP3    H227859   6.686   5.415   1.231 -0.2214  0.7176  0.8852
 9299TIP3   OH227860   4.619   3.906   2.147  0.6030  0.0768 -0.4052
 9299TIP3    H127861   4.631   3.991   2.105 -0.0374 -0.7491 -2.4034
 9299TIP3    H227862   4.548   3.920   2.210 -0.6883  0.6898 -1.9229
 9300TIP3   OH227863   1.403   2.396   1.611  0.6239  0.1405 -0.2000
 9300TIP3    H127864   1.375   2.349   1.690  1.4797  0.5148  0.3313
 9300TIP3    H227865   1.435   2.327   1.553 -1.2464 -0.3009 -0.7943
 9301TIP3   OH227866   4.516   4.626   1.178 -0.5426  0.6383 -0.7878
 9301TIP3    H127867   4.452   4.695   1.163 -1.1810  0.2540  0.0784
 9301TIP3    H227868   4.597   4.672   1.201 -0.2164  1.1625 -2.7970
 9302TIP3   OH227869   5.106   5.210   2.854 -0.2804  0.2199  0.1838
 9302TIP3    H127870   5.131   5.144   2.919  1.1690 -0.2934 -0.8486
 9302TIP3    H227871   5.099   5.161   2.772  1.5884  1.4101 -0.7622
 9303TIP3   OH227872   3.771   5.361   5.084  0.8689 -0.2304 -0.0676
 9303TIP3    H127873   3.863   5.335   5.088  0.9533 -0.2086 -1.5121
 9303TIP3    H227874   3.753   5.374   4.991 -1.0127 -1.7332  0.0159
 9304TIP3   OH227875   5.112   3.655   2.514  0.3635 -0.2123 -0.2560
 9304TIP3    H127876   5.126   3.696   2.429 -0.6293  0.4979 -0.0908
 9304TIP3    H227877   5.018   3.664   2.531  0.3534 -1.3524  0.4081
 9305TIP3   OH227878   6.982   3.320   0.312 -0.0700 -0.3689 -0.2422
 9305TIP3    H127879   7.042   3.389   0.285  1.5238 -2.2912 -1.9169
 9305TIP3    H227880   6.912   3.322   0.248  0.6283 -1.0604 -1.0566
 9306TIP3   OH227881   2.938   4.148   2.482 -0.5262  0.1908 -0.0835
 9306TIP3    H127882   3.002   4.201   2.436 -1.4579  1.2424 -0.2037
 9306TIP3    H227883   2.897   4.208   2.544 -0.7720 -0.6859  0.6276
 9307TIP3   OH227884   2.690   3.207   4.955 -0.1397  0.0202 -0.3350
 9307TIP3    H127885   2.743   3.226   5.033  0.6549 -1.0942 -0.5791
 9307TIP3    H227886   2.691   3.288   4.905  0.3134  0.3923  0.2635
 9308TIP3   OH227887   2.538   1.392   1.677  0.2985 -0.1084  0.3718
 9308TIP3    H127888   2.566   1.481   1.658 -1.8875  0.5948  0.0890
 9308TIP3    H227889   2.522   1.391   1.771  0.9447 -0.4114  0.4825
 9309TIP3   OH227890   6.211   4.017   4.077 -0.5026  0.0293  0.0034
 9309TIP3    H127891   6.127   4.057   4.056 -1.1187 -0.8776  0.6621
 9309TIP3    H227892   6.209   3.932   4.034 -0.0675 -0.1338  0.2995
 9310TIP3   OH227893   6.086   3.796   2.975  0.0339  0.2320 -0.2986
 9310TIP3    H127894   6.063   3.752   2.893 -1.5024 -0.2517  0.3612
 9310TIP3    H227895   6.128   3.728   3.028  0.3250  0.3426 -0.3838
 9311TIP3   OH227896   4.726   3.830   0.745 -0.4970 -0.1115 -0.0809
 9311TIP3    H127897   4.633   3.805   0.745 -0.8411  1.0052 -1.9035
 9311TIP3    H227898   4.743   3.858   0.655  2.1214 -2.0553 -0.3084
 9312TIP3   OH227899   1.982   1.953   1.322  0.4652 -0.0510 -0.3608
 9312TIP3    H127900   1.950   1.866   1.346 -0.6493  0.4820  0.1640
 9312TIP3    H227901   1.964   1.960   1.228  0.7153 -0.4457 -0.4407
 9313TIP3   OH227902   2.749   3.596   1.653  0.5565 -0.1746 -0.1676
 9313TIP3    H127903   2.775   3.513   1.691  0.0786  0.0673  0.7095
 9313TIP3    H227904   2.794   3.662   1.706 -0.4274  0.1820  0.2400
 9314TIP3   OH227905   2.052   5.697   4.079 -0.1029 -0.1462 -0.4781
 9314TIP3    H127906   2.006   5.719   4.160 -1.2167 -1.2935 -0.7659
 9314TIP3    H227907   1.991   5.641   4.031  1.2267 -0.9397 -1.3170
 9315TIP3   OH227908   3.450   6.103   2.896  0.2042 -0.2567  0.4430
 9315TIP3    H127909   3.490   6.081   2.812 -1.0629  0.6812 -0.4453
 9315TIP3    H227910   3.366   6.057   2.895  0.6701 -1.1833  1.7242
 9316TIP3   OH227911   1.319   6.024   2.461 -0.6403 -0.1846  0.3059
 9316TIP3    H127912   1.327   6.024   2.366 -1.2670 -0.9630  0.2393
 9316TIP3    H227913   1.237   6.068   2.478 -0.9916 -0.8649  0.4233
 9317TIP3   OH227914   4.507   1.219   4.430 -0.3035 -0.2772 -0.0096
 9317TIP3    H127915   4.448   1.284   4.466 -1.8063 -1.2604 -0.5999
 9317TIP3    H227916   4.471   1.198   4.344  1.4562 -0.2288 -0.8157
 9318TIP3   OH227917   2.150   4.808   1.766  0.0500  0.2237  0.3213
 9318TIP3    H127918   2.082   4.782   1.829  0.3786 -0.3707  0.4446
 9318TIP3    H227919   2.180   4.893   1.796  0.2493 -0.0837  1.0119
 9319TIP3   OH227920   4.625   4.531   5.613  0.0761 -0.1810 -0.5294
 9319TIP3    H127921   4.606   4.600   5.677 -0.1411  0.8060 -1.6207
 9319TIP3    H227922   4.694   4.568   5.557  0.1161 -0.9326 -0.9951
 9320TIP3   OH227923   2.878   2.966   0.404 -0.0576  0.4275 -0.2855
 9320TIP3    H127924   2.950   2.963   0.466  1.2215  1.1294 -1.6586
 9320TIP3    H227925   2.799   2.970   0.458  0.8058 -1.9324  1.2728
 9321TIP3   OH227926   2.400   4.222   2.920 -0.4889  0.5163  0.2536
 9321TIP3    H127927   2.448   4.192   2.844  0.6937 -0.0934  1.2151
 9321TIP3    H227928   2.425   4.314   2.930  0.8529  0.0857  1.0066
 9322TIP3   OH227929   0.048   2.269   3.277 -0.0907 -0.3679  0.3052
 9322TIP3    H127930  -0.046   2.262   3.296  0.1182 -1.4078  1.1061
 9322TIP3    H227931   0.073   2.355   3.312 -0.5282 -0.5749  1.1777
 9323TIP3   OH227932   1.263   1.174   2.750 -0.5124  0.5998  0.3094
 9323TIP3    H127933   1.182   1.125   2.737 -0.7572  1.1993 -0.4785
 9323TIP3    H227934   1.278   1.220   2.668  0.5311  0.6545  0.5073
 9324TIP3   OH227935   1.509   5.141   2.279  0.2171 -0.6539 -0.2796
 9324TIP3    H127936   1.469   5.055   2.287 -1.0201 -0.3189 -2.1195
 9324TIP3    H227937   1.468   5.179   2.201  0.5685  1.6904  0.5910
 9325TIP3   OH227938   6.108   6.724   2.597  0.6034  0.4151  0.2452
 9325TIP3    H127939   6.091   6.782   2.671  1.4881 -1.3264  1.8933
 9325TIP3    H227940   6.149   6.647   2.635 -0.1330 -1.1518 -1.9167
 9326TIP3   OH227941   4.578   3.455   2.292  0.0747  0.5023  0.2493
 9326TIP3    H127942   4.595   3.361   2.302 -0.2168  0.3788 -0.3725
 9326TIP3    H227943   4.600   3.473   2.201 -2.0492  0.5510 -0.3041
 9327TIP3   OH227944   6.849   5.761   5.549  0.0169 -0.0027 -0.7104
 9327TIP3    H127945   6.928   5.808   5.524 -0.4137  0.5744 -1.0008
 9327TIP3    H227946   6.778   5.807   5.504 -0.8874  1.4855  1.9896
 9328TIP3   OH227947   5.395   0.196   1.599 -0.2458 -0.2694  0.2474
 9328TIP3    H127948   5.471   0.248   1.574  0.0462  0.2571  2.1171
 9328TIP3    H227949   5.376   0.144   1.520  1.3638  0.3664 -0.6280
 9329TIP3   OH227950   1.713   6.459   5.233 -0.0611 -0.0542  0.4051
 9329TIP3    H127951   1.808   6.443   5.232  0.4754  2.5591 -1.4947
 9329TIP3    H227952   1.682   6.412   5.310  2.6047 -1.7628  0.6074
 9330TIP3   OH227953   3.158   4.543   3.727 -0.3975  0.1469 -0.2179
 9330TIP3    H127954   3.114   4.489   3.792 -0.2220  0.4475  0.1550
 9330TIP3    H227955   3.164   4.487   3.649  1.5910 -1.1418  0.7637
 9331TIP3   OH227956   5.792   4.267   0.484 -0.5215 -0.0516 -0.3303
 9331TIP3    H127957   5.734   4.221   0.545  0.8618 -1.1011  0.2610
 9331TIP3    H227958   5.816   4.348   0.529  1.5400 -1.4066  1.2250
 9332TIP3   OH227959   6.563   4.851   4.791 -0.1612 -0.3484  0.1582
 9332TIP3    H127960   6.593   4.918   4.853  1.7504  1.0596 -2.1640
 9332TIP3    H227961   6.639   4.794   4.778 -0.0851  0.1791 -1.8877
 9333TIP3   OH227962   5.689   4.697   4.742 -0.2482 -0.0974  0.1001
 9333TIP3    H127963   5.670   4.658   4.828  0.6465  0.4566  0.5660
 9333TIP3    H227964   5.751   4.637   4.701  0.5168  0.4020  0.4927
 9334TIP3   OH227965   4.092   5.516   1.106  0.2531  0.2411 -0.0402
 9334TIP3    H127966   4.015   5.560   1.143 -0.2118 -0.8298  0.3122
 9334TIP3    H227967   4.131   5.470   1.180  1.7869  1.4976 -0.0203
 9335TIP3   OH227968   5.312   2.716   5.380  0.1468  0.5684 -0.2068
 9335TIP3    H127969   5.240   2.669   5.338 -0.9183  0.9600  1.1030
 9335TIP3    H227970   5.287   2.809   5.373  1.4938  0.8607 -1.4526
 9336TIP3   OH227971   5.007   6.772   1.724  0.2204 -0.0532  0.3009
 9336TIP3    H127972   5.001   6.677   1.711 -0.3910  0.1142 -0.8186
 9336TIP3    H227973   4.922   6.805   1.695  0.7498  0.9245 -0.1925
 9337TIP3   OH227974   3.631   1.291   0.244  0.1951  0.1652 -0.1401
 9337TIP3    H127975   3.634   1.352   0.170 -1.8998  0.7430  0.1636
 9337TIP3    H227976   3.541   1.298   0.276  1.0131 -0.1468  2.4162
 9338TIP3   OH227977   6.713   4.583   5.341 -0.1541  0.2885  0.0197
 9338TIP3    H127978   6.749   4.654   5.393  1.2590 -0.6867  0.4226
 9338TIP3    H227979   6.729   4.609   5.250 -0.0852  0.7066  0.1515
 9339TIP3   OH227980   4.091   2.912   5.217 -1.0426  0.3021  0.2230
 9339TIP3    H127981   4.131   2.874   5.139 -1.9665 -0.5299  0.1376
 9339TIP3    H227982   4.125   2.861   5.290  0.3244  1.4867  0.4660
 9340TIP3   OH227983   4.056   1.052   0.991  0.0373 -0.2588 -0.0237
 9340TIP3    H127984   4.049   1.147   0.982 -0.4082 -0.2448  0.3860
 9340TIP3    H227985   4.006   1.017   0.918 -0.5704 -0.1679  0.3391
 9341TIP3   OH227986   0.653   0.858   3.048 -0.7008 -0.1189 -0.6898
 9341TIP3    H127987   0.710   0.781   3.055 -0.2316  0.2981  0.1321
 9341TIP3    H227988   0.701   0.928   3.092 -1.0511  0.6957 -1.5774
 9342TIP3   OH227989   4.822   6.197   0.725 -0.3669 -0.3791  0.4298
 9342TIP3    H127990   4.869   6.278   0.711  0.2213 -0.8458 -0.3535
 9342TIP3    H227991   4.742   6.223   0.771 -2.3350  1.2595 -3.4406
 9343TIP3   OH227992   4.590   4.437   2.569 -0.6062  0.6289  0.1622
 9343TIP3    H127993   4.649   4.502   2.530  0.6503  0.2397  1.3444
 9343TIP3    H227994   4.612   4.355   2.525 -0.4120  0.5238  0.4535
 9344TIP3   OH227995   5.432   3.017   3.337  0.4373  0.3736 -0.0583
 9344TIP3    H127996   5.350   2.978   3.307  0.0510  1.6543 -0.7449
 9344TIP3    H227997   5.448   2.977   3.422 -2.4578  2.1741  1.5010
 9345TIP3   OH227998   1.691   3.311   4.949 -0.5818  0.3720 -0.1316
 9345TIP3    H127999   1.628   3.280   5.015  0.6615  0.4730  1.1756
 9345TIP3    H228000   1.734   3.231   4.919 -0.2914  0.4393  0.1032
 9346TIP3   OH228001   1.133   6.367   1.095 -0.3436 -0.1289  0.3028
 9346TIP3    H128002   1.223   6.396   1.080 -0.5560  0.2629 -0.2565
 9346TIP3    H228003   1.080   6.432   1.048 -0.8293 -1.5239 -1.1746
 9347TIP3   OH228004   2.265   4.432   1.326 -0.2372  0.6439 -0.1784
 9347TIP3    H128005   2.242   4.521   1.352 -0.0214  1.0490 -1.3221
 9347TIP3    H228006   2.252   4.430   1.232 -0.6634 -0.6771 -0.1155
 9348TIP3   OH228007   6.805   3.593   2.789 -0.6283  0.3791  0.3938
 9348TIP3    H128008   6.800   3.678   2.833 -2.1264  1.0005 -0.8887
 9348TIP3    H228009   6.790   3.529   2.858  1.8600  1.0241  1.6455
 9349TIP3   OH228010   5.111   0.301   5.240  0.6585  0.0174 -0.1773
 9349TIP3    H128011   5.097   0.383   5.287 -0.0896 -0.5607  0.6318
 9349TIP3    H228012   5.064   0.235   5.291  0.6940 -0.8086 -1.1726
 9350TIP3   OH228013   5.966   5.746   0.129  0.0144 -0.5445 -0.1778
 9350TIP3    H128014   6.047   5.729   0.082  0.5843 -0.3895  0.7334
 9350TIP3    H228015   5.975   5.697   0.211 -0.6661 -0.2579  0.0754
 9351TIP3   OH228016   1.974   1.355   5.316  0.0563 -0.4779  0.1247
 9351TIP3    H128017   1.957   1.441   5.356 -1.2815 -0.8258  0.3435
 9351TIP3    H228018   2.050   1.370   5.259 -0.3826  0.9422 -0.1302
 9352TIP3   OH228019   2.322   3.759   5.004  0.0775  0.1621  0.2411
 9352TIP3    H128020   2.330   3.675   4.959 -1.2994  0.4071 -0.5222
 9352TIP3    H228021   2.229   3.780   4.999  0.3953  1.7417  0.4031
 9353TIP3   OH228022   5.622   6.292   2.657  0.3332 -0.4395  0.0224
 9353TIP3    H128023   5.653   6.245   2.735  0.3211  0.3697  0.5256
 9353TIP3    H228024   5.562   6.231   2.615 -1.2573 -0.1588  1.7487
 9354TIP3   OH228025   1.614   6.323   0.402  0.3012  0.2880 -0.0234
 9354TIP3    H128026   1.662   6.396   0.363  0.6034 -0.2630 -0.7055
 9354TIP3    H228027   1.571   6.280   0.327  1.6043 -1.3180  0.1015
 9355TIP3   OH228028   5.568   1.969   5.199 -0.0447  0.0593 -0.4861
 9355TIP3    H128029   5.519   1.902   5.246 -2.3331  2.1232  0.2927
 9355TIP3    H228030   5.637   1.921   5.153 -0.9144 -2.6465  0.8428
 9356TIP3   OH228031   1.473   3.027   3.374 -0.4592  0.3722  0.0970
 9356TIP3    H128032   1.490   2.940   3.410 -0.0398  0.2915 -0.2856
 9356TIP3    H228033   1.509   3.087   3.440  0.1595  0.2278 -0.0975
 9357TIP3   OH228034   2.324   2.100   5.588 -0.0014 -0.1199  0.0045
 9357TIP3    H128035   2.416   2.074   5.599  0.6683  2.0789  0.1094
 9357TIP3    H228036   2.290   2.040   5.522  2.0093  0.0824 -1.3220
 9358TIP3   OH228037   1.727   6.575   0.566  0.1916  0.0989 -0.1021
 9358TIP3    H128038   1.731   6.585   0.471  0.0345  2.7481  0.0837
 9358TIP3    H228039   1.635   6.590   0.588  0.3857  0.4169  0.5270
 9359TIP3   OH228040   2.127   5.331   4.729 -0.2533 -0.5877  0.2850
 9359TIP3    H128041   2.144   5.420   4.698  0.1563 -1.1439 -1.1734
 9359TIP3    H228042   2.140   5.336   4.823  1.4823  0.5255  0.0431
 9360TIP3   OH228043   0.481   3.577   0.612  0.1281  0.1029 -0.3164
 9360TIP3    H128044   0.455   3.668   0.622 -0.1950 -0.0658  0.4101
 9360TIP3    H228045   0.577   3.578   0.614  0.1454  0.5016 -1.0387
 9361TIP3   OH228046   2.137   4.007   0.044 -0.2642  0.1801  0.1203
 9361TIP3    H128047   2.139   4.100   0.023  1.9783  0.2241  0.2630
 9361TIP3    H228048   2.124   3.963  -0.040 -1.4366  0.6046  0.0687
 9362TIP3   OH228049   3.344   6.266   5.407 -0.8947  0.0651 -0.4691
 9362TIP3    H128050   3.256   6.299   5.424 -0.4226  0.6436  0.9772
 9362TIP3    H228051   3.341   6.174   5.435 -1.3119 -0.2500 -1.4673
 9363TIP3   OH228052   0.054   4.938   2.931 -0.4945  0.1733  0.2369
 9363TIP3    H128053  -0.022   4.887   2.960 -1.7087  0.8881 -1.5145
 9363TIP3    H228054   0.030   5.029   2.947  0.6386  0.3402  1.0654
 9364TIP3   OH228055   4.072   5.222   3.604 -0.3308 -0.0832  0.1433
 9364TIP3    H128056   4.070   5.129   3.622  1.1026 -0.5653 -1.7485
 9364TIP3    H228057   4.037   5.230   3.515 -1.2625  1.3118  0.5947
 9365TIP3   OH228058   4.803   2.824   1.284  0.0130  0.1990 -0.1215
 9365TIP3    H128059   4.815   2.849   1.375 -0.5754  0.2969 -0.0666
 9365TIP3    H228060   4.711   2.841   1.266  0.0914  0.0570 -0.6972
 9366TIP3   OH228061   5.529   3.812   1.499 -0.7366  0.2209  0.1856
 9366TIP3    H128062   5.601   3.871   1.523 -1.1616  1.5711 -1.6167
 9366TIP3    H228063   5.461   3.829   1.564  0.5234 -1.1358  1.9674
 9367TIP3   OH228064   5.384   4.049   3.924  0.2201  0.0969 -0.0753
 9367TIP3    H128065   5.454   4.115   3.924 -0.1314  0.5573 -2.8590
 9367TIP3    H228066   5.303   4.099   3.931 -0.0534  0.0672 -2.3019
 9368TIP3   OH228067   4.497   1.490   3.781 -0.1677 -0.1493 -0.8377
 9368TIP3    H128068   4.496   1.409   3.833  0.6668  0.4499  0.1370
 9368TIP3    H228069   4.538   1.465   3.698  2.9003 -0.1350  0.5397
 9369TIP3   OH228070   3.899   1.452   0.252  0.5704  0.0237 -0.3420
 9369TIP3    H128071   3.903   1.502   0.333 -1.3170 -0.2893  0.0061
 9369TIP3    H228072   3.806   1.428   0.244  1.0835 -1.7323 -1.5144
 9370TIP3   OH228073   3.244   1.643   4.265  0.3452 -0.7181 -0.1696
 9370TIP3    H128074   3.297   1.579   4.218  0.2930  0.7456 -2.3657
 9370TIP3    H228075   3.154   1.611   4.255  0.3834 -0.6851 -0.6404
 9371TIP3   OH228076   0.524   1.856   0.570 -0.8169  0.4342  0.3304
 9371TIP3    H128077   0.438   1.822   0.546  0.0260 -1.5024 -0.0845
 9371TIP3    H228078   0.564   1.787   0.622 -0.3096  2.1872  2.4161
 9372TIP3   OH228079   5.563   3.610   4.022 -0.4968 -0.3073 -0.9562
 9372TIP3    H128080   5.623   3.538   4.043 -2.1263 -1.0365  1.6775
 9372TIP3    H228081   5.511   3.577   3.949 -1.2232 -1.8663  0.2085
 9373TIP3   OH228082   2.317   6.140   2.756  0.3261  0.3516 -0.3589
 9373TIP3    H128083   2.256   6.138   2.682  1.3120 -1.1660 -1.2097
 9373TIP3    H228084   2.264   6.119   2.832 -0.4284  0.2816 -0.8969
 9374TIP3   OH228085   6.428   4.154   3.047  0.2714 -0.2595 -0.3623
 9374TIP3    H128086   6.438   4.068   3.005  0.1984 -0.9747  1.0000
 9374TIP3    H228087   6.346   4.147   3.096  1.7723 -0.5900  2.2883
 9375TIP3   OH228088   3.027   3.153   3.539 -0.4130 -0.0237 -0.0675
 9375TIP3    H128089   2.980   3.200   3.608  2.2264  0.0271  1.8324
 9375TIP3    H228090   3.107   3.122   3.581 -0.2655 -3.0139 -2.2443
 9376TIP3   OH228091   3.763   0.301   1.831  0.1867 -0.5661  0.3830
 9376TIP3    H128092   3.742   0.312   1.738  0.8813 -1.4125  0.1096
 9376TIP3    H228093   3.851   0.263   1.831 -0.4740 -2.2028  1.3270
 9377TIP3   OH228094   6.773   4.853   1.391  0.0808 -0.4356 -0.3836
 9377TIP3    H128095   6.707   4.793   1.358 -0.6885  0.1179  0.1273
 9377TIP3    H228096   6.752   4.937   1.351 -2.0121  0.7214  2.7879
 9378TIP3   OH228097   1.344   6.705   1.744  0.2294 -0.1352 -0.1746
 9378TIP3    H128098   1.327   6.784   1.692  0.0581 -0.0018  0.0837
 9378TIP3    H228099   1.415   6.731   1.803  0.5991 -0.3661 -0.5182
 9379TIP3   OH228100   3.480   6.334   2.504  0.2891  0.3671 -0.0980
 9379TIP3    H128101   3.449   6.244   2.508  0.8821  0.0198 -2.1532
 9379TIP3    H228102   3.411   6.381   2.456 -0.7752  1.4221  2.2927
 9380TIP3   OH228103   5.083   5.628   2.676  0.2064 -0.5840 -0.2054
 9380TIP3    H128104   5.054   5.590   2.593 -1.9408  0.1183  0.1423
 9380TIP3    H228105   5.175   5.648   2.663 -0.2804  0.4007 -2.7848
 9381TIP3   OH228106   5.829   3.264   2.973 -0.2030  0.4265  0.5839
 9381TIP3    H128107   5.747   3.240   2.929 -0.1532 -0.2136  0.8274
 9381TIP3    H228108   5.821   3.225   3.060  1.1437 -1.2584  0.0016
 9382TIP3   OH228109   6.706   1.476   0.612 -0.0009  0.0160 -0.1692
 9382TIP3    H128110   6.707   1.430   0.696  0.2807 -0.8454 -0.6354
 9382TIP3    H228111   6.728   1.566   0.635 -1.9546  0.2702  0.9350
 9383TIP3   OH228112   0.850   3.272   2.306  0.0983 -0.4986 -0.1405
 9383TIP3    H128113   0.792   3.281   2.231 -1.4809  0.1324  1.0920
 9383TIP3    H228114   0.880   3.181   2.303  0.1206 -0.4689 -1.5394
 9384TIP3   OH228115   6.116   1.206   4.246  0.5670  0.2284 -0.1912
 9384TIP3    H128116   6.145   1.292   4.276 -1.0023  0.9099 -0.4829
 9384TIP3    H228117   6.049   1.226   4.180  0.3810 -1.2222 -0.4756
 9385TIP3   OH228118   1.245   1.381   2.928  0.6042 -0.4668 -0.1541
 9385TIP3    H128119   1.316   1.421   2.877  1.9256 -2.9855 -0.4233
 9385TIP3    H228120   1.222   1.302   2.879 -1.6013 -0.3543  0.5840
 9386TIP3   OH228121   4.993   4.677   0.815  0.0964  0.0249  0.0758
 9386TIP3    H128122   4.944   4.759   0.812  0.7111  0.3834 -0.9359
 9386TIP3    H228123   4.979   4.638   0.729  2.9282  0.9977 -0.9526
 9387TIP3   OH228124   2.024   0.976   1.720 -0.4185  0.0450  0.1513
 9387TIP3    H128125   1.976   0.967   1.802  0.1296 -1.1761  0.3535
 9387TIP3    H228126   1.968   1.032   1.666 -1.3871 -0.1806  0.8939
 9388TIP3   OH228127   0.792   5.361   1.941 -0.0449  0.6311 -0.4915
 9388TIP3    H128128   0.741   5.290   1.980 -1.1443  0.6700 -1.7650
 9388TIP3    H228129   0.845   5.319   1.874  0.5143  0.8056 -0.1663
 9389TIP3   OH228130   5.245   2.853   3.202 -0.1432  0.1765  0.9140
 9389TIP3    H128131   5.155   2.834   3.229  0.7562 -0.2269  3.9247
 9389TIP3    H228132   5.260   2.794   3.128 -2.6461  1.0414 -0.4313
 9390TIP3   OH228133   2.000   1.983   5.660  0.0769 -0.0845 -0.1402
 9390TIP3    H128134   2.049   2.020   5.733  3.0760  0.8088 -2.4133
 9390TIP3    H228135   1.915   2.027   5.662  0.0529 -0.1094  2.7290
 9391TIP3   OH228136   5.809   3.248   3.273  0.0645 -0.0682  0.1617
 9391TIP3    H128137   5.781   3.296   3.351  0.4588 -0.9936  0.8913
 9391TIP3    H228138   5.728   3.216   3.234 -0.2431  1.4836 -0.5633
 9392TIP3   OH228139   3.790   0.188   0.128  0.3318  0.1554 -0.5509
 9392TIP3    H128140   3.807   0.250   0.199  1.5794 -0.9906  0.2182
 9392TIP3    H228141   3.697   0.199   0.107  0.0219  0.7582  1.0292
 9393TIP3   OH228142   0.765   2.896   1.440 -0.1099  0.3858  0.0524
 9393TIP3    H128143   0.860   2.897   1.429  0.2440  2.2552  2.5223
 9393TIP3    H228144   0.734   2.972   1.391 -0.0278  1.1315  1.1280
 9394TIP3   OH228145   0.628   6.266   2.986  0.2839 -0.3629  0.6063
 9394TIP3    H128146   0.632   6.304   3.074 -0.4289  2.6160 -0.5238
 9394TIP3    H228147   0.671   6.331   2.930 -3.9318  0.5882 -1.9765
 9395TIP3   OH228148   2.282   5.356   5.689 -0.0223 -0.2138 -0.3499
 9395TIP3    H128149   2.193   5.340   5.718 -0.1165  0.3024 -0.3560
 9395TIP3    H228150   2.311   5.272   5.652 -0.5892 -0.3094 -0.5751
 9396TIP3   OH228151   4.271   1.940   3.180 -0.5322  0.0101  0.2684
 9396TIP3    H128152   4.291   2.019   3.230  4.2010 -1.0087  0.4890
 9396TIP3    H228153   4.293   1.963   3.090  2.6456 -1.2767  0.5560
 9397TIP3   OH228154   3.015   5.474   0.951 -0.3593 -0.5375 -0.0281
 9397TIP3    H128155   2.942   5.470   1.013 -0.6345 -1.1363 -0.3866
 9397TIP3    H228156   2.998   5.403   0.889  0.7227 -0.9291  0.1008
 9398TIP3   OH228157   0.952   4.003   2.471  0.0902 -0.2779  0.6816
 9398TIP3    H128158   0.994   3.939   2.529  0.2011  0.1237  1.0447
 9398TIP3    H228159   0.863   3.970   2.460  0.8650 -1.9457 -1.2660
 9399TIP3   OH228160   3.863   0.333   0.345  0.1170  0.2720 -0.2032
 9399TIP3    H128161   3.774   0.369   0.346 -1.0376 -2.3423 -1.2375
 9399TIP3    H228162   3.871   0.285   0.427  1.2630  1.8517  0.6724
 9400TIP3   OH228163   1.641   0.250   2.793  1.1157 -0.0667  0.0408
 9400TIP3    H128164   1.629   0.339   2.824  0.9853  0.0968 -0.4761
 9400TIP3    H228165   1.736   0.240   2.785  1.0804  0.5823 -1.4811
 9401TIP3   OH228166   6.900   2.849   3.609  0.1926  0.1300  0.0165
 9401TIP3    H128167   6.883   2.871   3.701 -1.7453 -0.0325 -0.2552
 9401TIP3    H228168   6.883   2.755   3.604 -0.5177  0.2811 -0.6457
 9402TIP3   OH228169   0.777   0.464   2.277 -0.9253  0.5831  0.1864
 9402TIP3    H128170   0.750   0.472   2.185  1.5145  2.1201 -0.4815
 9402TIP3    H228171   0.846   0.529   2.288  1.0181 -1.6297  2.2998
 9403TIP3   OH228172   6.005   3.836   4.983  0.0470 -0.6216  0.0823
 9403TIP3    H128173   5.966   3.833   5.070 -0.9078  0.8421 -0.2476
 9403TIP3    H228174   5.930   3.844   4.924  0.7680  0.8670 -0.6827
 9404TIP3   OH228175   2.684   0.834   0.038  0.3120 -0.2104  0.2377
 9404TIP3    H128176   2.730   0.766  -0.011  0.4435 -0.2926  0.4723
 9404TIP3    H228177   2.609   0.857  -0.016  1.4110  0.9668 -0.8606
 9405TIP3   OH228178   5.817   3.362   5.803 -0.5618 -0.7161  0.7791
 9405TIP3    H128179   5.765   3.365   5.883 -3.1515 -1.6738 -0.7429
 9405TIP3    H228180   5.759   3.395   5.735  0.9633 -1.5069 -0.9917
 9406TIP3   OH228181   6.597   5.509   0.845  0.1503 -0.3944  0.7051
 9406TIP3    H128182   6.648   5.562   0.785  0.8037 -0.2943  1.3303
 9406TIP3    H228183   6.620   5.542   0.932  0.7727 -1.8695  1.1246
 9407TIP3   OH228184   5.467   2.588   5.582 -0.0033 -0.3578  0.4363
 9407TIP3    H128185   5.409   2.556   5.651  0.3129  0.1982  0.9631
 9407TIP3    H228186   5.407   2.625   5.516 -0.2525  0.2567  1.0003
 9408TIP3   OH228187   4.562   4.717   3.035  0.0913  0.4010 -0.5639
 9408TIP3    H128188   4.574   4.804   2.997 -1.6262  0.7050 -0.5149
 9408TIP3    H228189   4.636   4.707   3.095  0.5088  1.6881 -0.8182
 9409TIP3   OH228190   6.642   5.561   1.505  0.1956  0.1278  0.0670
 9409TIP3    H128191   6.608   5.534   1.590  0.4330 -1.1345 -0.2183
 9409TIP3    H228192   6.737   5.551   1.513  0.2815  0.7392 -0.1131
 9410TIP3   OH228193   2.634   2.274   5.431 -0.4632 -0.0760  0.0389
 9410TIP3    H128194   2.730   2.277   5.423 -0.4535 -0.5425 -0.0565
 9410TIP3    H228195   2.611   2.360   5.466 -0.2001  0.8235 -1.8385
 9411TIP3   OH228196   2.240   1.433   3.364  0.1732  0.4079 -0.3446
 9411TIP3    H128197   2.299   1.495   3.407 -0.3927  0.1062  0.9175
 9411TIP3    H228198   2.291   1.352   3.357  0.8138  0.9039 -1.7312
 9412TIP3   OH228199   6.985   2.444   5.185  0.4509 -0.3677 -0.7159
 9412TIP3    H128200   7.006   2.356   5.217 -0.2143  0.0346  0.9190
 9412TIP3    H228201   6.913   2.431   5.124 -1.2603 -0.7924  1.2854
 9413TIP3   OH228202   3.604   2.819   5.768 -0.1196  1.1461 -0.5440
 9413TIP3    H128203   3.540   2.799   5.700 -1.3953 -1.7412  1.3152
 9413TIP3    H228204   3.579   2.763   5.842  3.8695  0.6979  0.6989
 9414TIP3   OH228205   6.408   1.631   5.158  0.1007 -0.2429 -0.0961
 9414TIP3    H128206   6.488   1.682   5.145 -0.1777 -0.0124 -1.0181
 9414TIP3    H228207   6.345   1.694   5.193 -0.3574  0.1926 -1.5937
 9415TIP3   OH228208   5.945   6.005   5.612 -0.1169  0.7488 -0.5146
 9415TIP3    H128209   6.011   6.062   5.652 -0.1595  0.9373 -0.7128
 9415TIP3    H228210   5.922   5.943   5.681  2.5079 -1.3200 -1.3241
 9416TIP3   OH228211   2.317   1.384   5.458 -0.1287 -0.7990  0.8106
 9416TIP3    H128212   2.272   1.323   5.400 -0.6743  1.5692 -1.4526
 9416TIP3    H228213   2.409   1.376   5.435 -0.4039  0.5746 -0.9563
 9417TIP3   OH228214   2.360   5.789   4.295  0.8744  0.1290  0.5853
 9417TIP3    H128215   2.392   5.868   4.252  0.5846 -0.2810 -0.4247
 9417TIP3    H228216   2.401   5.717   4.247 -0.7504 -0.3793 -0.1519
 9418TIP3   OH228217   4.303   6.718   0.698 -0.1465 -0.0993  0.1749
 9418TIP3    H128218   4.237   6.674   0.751  0.2107 -0.5918  0.2128
 9418TIP3    H228219   4.301   6.673   0.613  0.4199 -0.3855  0.3072
 9419TIP3   OH228220   5.984   2.221   4.798  0.0056 -0.2554  0.5114
 9419TIP3    H128221   5.929   2.158   4.750  0.7035  0.9502 -2.0070
 9419TIP3    H228222   5.935   2.303   4.795  0.1684 -0.0863  1.7537
 9420TIP3   OH228223   2.208   4.053   4.297  0.0734  0.2461  0.5369
 9420TIP3    H128224   2.276   4.074   4.361 -0.1213 -1.8636  1.4986
 9420TIP3    H228225   2.127   4.083   4.338 -0.1849 -2.0202  1.8364
 9421TIP3   OH228226   2.945   1.662   3.106 -0.0377  0.3511  0.1478
 9421TIP3    H128227   2.966   1.690   3.017 -0.7806  0.9864  0.1565
 9421TIP3    H228228   2.857   1.626   3.100 -0.2583  0.7750  0.6858
 9422TIP3   OH228229   0.316   2.920   2.494 -0.4108  0.4059  0.2177
 9422TIP3    H128230   0.354   2.957   2.573 -0.8716  1.0227  0.1590
 9422TIP3    H228231   0.269   2.842   2.524  0.4122 -0.0363  0.3708
 9423TIP3   OH228232   5.805   5.892   0.340 -0.1905 -0.2035 -0.3881
 9423TIP3    H128233   5.757   5.974   0.332 -0.3352 -0.3568 -1.3208
 9423TIP3    H228234   5.816   5.862   0.249  0.5196 -0.8322 -0.1108
 9424TIP3   OH228235   3.008   3.171   3.989 -0.3306 -0.2815 -0.0885
 9424TIP3    H128236   3.103   3.179   3.997 -0.3991 -0.6845  1.5000
 9424TIP3    H228237   2.976   3.167   4.080 -1.7547 -1.3997 -0.5862
 9425TIP3   OH228238   6.830   2.266   2.246  0.4899  0.1139  0.5673
 9425TIP3    H128239   6.842   2.189   2.301 -1.0493 -0.9382 -0.5048
 9425TIP3    H228240   6.859   2.238   2.159 -1.0804  0.3739 -0.0690
 9426TIP3   OH228241   5.242   5.678   0.183 -0.5927  0.0636 -0.1432
 9426TIP3    H128242   5.335   5.702   0.180 -0.7052  0.4066 -1.1791
 9426TIP3    H228243   5.237   5.597   0.133 -0.9452  0.4145 -0.6922
 9427TIP3   OH228244   5.658   2.855   1.276 -0.0662 -0.0990 -0.1247
 9427TIP3    H128245   5.621   2.935   1.239  0.0372  0.2815  0.5707
 9427TIP3    H228246   5.585   2.794   1.278 -0.7097  0.6617  1.2758
 9428TIP3   OH228247   0.305   4.399   0.439 -0.0801 -0.6290 -0.2490
 9428TIP3    H128248   0.365   4.325   0.449 -1.3073 -1.6004  0.1634
 9428TIP3    H228249   0.279   4.421   0.528  0.0886  0.1469 -0.3873
 9429TIP3   OH228250   4.758   2.592   0.715 -0.1079  0.1750  0.1582
 9429TIP3    H128251   4.827   2.530   0.740  0.9520  1.6333  1.0593
 9429TIP3    H228252   4.805   2.666   0.677 -1.2101  1.0147  0.3681
 9430TIP3   OH228253   0.088   4.052   0.823 -0.8069  1.1336  0.1512
 9430TIP3    H128254   0.016   4.108   0.852  1.0269  2.7006  2.0173
 9430TIP3    H228255   0.158   4.113   0.802 -0.2737 -0.2793 -2.6582
 9431TIP3   OH228256   4.969   6.036   0.069  0.0597 -0.2784  0.2389
 9431TIP3    H128257   4.964   6.017  -0.024  0.3284  1.3462 -0.1411
 9431TIP3    H228258   4.929   6.123   0.078  0.7666 -0.0586  1.5184
 9432TIP3   OH228259   6.317   0.324   4.456 -0.4398 -0.0840  0.2994
 9432TIP3    H128260   6.347   0.408   4.421  0.6149 -0.5275  0.1058
 9432TIP3    H228261   6.322   0.263   4.381  0.8723 -0.8078  0.9460
 9433TIP3   OH228262   0.648   1.561   5.662  0.0564  0.0989 -0.3769
 9433TIP3    H128263   0.607   1.618   5.597 -1.0164 -0.5148 -0.2721
 9433TIP3    H228264   0.731   1.534   5.621 -0.3888  0.0803 -1.3049
 9434TIP3   OH228265   3.705   4.749   0.861  0.4578  0.7162 -0.7014
 9434TIP3    H128266   3.723   4.843   0.854  0.0629  0.8110 -0.4465
 9434TIP3    H228267   3.624   4.744   0.911 -0.5669  0.3236 -2.3171
 9435TIP3   OH228268   3.133   5.217   4.835  0.3098  0.7371  0.6617
 9435TIP3    H128269   3.045   5.190   4.863  1.5094 -1.8132  2.4008
 9435TIP3    H228270   3.155   5.290   4.892 -0.3032  0.7373  0.9058
 9436TIP3   OH228271   4.231   5.179   3.283 -0.3111 -0.3704 -0.8529
 9436TIP3    H128272   4.237   5.104   3.342 -2.3662  0.1418  0.1054
 9436TIP3    H228273   4.157   5.158   3.226 -1.1257  1.0298 -0.3594
 9437TIP3   OH228274   0.908   3.065   1.092 -0.2810 -0.2468  0.0891
 9437TIP3    H128275   0.816   3.087   1.109  0.0414  0.3960  1.1036
 9437TIP3    H228276   0.907   2.974   1.064 -1.4421  0.3416 -1.9655
 9438TIP3   OH228277   2.636   0.751   0.427  0.3755  0.0178 -0.3548
 9438TIP3    H128278   2.545   0.773   0.446  0.9148  1.0604  1.2383
 9438TIP3    H228279   2.675   0.834   0.400  1.1734 -0.1255  0.3362
 9439TIP3   OH228280   1.581   2.967   2.037  0.4733 -0.1008  0.1696
 9439TIP3    H128281   1.492   2.933   2.043  0.3720  0.3430  1.6845
 9439TIP3    H228282   1.594   3.014   2.119  2.2038 -0.3954  0.1099
 9440TIP3   OH228283   4.355   5.149   1.430 -0.0658 -0.1102  0.3944
 9440TIP3    H128284   4.274   5.101   1.449 -0.6209  0.9219  0.7246
 9440TIP3    H228285   4.423   5.082   1.432 -0.8000 -0.8720  0.9233
 9441TIP3   OH228286   4.131   1.726   2.803  0.2324  0.0507  0.3151
 9441TIP3    H128287   4.100   1.653   2.750  1.4519  0.5448 -1.1481
 9441TIP3    H228288   4.051   1.766   2.839 -0.5761 -0.7431 -0.5573
 9442TIP3   OH228289   6.459   3.726   3.461  0.3907 -0.1704 -0.1365
 9442TIP3    H128290   6.475   3.750   3.370  0.7137 -0.4229 -0.1502
 9442TIP3    H228291   6.434   3.634   3.458 -0.2563 -0.0080 -0.0289
 9443TIP3   OH228292   1.328   4.668   0.885  0.6247 -0.2576 -0.1906
 9443TIP3    H128293   1.410   4.635   0.849  0.8915 -0.8471  0.9412
 9443TIP3    H228294   1.263   4.646   0.819  0.6366 -3.8102  0.8069
 9444TIP3   OH228295   2.740   5.119   0.720 -0.2350 -0.0331  0.7902
 9444TIP3    H128296   2.728   5.025   0.726 -0.9067 -0.1583 -1.5653
 9444TIP3    H228297   2.681   5.155   0.786 -0.1556 -1.2311  1.5428
 9445TIP3   OH228298   5.446   6.385   4.061 -0.4126 -0.5750  0.2174
 9445TIP3    H128299   5.470   6.454   3.999 -0.5646 -0.4422  0.3045
 9445TIP3    H228300   5.354   6.403   4.083 -0.7698 -1.3979 -0.5330
 9446TIP3   OH228301   1.528   6.760   0.290 -0.0571 -0.0573  0.1377
 9446TIP3    H128302   1.465   6.827   0.265  0.7942  0.9899  0.6932
 9446TIP3    H228303   1.481   6.703   0.350 -0.9143 -0.2037 -0.6626
 9447TIP3   OH228304   6.399   0.057   0.947  0.2644 -0.3354 -0.4941
 9447TIP3    H128305   6.358   0.052   1.033  0.7318  2.0420 -0.0709
 9447TIP3    H228306   6.330   0.029   0.887 -0.8404  0.2175  0.4774
 9448TIP3   OH228307   7.077   4.037   3.228 -0.4639  0.1947  0.6801
 9448TIP3    H128308   7.063   3.942   3.235  0.3550 -0.1084 -1.1930
 9448TIP3    H228309   7.166   4.051   3.258  0.5092 -0.1161 -1.8282
 9449TIP3   OH228310   5.113   5.297   3.736  0.3736 -0.4831 -0.4521
 9449TIP3    H128311   5.064   5.258   3.809  0.7180 -1.5573 -0.7695
 9449TIP3    H228312   5.201   5.309   3.771 -0.0188  1.2191  0.0402
 9450TIP3   OH228313   3.881   1.937   5.769 -0.4937  0.1896  0.6760
 9450TIP3    H128314   3.963   1.986   5.777 -0.7165  1.0323 -1.4570
 9450TIP3    H228315   3.863   1.905   5.857  1.3232  1.2937  1.4982
 9451TIP3   OH228316   6.316   2.217   1.569 -0.1731 -0.2881 -0.0476
 9451TIP3    H128317   6.386   2.267   1.610 -1.8447  1.9877  0.2476
 9451TIP3    H228318   6.277   2.166   1.640 -1.3042  1.5419  0.7365
 9452TIP3   OH228319   0.594   1.616   4.023 -0.0040  0.0270 -0.2903
 9452TIP3    H128320   0.683   1.598   3.991  0.1005  0.8351 -0.4734
 9452TIP3    H228321   0.582   1.710   4.008 -0.3348  0.2318  1.1338
 9453TIP3   OH228322   4.978   5.486   1.379  0.0021  0.1723  0.0433
 9453TIP3    H128323   5.042   5.533   1.325 -0.1340 -0.5381 -0.7515
 9453TIP3    H228324   5.024   5.469   1.461  0.2569  1.1488  0.1172
 9454TIP3   OH228325   5.789   3.791   0.082  0.1615  0.4003 -0.6496
 9454TIP3    H128326   5.783   3.817  -0.010 -1.1441  1.5266 -0.2787
 9454TIP3    H228327   5.815   3.871   0.128 -0.9855  0.3245  0.1661
 9455TIP3   OH228328   4.533   2.873   1.656 -0.1768  0.0960  0.7675
 9455TIP3    H128329   4.495   2.825   1.583  1.4856 -1.6978  0.9926
 9455TIP3    H228330   4.511   2.965   1.639 -1.7863 -0.5135 -0.7283
 9456TIP3   OH228331   4.324   0.887   4.738 -0.2214 -0.0135  0.4957
 9456TIP3    H128332   4.295   0.804   4.776  1.1064 -1.0572 -0.6370
 9456TIP3    H228333   4.329   0.870   4.644  1.0903  1.0067  0.3441
 9457TIP3   OH228334   5.248   0.824   0.306 -0.2736  0.1420 -0.0630
 9457TIP3    H128335   5.185   0.888   0.272  0.0140  0.1999 -0.4911
 9457TIP3    H228336   5.200   0.742   0.306 -0.1663  0.0687 -0.9715
 9458TIP3   OH228337   4.754   0.815   2.714  0.5937 -0.2263  0.0531
 9458TIP3    H128338   4.797   0.841   2.796  1.4994 -0.1499 -0.4419
 9458TIP3    H228339   4.825   0.802   2.652 -0.1637  2.3037 -1.4995
 9459TIP3   OH228340   1.268   2.078   1.244 -0.1138 -0.1588  0.0178
 9459TIP3    H128341   1.177   2.076   1.215 -0.0183  1.1314 -0.4689
 9459TIP3    H228342   1.311   2.138   1.183  0.8863 -0.1445  0.7075
 9460TIP3   OH228343   0.882   0.866   1.409  0.8237  0.1927  0.4319
 9460TIP3    H128344   0.922   0.779   1.414 -1.1722 -0.8497 -0.6375
 9460TIP3    H228345   0.927   0.917   1.477  1.8267 -1.7485  1.3005
 9461TIP3   OH228346   0.517   0.587   4.195 -0.0404  0.5706  0.0859
 9461TIP3    H128347   0.581   0.536   4.245  0.1516 -0.3726 -1.0838
 9461TIP3    H228348   0.432   0.550   4.219  0.1601 -0.9432 -1.4393
 9462TIP3   OH228349   4.230   5.672   3.850  0.3392 -0.2028 -0.1702
 9462TIP3    H128350   4.153   5.622   3.823 -0.4513  1.1573 -0.5500
 9462TIP3    H228351   4.222   5.677   3.945  0.0634 -0.2344 -0.1899
 9463TIP3   OH228352   6.597   5.659   1.094  0.4430  0.1390  0.5881
 9463TIP3    H128353   6.518   5.617   1.127  0.9439 -1.4877 -0.1685
 9463TIP3    H228354   6.669   5.607   1.129  1.0627 -0.0980 -0.9194
 9464TIP3   OH228355   4.176   2.483   3.079 -0.3319  0.8966 -0.3549
 9464TIP3    H128356   4.113   2.555   3.094 -0.4106  0.4545  1.7413
 9464TIP3    H228357   4.143   2.411   3.133  1.4695  0.3385  0.0504
 9465TIP3   OH228358   4.158   1.546   1.590 -0.3476  0.0802 -0.1989
 9465TIP3    H128359   4.153   1.508   1.677 -1.1307  0.1502 -0.2048
 9465TIP3    H228360   4.082   1.603   1.584  0.9309  1.8926 -0.0826
 9466TIP3   OH228361   3.732   3.548   3.843 -0.8156 -0.6805  0.0659
 9466TIP3    H128362   3.721   3.643   3.848 -1.1793 -0.7673  1.0254
 9466TIP3    H228363   3.712   3.527   3.752  0.2312  0.2751 -0.4192
 9467TIP3   OH228364   1.605   3.543   0.661 -0.3656  0.0203  0.2720
 9467TIP3    H128365   1.606   3.557   0.567  2.5063  2.6665  0.5376
 9467TIP3    H228366   1.568   3.624   0.697 -0.2294 -0.4193  1.4676
 9468TIP3   OH228367   1.601   6.764   2.522 -0.3031 -0.2528 -0.2394
 9468TIP3    H128368   1.561   6.813   2.594 -1.2628  0.1019 -0.9803
 9468TIP3    H228369   1.527   6.725   2.476  0.2341  0.0059 -1.3711
 9469TIP3   OH228370   2.582   3.336   4.432  0.0665  0.2260 -0.2480
 9469TIP3    H128371   2.612   3.400   4.368  0.0315 -1.2827 -1.8556
 9469TIP3    H228372   2.526   3.276   4.383 -2.0738  0.4466  1.7636
 9470TIP3   OH228373   6.996   5.749   4.971  0.2490 -0.1853  0.3188
 9470TIP3    H128374   6.922   5.688   4.972 -1.0051  1.2626  0.4964
 9470TIP3    H228375   7.041   5.730   4.888  0.1111 -1.5690  0.5395
 9471TIP3   OH228376   1.649   0.517   2.319  0.0347 -0.6158  0.1572
 9471TIP3    H128377   1.602   0.478   2.393  1.4214  1.4808  2.3033
 9471TIP3    H228378   1.585   0.574   2.277 -0.4177 -0.7409  0.6677
 9472TIP3   OH228379   5.910   1.673   5.473 -0.4871 -0.3673 -0.4524
 9472TIP3    H128380   5.895   1.698   5.564  0.3569 -0.4043 -0.2980
 9472TIP3    H228381   5.829   1.628   5.448 -1.0396  0.3254  0.0251
 9473TIP3   OH228382   5.275   0.789   0.618  0.4748 -0.1904 -0.1051
 9473TIP3    H128383   5.281   0.841   0.539 -0.1149  3.1597  1.8737
 9473TIP3    H228384   5.200   0.731   0.603  1.0563 -0.4487 -2.3489
 9474TIP3   OH228385   5.669   0.221   2.982  0.2672 -0.1626 -0.7418
 9474TIP3    H128386   5.710   0.300   3.016 -0.9452  0.5092 -0.7698
 9474TIP3    H228387   5.722   0.149   3.016  0.4056  0.5947  0.7049
 9475TIP3   OH228388   1.561   3.810   5.363 -0.2661  0.4246 -0.1158
 9475TIP3    H128389   1.634   3.754   5.337  1.4168  2.2617  0.4011
 9475TIP3    H228390   1.538   3.779   5.451  0.5353  0.4097  0.1008
 9476TIP3   OH228391   0.654   0.621   2.074 -0.1442  0.6816  0.3509
 9476TIP3    H128392   0.565   0.609   2.041  0.2845 -1.5684 -0.1746
 9476TIP3    H228393   0.655   0.709   2.110 -2.3218  1.0840 -0.4339
 9477TIP3   OH228394   6.405   5.079   5.251 -0.6992 -0.8596 -0.5009
 9477TIP3    H128395   6.356   5.014   5.301 -0.1214 -1.2653 -0.4468
 9477TIP3    H228396   6.496   5.051   5.258 -0.4196  0.0479 -0.3567
 9478TIP3   OH228397   5.430   2.859   3.583 -0.1514  0.3380 -0.1948
 9478TIP3    H128398   5.522   2.868   3.610 -0.8103  2.1893  1.7069
 9478TIP3    H228399   5.427   2.775   3.537  2.9347  1.3114 -2.4985
 9479TIP3   OH228400   2.786   1.111   0.752 -0.0863  0.4732 -0.2337
 9479TIP3    H128401   2.842   1.109   0.674 -1.4246 -0.1740 -1.2374
 9479TIP3    H228402   2.784   1.021   0.783 -2.1862  0.0003 -1.5013
 9480TIP3   OH228403   6.287   4.810   5.831  0.3100  0.0019 -0.3196
 9480TIP3    H128404   6.193   4.813   5.848  0.1712  2.3715 -1.1303
 9480TIP3    H228405   6.297   4.738   5.769 -0.5599 -1.9411  1.6528
 9481TIP3   OH228406   3.744   5.205   0.653 -0.6317 -0.0121 -0.1158
 9481TIP3    H128407   3.805   5.212   0.580 -0.6497  2.4947  0.0323
 9481TIP3    H228408   3.669   5.260   0.628 -1.3984 -0.4717  1.0690
 9482TIP3   OH228409   5.978   5.104   0.581 -0.3671 -0.1839  0.5555
 9482TIP3    H128410   6.062   5.062   0.599  0.3565  0.2565 -1.5143
 9482TIP3    H228411   5.914   5.034   0.589  0.6387 -1.3966 -1.2667
 9483TIP3   OH228412   4.906   5.886   1.242  0.1514  0.5035 -0.3360
 9483TIP3    H128413   4.980   5.882   1.181  0.0418  2.9478 -0.7349
 9483TIP3    H228414   4.833   5.919   1.190 -1.2140 -1.5434  0.1311
 9484TIP3   OH228415   5.703   0.342   0.007  0.7349  0.6379 -0.6564
 9484TIP3    H128416   5.617   0.365  -0.028  0.5906 -0.6780 -1.2304
 9484TIP3    H228417   5.686   0.272   0.070  1.3743  0.4392 -0.6927
 9485TIP3   OH228418   6.634   1.823   4.731 -0.4637  0.0132  0.1678
 9485TIP3    H128419   6.554   1.823   4.783 -1.9658 -3.7054 -1.7767
 9485TIP3    H228420   6.611   1.870   4.651 -0.5060 -0.4471 -0.0953
 9486TIP3   OH228421   2.441   3.501   5.465 -0.0587  0.2629  0.2722
 9486TIP3    H128422   2.374   3.451   5.419  1.5883 -1.1201 -0.7561
 9486TIP3    H228423   2.405   3.589   5.472 -1.3727 -0.0752 -1.5377
 9487TIP3   OH228424   0.900   4.004   4.001  0.1223  0.5396 -0.2833
 9487TIP3    H128425   0.844   3.927   3.998  0.1733  0.5385 -1.9699
 9487TIP3    H228426   0.865   4.056   4.074 -0.7322 -0.4367  0.0261
 9488TIP3   OH228427   4.344   6.226   2.544  0.6372  0.5099  0.5398
 9488TIP3    H128428   4.362   6.132   2.536 -1.4197  0.0832  0.4980
 9488TIP3    H228429   4.361   6.245   2.636 -1.6289 -0.5685  1.2409
 9489TIP3   OH228430   1.420   2.323   0.490  0.5168 -0.7732  0.3092
 9489TIP3    H128431   1.419   2.371   0.407  1.0654  1.3170  1.4530
 9489TIP3    H228432   1.328   2.316   0.515  0.3921 -0.8716 -0.1745
 9490TIP3   OH228433   0.796   3.565   0.657 -0.6311  0.0135 -0.1548
 9490TIP3    H128434   0.859   3.628   0.692 -0.5652 -0.2235  0.1559
 9490TIP3    H228435   0.822   3.552   0.566 -0.1251 -0.2152  0.0199
 9491TIP3   OH228436   0.207   4.624   4.823 -0.7354  0.1705  0.1014
 9491TIP3    H128437   0.301   4.608   4.829 -0.6993  0.2949 -0.1188
 9491TIP3    H228438   0.188   4.622   4.729 -0.5094  2.5493 -0.0617
 9492TIP3   OH228439   0.395   1.436   3.014 -0.1073  0.5503  0.1798
 9492TIP3    H128440   0.392   1.358   3.069 -1.6203  0.4067 -0.0605
 9492TIP3    H228441   0.463   1.418   2.950 -0.6457 -0.7023 -0.0575
 9493TIP3   OH228442   2.886   6.494   4.990 -0.2525 -1.1245 -0.2405
 9493TIP3    H128443   2.793   6.514   5.000  0.3643  1.3857  1.5429
 9493TIP3    H228444   2.920   6.493   5.080  1.8949  0.7597 -0.9477
 9494TIP3   OH228445   0.683   4.613   3.263 -0.0964 -0.1454  0.9302
 9494TIP3    H128446   0.699   4.699   3.302  0.1097  0.0925  0.3410
 9494TIP3    H228447   0.645   4.561   3.333  0.6040  0.1610  1.5462
 9495TIP3   OH228448   4.738   1.731   4.177  0.2648 -0.4945 -0.4357
 9495TIP3    H128449   4.784   1.815   4.187 -1.4517  0.3151  1.1207
 9495TIP3    H228450   4.705   1.733   4.087  2.2796 -0.6289 -1.2344
 9496TIP3   OH228451   3.871   3.734   5.897  0.0419 -0.0571  0.1663
 9496TIP3    H128452   3.837   3.717   5.809  0.1505  0.1678  0.0781
 9496TIP3    H228453   3.914   3.820   5.889  1.8321 -0.9220 -0.0819
 9497TIP3   OH228454   4.055   1.082   0.646  0.0634  0.7410  0.3974
 9497TIP3    H128455   4.040   1.170   0.679  0.1090  0.0713  2.3389
 9497TIP3    H228456   4.134   1.053   0.691 -0.1257 -0.4077  0.0186
 9498TIP3   OH228457   2.230   1.964   4.660  0.1004  1.0745 -0.4199
 9498TIP3    H128458   2.273   1.897   4.607  0.0216 -0.6699  1.5981
 9498TIP3    H228459   2.302   2.014   4.698  0.1964  1.2113 -0.7747
 9499TIP3   OH228460   5.372   0.730   1.760 -0.4830  0.0546 -0.0732
 9499TIP3    H128461   5.398   0.755   1.849  0.5363 -1.2330  0.0225
 9499TIP3    H228462   5.311   0.798   1.733  0.3108  1.2688  1.0636
 9500TIP3   OH228463   5.402   3.277   4.003  0.5674 -0.0107 -0.2860
 9500TIP3    H128464   5.312   3.282   3.971  0.0164 -1.4086  0.9713
 9500TIP3    H228465   5.450   3.234   3.932 -0.5953 -2.8715  0.5503
 9501TIP3   OH228466   4.231   0.603   4.119  0.0596 -0.0665  0.3383
 9501TIP3    H128467   4.253   0.683   4.071 -2.8354  0.0286 -1.0973
 9501TIP3    H228468   4.229   0.629   4.211  0.6358  1.1238  0.0293
 9502TIP3   OH228469   0.432   0.145   1.705 -0.2993 -0.3457 -0.9372
 9502TIP3    H128470   0.477   0.121   1.624 -2.6187 -0.8344 -2.1665
 9502TIP3    H228471   0.351   0.094   1.704 -0.1934 -0.7862  1.9971
 9503TIP3   OH228472   0.544  -0.016   0.911  0.5773 -0.1778  0.4452
 9503TIP3    H128473   0.533   0.076   0.889  0.3431 -0.2311  0.3321
 9503TIP3    H228474   0.551  -0.018   1.006  1.2381  0.0200  0.4018
 9504TIP3   OH228475   6.241   2.120   2.617 -0.7016 -0.0734  0.5224
 9504TIP3    H128476   6.183   2.070   2.674  0.8208 -0.7065  1.5662
 9504TIP3    H228477   6.242   2.208   2.656 -1.8982  0.3034 -0.2283
 9505TIP3   OH228478   3.407   1.914   4.243  0.2306 -0.2212 -0.0384
 9505TIP3    H128479   3.397   1.909   4.338 -0.6903  0.4535 -0.0927
 9505TIP3    H228480   3.422   1.823   4.216  2.5124 -0.2177  0.9276
 9506TIP3   OH228481   3.236   5.517   5.260 -0.0696 -0.4028 -0.2815
 9506TIP3    H128482   3.169   5.471   5.309  0.5011 -0.2250  0.7053
 9506TIP3    H228483   3.189   5.587   5.214 -0.4757  0.2513  1.0586
 9507TIP3   OH228484   4.009   1.057   0.145 -0.2096  0.1203 -0.4040
 9507TIP3    H128485   3.989   0.997   0.218  0.4105  1.4458  0.9023
 9507TIP3    H228486   3.942   1.036   0.079 -1.8775  0.0271  1.2218
 9508TIP3   OH228487   4.604   0.341   1.990  0.4377 -0.4798  0.2489
 9508TIP3    H128488   4.596   0.274   1.922 -0.4861 -2.1012  1.8553
 9508TIP3    H228489   4.514   0.356   2.019  0.7518  0.6845  0.6679
 9509TIP3   OH228490   1.525   2.494   0.068 -0.6577 -0.1455  0.7857
 9509TIP3    H128491   1.580   2.451   0.133 -0.3736 -0.1379  0.5537
 9509TIP3    H228492   1.435   2.479   0.098 -0.6357 -1.9755  0.0566
 9510TIP3   OH228493   1.002   1.962   5.278  0.0620  0.6354 -0.5481
 9510TIP3    H128494   1.093   1.991   5.289  0.1303  0.1794  0.1596
 9510TIP3    H228495   0.952   2.043   5.272  0.5132  0.8925 -0.8984
 9511TIP3   OH228496   6.626   0.326   0.291 -0.3140 -0.2493 -0.0931
 9511TIP3    H128497   6.659   0.288   0.372  0.4027 -1.9317 -1.1054
 9511TIP3    H228498   6.574   0.401   0.318 -0.3237 -0.9384  1.9252
 9512TIP3   OH228499   4.011   5.253   0.099 -0.6356  0.7026  0.3875
 9512TIP3    H128500   3.962   5.294   0.028  1.8782  1.7590 -0.8674
 9512TIP3    H228501   4.076   5.319   0.124  0.1400 -0.5914  1.9816
 9513TIP3   OH228502   6.979   1.100   2.072  0.3872 -0.3582 -0.2634
 9513TIP3    H128503   7.044   1.167   2.093  0.1826 -0.1022 -0.4360
 9513TIP3    H228504   7.026   1.037   2.017  0.3127  0.2032 -0.9983
 9514TIP3   OH228505   5.463   1.542   5.592 -0.1266  0.0264 -1.2489
 9514TIP3    H128506   5.409   1.471   5.557 -1.5863  1.1117 -1.2890
 9514TIP3    H228507   5.439   1.547   5.685  0.8853 -0.3174 -0.9540
 9515TIP3   OH228508   0.246   1.480   5.347 -0.0092 -0.8732  0.0585
 9515TIP3    H128509   0.196   1.428   5.283  0.0535 -0.2087 -0.5371
 9515TIP3    H228510   0.336   1.480   5.313 -0.1783  0.3669 -0.4415
 9516TIP3   OH228511   6.047   4.747   2.349  0.3273  0.0367 -0.3818
 9516TIP3    H128512   6.014   4.660   2.372  1.4485 -0.6523 -1.2608
 9516TIP3    H228513   6.024   4.802   2.424  2.1035 -1.6593  1.5645
 9517TIP3   OH228514   1.614   2.676   0.536 -0.0185  0.0497 -0.1658
 9517TIP3    H128515   1.538   2.716   0.579 -0.0970  1.5295 -1.6141
 9517TIP3    H228516   1.688   2.729   0.564  0.1783 -0.0406 -0.5131
 9518TIP3   OH228517   0.545   4.945   0.381  0.3526 -0.5305  0.0224
 9518TIP3    H128518   0.592   4.903   0.309 -0.0683  0.0336 -0.5842
 9518TIP3    H228519   0.477   4.997   0.339 -0.4985 -0.9200  0.8673
 9519TIP3   OH228520   0.361   5.468   5.895  0.1602 -0.4652  0.1041
 9519TIP3    H128521   0.365   5.471   5.799 -1.7250 -0.5873 -0.0217
 9519TIP3    H228522   0.280   5.515   5.917  2.0604  2.2791  1.8627
 9520TIP3   OH228523   5.713   4.636   1.562 -0.5880 -0.8085 -0.5388
 9520TIP3    H128524   5.752   4.576   1.499  0.7703 -0.4347 -0.0843
 9520TIP3    H228525   5.761   4.620   1.644 -0.3743  0.6966 -0.3403
 9521TIP3   OH228526   3.683   0.631   0.492  0.2986  0.2560  0.1277
 9521TIP3    H128527   3.695   0.601   0.402 -2.3801 -0.5802 -0.0312
 9521TIP3    H228528   3.673   0.726   0.484  1.3251  0.3431 -0.2799
 9522TIP3   OH228529   2.232   5.362   1.561  0.1583 -0.4914  0.0180
 9522TIP3    H128530   2.274   5.285   1.599  0.6567  0.6369  1.8597
 9522TIP3    H228531   2.144   5.363   1.598  0.2050 -0.0818  0.1227
 9523TIP3   OH228532   6.843   0.414   0.072  0.1997 -0.3564 -0.0693
 9523TIP3    H128533   6.895   0.341   0.038  1.7301 -0.4043  2.1429
 9523TIP3    H228534   6.777   0.372   0.127 -1.9212 -0.2557 -2.3933
 9524TIP3   OH228535   0.056   5.694   5.223  0.4035 -0.1403 -0.2199
 9524TIP3    H128536   0.077   5.717   5.132  0.7981  1.4787  0.2522
 9524TIP3    H228537  -0.039   5.704   5.229  0.3945 -0.1065 -0.4241
 9525TIP3   OH228538   3.752   1.196   4.229 -0.0909  0.0755 -0.0454
 9525TIP3    H128539   3.761   1.150   4.312 -0.3245  2.1056  1.1891
 9525TIP3    H228540   3.743   1.127   4.164  0.7481 -1.5981  1.5217
 9526TIP3   OH228541   4.122   5.388   1.712 -0.7705  0.0078 -0.0544
 9526TIP3    H128542   4.125   5.478   1.678 -1.8045  0.2438  0.4315
 9526TIP3    H228543   4.208   5.351   1.690 -0.9410  0.5555 -1.7808
 9527TIP3   OH228544   5.892   5.699   3.951  0.3462  0.1840  0.0042
 9527TIP3    H128545   5.928   5.728   4.035  1.2557  1.3745 -0.7518
 9527TIP3    H228546   5.812   5.750   3.940 -1.4765 -2.1479  1.4821
 9528TIP3   OH228547   6.823   1.208   4.403  0.1775 -0.4982 -0.3628
 9528TIP3    H128548   6.754   1.222   4.338  0.6583 -0.5011 -0.8762
 9528TIP3    H228549   6.825   1.290   4.453  0.0152 -0.3847 -0.5400
 9529TIP3   OH228550   5.130   4.357   1.186 -0.5609 -0.0553  0.3433
 9529TIP3    H128551   5.059   4.412   1.154  0.4904  0.4538 -1.1990
 9529TIP3    H228552   5.169   4.408   1.258 -1.2504  0.0022  0.6839
 9530TIP3   OH228553   6.323   1.295   5.832 -0.0211  0.5728 -0.5678
 9530TIP3    H128554   6.390   1.320   5.896  1.5728 -1.8426 -1.1476
 9530TIP3    H228555   6.254   1.254   5.885  0.0312  0.9722 -0.1825
 9531TIP3   OH228556   3.298   6.255   4.133  0.1202  0.0504  0.4641
 9531TIP3    H128557   3.368   6.318   4.120 -0.3910  0.1496 -2.5863
 9531TIP3    H228558   3.343   6.171   4.141  0.6910  0.1038 -1.5055
 9532TIP3   OH228559   5.996   2.912   4.858  0.1215  0.4219 -0.1688
 9532TIP3    H128560   5.979   2.822   4.887 -0.0821  1.1616  2.1937
 9532TIP3    H228561   6.090   2.925   4.873 -0.0443  0.9104  0.5017
 9533TIP3   OH228562   1.279   0.602   1.361 -0.2552 -0.1313 -0.1539
 9533TIP3    H128563   1.302   0.660   1.288  0.2594 -0.3348 -0.1599
 9533TIP3    H228564   1.363   0.583   1.403 -0.4598 -0.6246  0.0366
 9534TIP3   OH228565   6.167   0.535   0.621  0.0376 -0.1831  0.0183
 9534TIP3    H128566   6.071   0.530   0.620 -0.0135  0.6824  0.2774
 9534TIP3    H228567   6.187   0.608   0.562  0.5107  0.0314  0.4441
 9535TIP3   OH228568   6.071   1.182   0.722  0.3916  0.6933  0.3487
 9535TIP3    H128569   6.144   1.203   0.781  1.3174  1.3302 -0.9804
 9535TIP3    H228570   6.065   1.257   0.663 -1.1869  0.5368  0.2441
 9536TIP3   OH228571   4.085   4.396   4.881 -0.5040 -0.0180 -0.1128
 9536TIP3    H128572   4.089   4.357   4.794  1.1556  0.2943 -0.2253
 9536TIP3    H228573   4.170   4.439   4.891 -1.2957  1.3757  1.0051
 9537TIP3   OH228574   4.199   5.938   1.261  0.1592 -0.2140  0.1022
 9537TIP3    H128575   4.118   5.988   1.260  0.2276  0.0142  2.0313
 9537TIP3    H228576   4.196   5.885   1.182 -2.2910 -0.8335  0.5366
 9538TIP3   OH228577   0.724   0.697   3.557  0.2993 -0.0334 -0.4425
 9538TIP3    H128578   0.786   0.683   3.629  0.5271 -2.6918 -1.0679
 9538TIP3    H228579   0.672   0.773   3.585 -0.8944 -2.0125  3.4883
 9539TIP3   OH228580   0.777   3.608   4.225  0.0831 -0.7177  0.3944
 9539TIP3    H128581   0.800   3.654   4.144  2.5137 -0.9339  0.8669
 9539TIP3    H228582   0.686   3.582   4.213 -0.7279  2.2135 -0.8460
 9540TIP3   OH228583   1.127   5.629   0.929  0.1899  0.0976 -0.2857
 9540TIP3    H128584   1.216   5.660   0.946 -0.2836  0.6707  1.3513
 9540TIP3    H228585   1.111   5.564   0.997 -1.0906  0.9534  0.2614
 9541TIP3   OH228586   2.543   3.300   3.263  0.0023 -0.7162 -0.2243
 9541TIP3    H128587   2.612   3.268   3.205  0.9644  0.7446  0.0439
 9541TIP3    H228588   2.463   3.291   3.212  0.0580 -4.0812  0.0889
 9542TIP3   OH228589   1.743   2.816   2.944  0.1228 -0.0790  0.1096
 9542TIP3    H128590   1.745   2.722   2.926  2.1702  0.2967 -2.1215
 9542TIP3    H228591   1.663   2.829   2.995 -0.8300 -2.8512 -0.5210
 9543TIP3   OH228592   2.953   1.640   0.012 -0.0593 -0.2181  0.0339
 9543TIP3    H128593   2.891   1.569  -0.006 -1.5665  1.5402 -2.3515
 9543TIP3    H228594   2.967   1.636   0.106 -0.5867 -3.2170  0.0812
 9544TIP3   OH228595   1.759   5.987   5.902  0.1085  0.0498  0.1489
 9544TIP3    H128596   1.722   5.980   5.814 -0.1018  1.2030  0.1235
 9544TIP3    H228597   1.853   5.999   5.889  0.3954 -1.8604  0.1785
 9545TIP3   OH228598   2.733   1.483   3.806  0.0385  0.6887 -0.1108
 9545TIP3    H128599   2.779   1.561   3.838  1.0206  0.2093 -0.3092
 9545TIP3    H228600   2.643   1.496   3.834  0.0706  2.1390 -0.5614
 9546TIP3   OH228601   5.439   5.102   1.561  0.5867 -0.1185 -0.5648
 9546TIP3    H128602   5.483   5.040   1.503 -1.6887 -1.7368 -0.6986
 9546TIP3    H228603   5.472   5.081   1.648  1.0441 -0.4286 -0.8083
 9547TIP3   OH228604   4.426   4.387   5.282  0.0725  0.2807 -0.8281
 9547TIP3    H128605   4.469   4.413   5.201 -0.2888 -1.4285 -1.6216
 9547TIP3    H228606   4.341   4.353   5.255 -1.3450  2.4258  0.5868
 9548TIP3   OH228607   1.258   0.668   4.009 -0.1642  0.2728 -0.0876
 9548TIP3    H128608   1.294   0.756   3.996  0.0380  0.0756 -0.8660
 9548TIP3    H228609   1.206   0.651   3.931 -1.6550  0.3939  0.8493
 9549TIP3   OH228610   0.330   2.202   0.474 -0.2739 -0.0925  0.3631
 9549TIP3    H128611   0.413   2.197   0.522  0.9750  1.3738 -1.4878
 9549TIP3    H228612   0.318   2.114   0.438  0.4269 -0.3481  0.7228
 9550TIP3   OH228613   3.235   6.112   0.039  0.2468  0.0186 -0.2943
 9550TIP3    H128614   3.325   6.141   0.050 -0.1246  1.2368 -0.2804
 9550TIP3    H228615   3.198   6.173  -0.025 -0.6350 -0.3025 -0.1071
 9551TIP3   OH228616   1.664   2.118   1.996  0.1390 -0.0564  0.1843
 9551TIP3    H128617   1.756   2.095   2.011  0.4548  0.8563 -0.2615
 9551TIP3    H228618   1.660   2.212   2.016 -0.8105 -0.1932  0.6892
 9552TIP3   OH228619   5.933   4.434   2.765 -0.6135  0.1766  0.5095
 9552TIP3    H128620   5.879   4.374   2.714  0.8670 -1.5365  0.8582
 9552TIP3    H228621   5.900   4.426   2.854  0.5883 -1.4149  0.8564
 9553TIP3   OH228622   6.582   5.574   3.532 -0.1892 -0.0511 -0.1354
 9553TIP3    H128623   6.541   5.583   3.446  0.1343  0.0024 -0.2831
 9553TIP3    H228624   6.561   5.485   3.559 -0.3111 -0.0610 -0.2573
 9554TIP3   OH228625   1.636   3.082   1.775  0.4148  0.1352 -0.1408
 9554TIP3    H128626   1.584   3.024   1.720 -0.4591  0.3682  0.4157
 9554TIP3    H228627   1.616   3.054   1.865  1.4689  0.0476  0.0914
 9555TIP3   OH228628   1.228   5.295   1.787 -0.3665 -0.0079 -0.1029
 9555TIP3    H128629   1.233   5.238   1.711 -1.7353 -1.2001  0.6584
 9555TIP3    H228630   1.171   5.367   1.760 -0.8001 -0.3975 -0.2460
 9556TIP3   OH228631   2.917   5.781   2.861 -1.0589  0.1065 -0.1047
 9556TIP3    H128632   2.910   5.735   2.777  0.6216 -1.2875  0.4568
 9556TIP3    H228633   2.978   5.853   2.844 -0.2130 -0.5536  0.0193
 9557TIP3   OH228634   0.988   4.180   2.795  0.2753  0.2487 -0.4369
 9557TIP3    H128635   1.057   4.229   2.841 -0.6085  1.3774 -0.2663
 9557TIP3    H228636   1.023   4.167   2.707  0.8727  0.4737 -0.2403
 9558TIP3   OH228637   0.419   5.286   5.627  0.4114 -0.3050  0.5593
 9558TIP3    H128638   0.405   5.300   5.533 -0.2127 -1.4585  0.4556
 9558TIP3    H228639   0.493   5.342   5.649 -2.1688  3.5502  0.3991
 9559TIP3   OH228640   4.388   1.678   2.693 -0.6893 -0.6010  0.2122
 9559TIP3    H128641   4.349   1.765   2.696  0.1059 -0.2187  2.9084
 9559TIP3    H228642   4.324   1.622   2.738 -1.2926 -1.5247 -1.6840
 9560TIP3   OH228643   1.733   1.039   4.997  0.1085 -0.2868 -0.5213
 9560TIP3    H128644   1.719   1.075   4.910 -1.1734 -0.6131 -0.4698
 9560TIP3    H228645   1.709   0.947   4.989  1.8211 -0.7877 -0.2657
 9561TIP3   OH228646   2.757   2.041   2.914 -0.2858 -0.3134 -0.5363
 9561TIP3    H128647   2.830   2.030   2.975 -1.1342  0.3009  0.6301
 9561TIP3    H228648   2.778   2.119   2.864  0.8774 -1.3585 -1.7275
 9562TIP3   OH228649   1.972   6.529   5.783  0.2320  0.1291 -0.4733
 9562TIP3    H128650   1.948   6.582   5.707 -2.4770 -0.3817 -0.0934
 9562TIP3    H228651   1.915   6.451   5.776 -0.2636  0.1635  2.1451
 9563TIP3   OH228652   1.728   4.137   1.987 -0.2441 -0.1758  0.7248
 9563TIP3    H128653   1.650   4.084   1.996 -0.2675 -0.0508  1.2532
 9563TIP3    H228654   1.704   4.203   1.921 -0.7544  0.1786  1.2579
 9564TIP3   OH228655   5.458   4.813   2.793  0.3618 -0.4052  0.0762
 9564TIP3    H128656   5.459   4.744   2.726  2.1412 -0.1082 -0.2445
 9564TIP3    H228657   5.537   4.863   2.777  0.0982  0.5374  1.5452
 9565TIP3   OH228658   5.027   5.790   5.665  0.3754 -0.5023 -0.0506
 9565TIP3    H128659   4.991   5.827   5.745  1.9270  0.3943  0.2934
 9565TIP3    H228660   4.975   5.830   5.595 -0.0457 -0.1404  0.4583
 9566TIP3   OH228661   0.363   6.158   2.017  0.4019 -0.6841 -0.2869
 9566TIP3    H128662   0.424   6.222   2.055  0.4172 -0.1427 -1.2005
 9566TIP3    H228663   0.290   6.155   2.079 -0.2038  1.1981 -0.8405
 9567TIP3   OH228664   2.797   6.456   1.267 -1.1755 -0.5910  0.0537
 9567TIP3    H128665   2.712   6.439   1.308 -0.6820 -0.1758  1.3188
 9567TIP3    H228666   2.779   6.459   1.174 -3.0546  2.1004  0.3996
 9568TIP3   OH228667   3.249   0.382   4.362  0.7134 -0.5536  0.2976
 9568TIP3    H128668   3.187   0.346   4.299 -0.5823 -0.0762  1.2502
 9568TIP3    H228669   3.267   0.471   4.330 -0.7174  0.0565  1.0694
 9569TIP3   OH228670   6.175   2.879   0.868 -0.6670 -0.4376 -0.2417
 9569TIP3    H128671   6.262   2.914   0.850 -0.6960 -0.5903 -0.6842
 9569TIP3    H228672   6.185   2.835   0.953 -0.3221 -0.4242 -0.2723
 9570TIP3   OH228673   5.306   6.318   5.824 -0.1147 -0.7689  0.6119
 9570TIP3    H128674   5.263   6.383   5.768 -1.3353  0.2004  2.5621
 9570TIP3    H228675   5.234   6.271   5.866  0.7224 -3.6967 -0.9481
 9571TIP3   OH228676   5.455   6.314   5.084 -0.5313  0.5814 -0.0959
 9571TIP3    H128677   5.507   6.394   5.077 -0.7275  0.7182  0.0012
 9571TIP3    H228678   5.488   6.269   5.162  0.5277 -0.1229 -0.9161
 9572TIP3   OH228679   2.756   3.861   2.618 -0.1744 -0.2231 -0.1716
 9572TIP3    H128680   2.841   3.904   2.623  0.1828 -0.9160 -0.2131
 9572TIP3    H228681   2.773   3.779   2.572 -0.6019 -1.0253  1.0786
 9573TIP3   OH228682   2.661   4.018   4.498  0.2442 -0.2378 -0.0668
 9573TIP3    H128683   2.727   3.973   4.551  0.6497  0.4419  0.0054
 9573TIP3    H228684   2.710   4.077   4.441 -0.2897  0.3117  0.0247
 9574TIP3   OH228685   1.711   1.213   1.784  0.0398 -0.5170 -0.2545
 9574TIP3    H128686   1.805   1.204   1.800  0.1893  1.5988  0.4337
 9574TIP3    H228687   1.670   1.166   1.857  0.5896 -0.4033  0.1378
 9575TIP3   OH228688   0.980   5.973   2.043 -0.0388 -0.6165 -0.1296
 9575TIP3    H128689   1.011   6.047   2.097  2.0989 -3.0342  2.2518
 9575TIP3    H228690   0.888   5.963   2.067 -0.3643  1.1565 -0.4618
 9576TIP3   OH228691   4.450   1.523   4.225 -0.4183  0.2081  0.2814
 9576TIP3    H128692   4.429   1.536   4.318  0.2394 -0.0171  0.4724
 9576TIP3    H228693   4.544   1.541   4.219  0.0172 -1.8661  0.0878
 9577TIP3   OH228694   7.009   0.314   5.286 -0.1173  0.1969  0.5706
 9577TIP3    H128695   6.937   0.336   5.228  1.4719 -1.5750 -2.2813
 9577TIP3    H228696   7.073   0.384   5.273  0.6484 -0.6925 -0.6577
 9578TIP3   OH228697   0.143   4.782   1.313 -0.6292  0.2086  0.2544
 9578TIP3    H128698   0.130   4.796   1.219  2.5657 -2.6983 -0.8185
 9578TIP3    H228699   0.222   4.831   1.334 -1.4916  1.1018  1.5977
 9579TIP3   OH228700   5.417   5.005   2.975 -0.4741  0.3322 -0.1358
 9579TIP3    H128701   5.471   5.084   2.981 -1.7458  1.1951  0.2005
 9579TIP3    H228702   5.446   4.963   2.894  0.9583  0.5650  0.2224
 9580TIP3   OH228703   3.627   3.833   3.713  0.1059 -0.5625  0.0463
 9580TIP3    H128704   3.628   3.875   3.798 -0.0235  0.5425 -0.4895
 9580TIP3    H228705   3.597   3.900   3.652  1.8949 -0.7652 -1.1545
 9581TIP3   OH228706   4.779   1.851   5.241 -0.1890  0.6060  0.3268
 9581TIP3    H128707   4.814   1.940   5.234 -0.5470  0.6788 -0.6206
 9581TIP3    H228708   4.720   1.842   5.166  0.8475 -0.8926 -0.3681
 9582TIP3   OH228709   2.926   2.957   2.497 -0.1318 -0.0709 -0.1625
 9582TIP3    H128710   2.842   2.944   2.454 -1.2201  2.1596  1.1018
 9582TIP3    H228711   2.940   3.052   2.494  1.0093 -0.1119  2.0087
 9583TIP3   OH228712   5.655   6.077   5.745 -0.0634 -0.4842  0.1667
 9583TIP3    H128713   5.697   6.162   5.731 -0.2186 -0.5245 -0.5582
 9583TIP3    H228714   5.706   6.038   5.816 -0.2705  0.3910  0.8182
 9584TIP3   OH228715   6.139   6.623   4.369  0.5132  0.0229 -0.5491
 9584TIP3    H128716   6.085   6.544   4.362  1.3166 -0.3921 -2.9288
 9584TIP3    H228717   6.161   6.628   4.461  1.6025 -3.3686 -0.4681
 9585TIP3   OH228718   1.411   1.388   0.725 -0.8063  0.4081  0.5268
 9585TIP3    H128719   1.403   1.364   0.632 -0.2549 -1.3250  0.8942
 9585TIP3    H228720   1.336   1.446   0.741 -0.4322  1.4672 -1.1907
 9586TIP3   OH228721   5.170   5.000   2.070  0.2537 -0.2751  0.0412
 9586TIP3    H128722   5.085   4.985   2.110 -0.4711  0.8581 -0.9956
 9586TIP3    H228723   5.151   5.008   1.976  1.6924 -1.3416 -0.3840
 9587TIP3   OH228724   1.085   5.445   0.268  0.2182 -0.2865  0.2655
 9587TIP3    H128725   1.152   5.488   0.321  0.5623  2.2872 -2.0605
 9587TIP3    H228726   1.009   5.502   0.275  0.0865 -0.2018 -1.4698
 9588TIP3   OH228727   7.039   0.488   0.641 -0.3460  0.6068  0.5278
 9588TIP3    H128728   7.081   0.439   0.712  1.1389  0.6736 -0.2608
 9588TIP3    H228729   6.956   0.517   0.678 -0.5053 -1.0521  1.5732
 9589TIP3   OH228730   4.055   0.967   1.445 -0.5192  0.1613 -0.1706
 9589TIP3    H128731   4.025   0.997   1.531  0.2654  0.2174  0.0923
 9589TIP3    H228732   4.000   1.014   1.383 -2.1342 -1.0170  0.3162
 9590TIP3   OH228733   4.402   1.748   3.529 -0.1063  0.1033 -0.5224
 9590TIP3    H128734   4.489   1.770   3.560 -0.7602 -1.6839  3.0371
 9590TIP3    H228735   4.411   1.662   3.490 -0.3557 -0.4530  0.6022
 9591TIP3   OH228736   1.022   0.981   1.625  0.3146  0.0642 -0.8146
 9591TIP3    H128737   1.111   0.968   1.657  0.3830  1.0260 -0.5777
 9591TIP3    H228738   0.967   0.978   1.704  0.0439 -1.1092 -1.0167
 9592TIP3   OH228739   5.427   0.254   0.323  0.4682  0.3685  0.3252
 9592TIP3    H128740   5.411   0.342   0.289  1.8693  0.7091  0.4850
 9592TIP3    H228741   5.382   0.253   0.407  0.2479  0.8587  0.2208
 9593TIP3   OH228742   6.762   4.610   5.072  0.2898  0.0109  0.1530
 9593TIP3    H128743   6.858   4.612   5.074  0.2843  1.7149 -0.0118
 9593TIP3    H228744   6.741   4.569   4.988  0.8452 -1.4468  0.6949
 9594TIP3   OH228745   6.944   2.107   3.597 -0.6324 -0.7464  0.3019
 9594TIP3    H128746   6.855   2.134   3.621 -0.6541 -1.5152  1.1611
 9594TIP3    H228747   6.950   2.017   3.627 -0.0686 -1.2202 -1.1661
 9595TIP3   OH228748   0.046   6.370   1.765 -0.1893  0.1266 -0.1121
 9595TIP3    H128749  -0.021   6.410   1.710 -1.5812 -0.6026  0.9741
 9595TIP3    H228750  -0.004   6.319   1.829  1.4129 -2.8365 -1.0092
 9596TIP3   OH228751   5.614   0.744   2.496  0.0841  0.1317  0.3024
 9596TIP3    H128752   5.700   0.786   2.496  0.8655 -1.3827  0.6679
 9596TIP3    H228753   5.600   0.718   2.404  0.6522 -0.7935  0.4595
 9597TIP3   OH228754   1.807   2.796   3.384 -0.2245  0.4874 -0.2119
 9597TIP3    H128755   1.727   2.769   3.429  0.2755  0.7817  0.8923
 9597TIP3    H228756   1.778   2.863   3.322 -1.2910 -1.6278 -2.1244
 9598TIP3   OH228757   3.956   5.419   0.700 -0.1489  0.4920 -0.1997
 9598TIP3    H128758   3.907   5.364   0.761 -0.9157  1.6098  0.2289
 9598TIP3    H228759   3.997   5.357   0.639 -1.3732 -0.5170 -0.0350
 9599TIP3   OH228760   6.673   4.904   3.681 -0.1106  0.0750 -0.2889
 9599TIP3    H128761   6.673   4.815   3.646 -0.2772 -0.0654  0.0621
 9599TIP3    H228762   6.587   4.914   3.722  1.1825 -1.0015  3.0903
 9600TIP3   OH228763   4.589   0.454   3.743  0.0368 -0.0560 -0.0850
 9600TIP3    H128764   4.538   0.457   3.824 -1.3009 -1.1828 -0.8362
 9600TIP3    H228765   4.674   0.418   3.770 -0.3252 -0.2607  0.8375
 9601TIP3   OH228766   3.280   0.542   0.071  0.2406  0.4594  0.0578
 9601TIP3    H128767   3.218   0.514   0.003 -0.6052  1.0086  0.5751
 9601TIP3    H228768   3.231   0.531   0.152  1.4295 -0.7019  0.6451
 9602TIP3   OH228769   3.377   3.322   5.587 -0.3231 -0.5777 -0.1921
 9602TIP3    H128770   3.455   3.267   5.584 -0.9926 -1.5906  0.4703
 9602TIP3    H228771   3.307   3.268   5.551 -0.6460  0.5040 -1.2688
 9603TIP3   OH228772   7.168   0.721   2.315 -0.9247 -0.1940  0.3256
 9603TIP3    H128773   7.102   0.784   2.345 -1.4863 -0.6680  0.0845
 9603TIP3    H228774   7.121   0.639   2.307 -0.4801 -0.3582 -0.6402
 9604TIP3   OH228775   5.632   4.891   1.497  0.1234  0.3260 -0.3397
 9604TIP3    H128776   5.660   4.800   1.501  1.5766  0.7839  0.3111
 9604TIP3    H228777   5.701   4.940   1.540 -0.9167  1.6926 -0.1444
 9605TIP3   OH228778   1.266   4.361   0.408  0.0339  0.1174 -0.3679
 9605TIP3    H128779   1.195   4.425   0.400 -0.2097 -0.0161  0.6128
 9605TIP3    H228780   1.319   4.394   0.480  0.8565  0.0928 -0.9457
 9606TIP3   OH228781   3.083   5.945   3.407  0.2392  0.3359  0.0038
 9606TIP3    H128782   3.159   5.891   3.430  1.5793  1.0450 -2.4257
 9606TIP3    H228783   3.009   5.900   3.447  1.6271 -1.7155  0.4420
 9607TIP3   OH228784   2.321   0.685   0.662  0.3949  0.1415  0.2087
 9607TIP3    H128785   2.326   0.626   0.586 -2.0702 -0.8595  0.7134
 9607TIP3    H228786   2.336   0.628   0.737  3.8840  1.3137  0.5592
 9608TIP3   OH228787   3.502   5.925   0.831 -0.3740  0.0819  0.4680
 9608TIP3    H128788   3.548   5.850   0.792 -0.5437  0.8658 -1.3421
 9608TIP3    H228789   3.572   5.987   0.852 -0.4485  0.6312 -0.8362
 9609TIP3   OH228790   3.591   5.150   5.448 -0.1906 -0.0210  0.4699
 9609TIP3    H128791   3.683   5.123   5.438  0.2668  1.9820 -1.6382
 9609TIP3    H228792   3.554   5.138   5.361 -1.5442  0.5847  0.9471
 9610TIP3   OH228793   2.478   2.345   2.152 -0.2312 -0.2537  0.0356
 9610TIP3    H128794   2.399   2.348   2.099  0.3416 -2.1655 -1.0203
 9610TIP3    H228795   2.550   2.351   2.089  0.4771  0.1407  0.8505
 9611TIP3   OH228796   4.202   4.297   5.160 -0.3518  0.4011 -0.2632
 9611TIP3    H128797   4.192   4.206   5.188  0.5300 -0.2276 -1.8478
 9611TIP3    H228798   4.197   4.293   5.064 -0.3880  2.0373 -0.3565
 9612TIP3   OH228799   5.683   4.497   0.198 -0.0260 -0.6363  0.1569
 9612TIP3    H128800   5.658   4.506   0.106 -0.0015 -1.9008  0.0101
 9612TIP3    H228801   5.766   4.451   0.196  0.0450 -0.5427  0.8120
 9613TIP3   OH228802   4.944   2.019   4.922 -0.2787  0.0489  0.3503
 9613TIP3    H128803   4.935   2.059   5.008 -0.8136 -0.3208  0.4670
 9613TIP3    H228804   5.038   2.000   4.914  0.3996  3.2406 -0.5672
 9614TIP3   OH228805   5.791   3.056   3.982  0.1111  0.2873 -0.5743
 9614TIP3    H128806   5.824   2.972   3.952 -0.3790 -0.0778 -0.1026
 9614TIP3    H228807   5.850   3.082   4.052  1.1167  1.0300 -1.6390
 9615TIP3   OH228808   4.881   1.359   1.313 -0.3147 -0.0831 -0.1012
 9615TIP3    H128809   4.894   1.276   1.268 -2.5196 -0.7136  0.3166
 9615TIP3    H228810   4.791   1.385   1.291 -1.0151  0.2631  2.7476
 9616TIP3   OH228811   4.493   4.393   0.569 -0.0240  0.4426 -0.1368
 9616TIP3    H128812   4.538   4.454   0.510 -0.1327  2.2767  1.5856
 9616TIP3    H228813   4.563   4.354   0.621 -0.1499  1.0536  0.5064
 9617TIP3   OH228814   6.762   0.710   4.169 -0.4044  0.0463 -0.3047
 9617TIP3    H128815   6.703   0.691   4.096 -1.4004  0.6902  0.3077
 9617TIP3    H228816   6.848   0.721   4.129 -1.3169  2.7619 -1.7253
 9618TIP3   OH228817   1.823   3.542   5.034  0.0496  0.0488  0.4702
 9618TIP3    H128818   1.870   3.574   4.958 -0.7101  0.3068  0.0966
 9618TIP3    H228819   1.753   3.487   4.998  0.8175 -1.3597  1.0618
 9619TIP3   OH228820   4.667   4.962   5.284 -0.2326  0.2872 -0.4068
 9619TIP3    H128821   4.754   4.953   5.323 -0.7117  0.4751  0.7329
 9619TIP3    H228822   4.612   4.902   5.334 -0.8513  0.5020 -0.8221
 9620TIP3   OH228823   3.804   2.019   1.082 -0.0501  0.2650  0.4378
 9620TIP3    H128824   3.801   2.029   1.177 -0.8393 -1.7302  0.6758
 9620TIP3    H228825   3.715   2.037   1.053  0.6501  2.9938 -0.2359
 9621TIP3   OH228826   4.000   1.305   2.751 -0.3665 -0.9500 -0.2659
 9621TIP3    H128827   3.984   1.216   2.780  0.6952 -0.6839  1.2752
 9621TIP3    H228828   3.941   1.318   2.677 -2.7152 -1.9494  1.3144
 9622TIP3   OH228829   5.977   6.003   3.825  0.2060 -0.2055 -0.0120
 9622TIP3    H128830   5.998   5.915   3.858  0.3000 -0.9518 -1.9140
 9622TIP3    H228831   6.005   6.062   3.895 -0.8829 -1.7131  1.8093
 9623TIP3   OH228832   0.637   0.420   3.196 -0.6717 -0.2095 -1.0980
 9623TIP3    H128833   0.586   0.406   3.116 -0.1366  2.4946 -2.0121
 9623TIP3    H228834   0.638   0.515   3.207 -0.1969 -0.4657  1.8160
 9624TIP3   OH228835   6.349   1.158   4.033 -0.2936  0.4887  0.2014
 9624TIP3    H128836   6.384   1.170   3.945  0.5103  0.0698  0.4540
 9624TIP3    H228837   6.256   1.181   4.026 -0.1769  0.6993 -0.6930
 9625TIP3   OH228838   4.301   6.432   4.779 -0.3176  0.1339 -0.3427
 9625TIP3    H128839   4.227   6.375   4.759  0.7075 -2.3289  2.2176
 9625TIP3    H228840   4.352   6.434   4.698 -0.9367 -1.7670 -0.8307
 9626TIP3   OH228841   2.940   0.889   3.225 -0.5094  0.1375 -0.5515
 9626TIP3    H128842   2.911   0.798   3.216  2.7007 -1.0778 -0.1490
 9626TIP3    H228843   2.987   0.907   3.144 -0.8332  1.3671 -0.4863
 9627TIP3   OH228844   6.992   5.826   0.395  0.2235 -0.4757 -0.3593
 9627TIP3    H128845   6.968   5.737   0.420  3.8094 -1.2679  0.7850
 9627TIP3    H228846   6.989   5.876   0.477  1.4306 -0.3924 -0.3523
 9628TIP3   OH228847   0.221   2.351   0.826  0.0232 -0.0390  0.2687
 9628TIP3    H128848   0.310   2.384   0.814  0.3451  0.0935  2.4917
 9628TIP3    H228849   0.231   2.279   0.889 -1.6908  1.9006  2.9881
 9629TIP3   OH228850   6.095   3.562   5.031  0.3719 -0.0721  0.1785
 9629TIP3    H128851   6.074   3.654   5.042 -2.0814 -0.4531 -0.6857
 9629TIP3    H228852   6.161   3.544   5.098 -1.6448  1.5090  2.7785
 9630TIP3   OH228853   1.890   5.348   5.798 -0.1657  0.3312 -0.2443
 9630TIP3    H128854   1.923   5.407   5.867 -1.7307  0.9472  0.0199
 9630TIP3    H228855   1.829   5.402   5.748 -0.3349 -0.6025 -1.0628
 9631TIP3   OH228856   6.835   0.607   4.783 -0.4867 -0.0445 -0.1836
 9631TIP3    H128857   6.813   0.526   4.829  0.2597 -0.3966 -0.4253
 9631TIP3    H228858   6.858   0.579   4.695 -0.0197  0.3982 -0.2071
 9632TIP3   OH228859   4.297   3.457   1.926 -0.7265 -0.2347  0.1290
 9632TIP3    H128860   4.332   3.520   1.989  0.1819  0.0942 -0.6640
 9632TIP3    H228861   4.203   3.457   1.941 -0.6286  0.5697  0.8112
 9633TIP3   OH228862   0.792   3.015   0.190  0.3799 -0.3920  0.7417
 9633TIP3    H128863   0.869   3.066   0.212  0.2300  0.0758  0.2026
 9633TIP3    H228864   0.734   3.024   0.266  0.9427 -0.9285  1.2393
 9634TIP3   OH228865   7.012   2.070   1.057 -0.5774  0.7477 -0.2937
 9634TIP3    H128866   6.984   2.000   0.998  2.2709  0.6697 -1.7351
 9634TIP3    H228867   7.027   2.145   0.999  2.8513  0.5179  0.0639
 9635TIP3   OH228868   3.384   4.047   0.445  0.1542 -0.4835 -0.5232
 9635TIP3    H128869   3.436   4.091   0.512 -1.6446  0.3104  0.4289
 9635TIP3    H228870   3.448   4.006   0.387  1.8446  1.5548 -0.1890
 9636TIP3   OH228871   3.892   6.527   5.093 -0.1308 -0.1653 -0.3724
 9636TIP3    H128872   3.884   6.600   5.155  0.3717 -0.1057 -0.3720
 9636TIP3    H228873   3.987   6.515   5.083 -0.2118 -0.4757 -0.7734
 9637TIP3   OH228874   3.990   6.449   0.383 -0.0660  0.0786 -0.3490
 9637TIP3    H128875   3.956   6.407   0.304  1.2255  0.7038 -1.2854
 9637TIP3    H228876   3.927   6.519   0.402 -1.2136 -1.0416  0.1213
 9638TIP3   OH228877   2.991   2.567   3.096  0.1645  0.2343 -0.2393
 9638TIP3    H128878   3.035   2.652   3.088  1.8633 -0.3165  2.2023
 9638TIP3    H228879   2.993   2.547   3.190 -1.4023 -1.9005 -0.5815
 9639TIP3   OH228880   2.992   4.796   5.479  0.3353  0.5502 -0.0739
 9639TIP3    H128881   3.051   4.766   5.410  3.2773  2.6370  1.3237
 9639TIP3    H228882   3.000   4.730   5.547  1.0204  0.7752  0.0714
 9640TIP3   OH228883   4.142   0.003   0.838  0.1922  0.1777 -0.0113
 9640TIP3    H128884   4.134   0.043   0.751  0.8834  0.7024  0.1615
 9640TIP3    H228885   4.103   0.067   0.897  2.5803  1.3152  0.4472
 9641TIP3   OH228886   5.688   0.509   2.124 -0.1827 -0.1785  0.2075
 9641TIP3    H128887   5.664   0.499   2.032  0.5201 -2.3799  0.2124
 9641TIP3    H228888   5.764   0.568   2.123 -0.1857 -0.1734 -0.6134
 9642TIP3   OH228889   6.893   6.529   2.769 -0.2500  0.4099 -0.3357
 9642TIP3    H128890   6.811   6.542   2.720  0.0744 -1.7220 -1.5695
 9642TIP3    H228891   6.892   6.436   2.792  1.4261  0.5435  0.3881
 9643TIP3   OH228892   3.404   2.656   5.675  0.0835 -0.0640 -0.0135
 9643TIP3    H128893   3.341   2.687   5.740 -0.5512  0.8716 -1.0252
 9643TIP3    H228894   3.350   2.613   5.609  0.6339 -0.3424 -0.2825
 9644TIP3   OH228895   2.087   5.818   1.090 -0.2115 -0.2513 -0.5215
 9644TIP3    H128896   2.053   5.811   1.179  1.3763  0.9253  0.2327
 9644TIP3    H228897   2.054   5.902   1.058  0.6952  0.1934 -0.3338
 9645TIP3   OH228898   1.601   4.059   5.233 -0.4193  0.2652 -0.4111
 9645TIP3    H128899   1.594   3.987   5.295  0.3804  0.7530  0.2663
 9645TIP3    H228900   1.620   4.135   5.287  1.5474  0.4818 -1.3205
 9646TIP3   OH228901   2.805   4.212   5.803  0.1190 -0.3359 -0.2906
 9646TIP3    H128902   2.753   4.133   5.818  1.5750 -1.4172 -0.6779
 9646TIP3    H228903   2.878   4.182   5.748  1.5765  0.9361  0.8804
 9647TIP3   OH228904   6.051   6.281   3.288 -0.1139 -0.0272  0.4963
 9647TIP3    H128905   5.998   6.355   3.259  0.4136  0.8450  1.6761
 9647TIP3    H228906   6.137   6.296   3.249 -0.1565 -0.3298  0.2791
 9648TIP3   OH228907   2.075   5.149   2.432 -0.2787  0.3109  0.0893
 9648TIP3    H128908   2.150   5.175   2.378  1.7300 -0.7096  2.2284
 9648TIP3    H228909   2.041   5.231   2.466  1.6644  0.6878  1.2937
 9649TIP3   OH228910   6.777   2.575   3.374 -0.4245 -0.6872  0.1106
 9649TIP3    H128911   6.752   2.499   3.427 -0.2607  0.1511  1.4510
 9649TIP3    H228912   6.696   2.626   3.366 -0.7366 -1.3657 -1.4874
 9650TIP3   OH228913   4.621   2.212   4.350 -1.0750  0.8166  0.0484
 9650TIP3    H128914   4.581   2.200   4.264  1.7306  0.0014 -1.2585
 9650TIP3    H228915   4.676   2.290   4.340  0.8748 -0.4524  0.4038
 9651TIP3   OH228916   1.059   4.239   3.372 -0.4294 -0.2475 -0.8073
 9651TIP3    H128917   1.008   4.188   3.309  1.3804 -1.1162 -1.6367
 9651TIP3    H228918   1.010   4.231   3.454 -1.2881 -1.5726 -1.4118
 9652TIP3   OH228919   4.806   1.196   5.696 -0.1425 -0.3364  1.0637
 9652TIP3    H128920   4.874   1.213   5.762  0.2012  0.0489  0.6213
 9652TIP3    H228921   4.730   1.167   5.746 -0.1344  0.6759  1.7072
 9653TIP3   OH228922   1.345   4.833   4.039 -0.2659 -0.4066 -0.2319
 9653TIP3    H128923   1.336   4.787   4.122  0.9774  0.7699  0.5807
 9653TIP3    H228924   1.264   4.811   3.991 -1.7870  0.1811  1.9168
 9654TIP3   OH228925   5.264   2.323   0.397 -0.1834 -0.4842  0.2420
 9654TIP3    H128926   5.188   2.293   0.448 -0.7264 -0.2609 -0.4180
 9654TIP3    H228927   5.242   2.300   0.307 -0.3682  1.3711 -0.2172
 9655TIP3   OH228928   5.169   4.866   2.806  0.2526  0.3414  0.2348
 9655TIP3    H128929   5.252   4.898   2.841  0.2427  1.2378 -0.5506
 9655TIP3    H228930   5.104   4.895   2.870  0.8138 -4.0185  3.2992
 9656TIP3   OH228931   1.875   4.767   2.212 -0.1044 -0.0728 -0.3060
 9656TIP3    H128932   1.806   4.701   2.222  0.3348 -0.5693 -0.5188
 9656TIP3    H228933   1.866   4.823   2.290 -1.8824  0.9647 -1.1933
 9657TIP3   OH228934   4.833   4.273   1.673  0.4901 -0.6654  0.3609
 9657TIP3    H128935   4.797   4.193   1.711  3.5841 -0.8089  3.4681
 9657TIP3    H228936   4.885   4.242   1.598  0.2391 -1.3091  0.4451
 9658TIP3   OH228937   1.881   5.106   1.378  0.1418 -0.3100 -0.0113
 9658TIP3    H128938   1.956   5.164   1.363 -0.2237  0.0590 -0.4447
 9658TIP3    H228939   1.806   5.155   1.344 -0.3962 -0.3933  1.0209
 9659TIP3   OH228940   2.396   4.938   0.960  0.3849 -0.2077 -0.5544
 9659TIP3    H128941   2.392   4.999   1.034  0.7575 -3.1173  2.0575
 9659TIP3    H228942   2.306   4.933   0.928  0.1272  0.7829 -0.0142
 9660TIP3   OH228943   4.545   4.592   3.991  0.1137  0.1725 -0.5529
 9660TIP3    H128944   4.545   4.535   3.914  1.4430  0.5498 -0.8633
 9660TIP3    H228945   4.636   4.622   3.998  0.5985 -1.6606  2.5375
 9661TIP3   OH228946   0.567   5.006   0.032 -0.6709  0.5141 -0.0756
 9661TIP3    H128947   0.594   4.920   0.065  0.3508  1.1693  0.8867
 9661TIP3    H228948   0.521   5.046   0.106  0.9865  1.7196  0.3445
 9662TIP3   OH228949   3.377   0.371   2.139  0.0382 -0.0846 -0.3982
 9662TIP3    H128950   3.451   0.349   2.196  0.4329  0.6236 -0.6301
 9662TIP3    H228951   3.374   0.301   2.074 -0.3752 -0.8676  0.4438
 9663TIP3   OH228952   2.245   2.806   1.327 -0.1985  0.0635  0.4438
 9663TIP3    H128953   2.245   2.895   1.363  1.0636  0.5197 -0.5886
 9663TIP3    H228954   2.228   2.750   1.402 -0.2047  1.1253  1.2717
 9664TIP3   OH228955   4.869   6.719   4.241  0.2479 -0.1817 -0.0767
 9664TIP3    H128956   4.939   6.677   4.291  1.0160  0.0825 -0.8997
 9664TIP3    H228957   4.818   6.766   4.307  0.5412 -0.7917  0.6025
 9665TIP3   OH228958   1.338   1.819   2.351 -0.0067  0.0788 -0.0786
 9665TIP3    H128959   1.311   1.758   2.420 -0.1944  0.5315  0.2535
 9665TIP3    H228960   1.422   1.786   2.321  1.3255  1.2566  2.1006
 9666TIP3   OH228961   2.409   6.131   1.405 -0.0296  0.8368 -0.1295
 9666TIP3    H128962   2.403   6.141   1.500  4.7090 -0.0022  0.5045
 9666TIP3    H228963   2.376   6.043   1.389  2.0010 -0.2607  1.3081
 9667TIP3   OH228964   6.963   4.182   0.481  0.3667  0.0450 -0.3549
 9667TIP3    H128965   7.008   4.264   0.463 -0.4744  0.6618  0.3168
 9667TIP3    H228966   6.887   4.206   0.534 -1.5933 -0.7517 -2.6154
 9668TIP3   OH228967   6.604   1.549   1.090  0.2869  0.1203 -0.2634
 9668TIP3    H128968   6.562   1.477   1.137  1.6852 -0.2723  0.4529
 9668TIP3    H228969   6.619   1.616   1.157  0.3574  0.4566 -0.6099
 9669TIP3   OH228970   2.417   3.951   0.005  0.2900 -0.4127 -0.0993
 9669TIP3    H128971   2.460   3.874   0.041 -0.5467 -0.4662  0.8511
 9669TIP3    H228972   2.327   3.945   0.038  0.1479  0.8269 -0.2287
 9670TIP3   OH228973   3.510   0.767   3.766 -0.1421  0.0316 -0.0477
 9670TIP3    H128974   3.495   0.803   3.679 -1.4895  0.6892  0.4281
 9670TIP3    H228975   3.489   0.674   3.757 -0.3418  0.1087 -0.4146
 9671TIP3   OH228976   1.979   2.284   1.028  0.7681  0.2371  0.0993
 9671TIP3    H128977   2.052   2.311   1.084  1.4717  0.0285 -0.7007
 9671TIP3    H228978   2.019   2.261   0.945 -0.2597  0.5332 -0.5064
 9672TIP3   OH228979   5.942   3.943   2.237  0.1462 -1.1721 -0.2209
 9672TIP3    H128980   5.889   3.974   2.163 -0.7475 -0.5323  0.6560
 9672TIP3    H228981   5.967   3.854   2.214 -3.0914 -2.3024  0.2182
 9673TIP3   OH228982   0.498   1.541   2.628 -0.4404  0.4252 -0.0956
 9673TIP3    H128983   0.509   1.505   2.716  1.5985 -1.4934 -1.0330
 9673TIP3    H228984   0.554   1.619   2.626 -3.8108  3.1304  1.5162
 9674TIP3   OH228985   6.683   2.082   5.730  0.1796 -0.2697 -0.0656
 9674TIP3    H128986   6.735   2.090   5.810 -2.1473 -0.3018  1.5422
 9674TIP3    H228987   6.643   1.996   5.735 -0.4256 -0.0645 -1.0108
 9675TIP3   OH228988   5.883   6.175   1.757  0.3179  0.1368  0.0084
 9675TIP3    H128989   5.955   6.141   1.810  0.3490  0.6465  0.2999
 9675TIP3    H228990   5.926   6.219   1.684  0.2779 -0.4405 -0.3710
 9676TIP3   OH228991   4.597   2.724   3.344 -0.0299  0.3050 -0.0417
 9676TIP3    H128992   4.568   2.679   3.264 -1.7592 -0.3136  0.8682
 9676TIP3    H228993   4.532   2.793   3.356  0.5156  0.7140  0.5628
 9677TIP3   OH228994   4.491   2.259   5.445  0.5055 -0.0070  0.6984
 9677TIP3    H128995   4.438   2.206   5.385 -0.8512  0.1505  1.7167
 9677TIP3    H228996   4.582   2.233   5.426 -0.0111 -1.2955 -0.1399
 9678TIP3   OH228997   3.300   1.846   2.598 -0.2876 -0.0413 -0.1088
 9678TIP3    H128998   3.355   1.802   2.533 -0.8115  0.1527 -0.6983
 9678TIP3    H228999   3.267   1.775   2.653 -0.3114 -0.2814 -0.4265
 9679TIP3   OH229000   6.132   5.707   5.069 -0.6655 -0.0469 -0.4047
 9679TIP3    H129001   6.159   5.671   4.984  0.0933  1.0345 -0.6372
 9679TIP3    H229002   6.121   5.629   5.125  1.7492 -0.6646 -0.6554
 9680TIP3   OH229003   5.019   1.584   1.360 -0.5315  0.2120  0.2134
 9680TIP3    H129004   4.960   1.513   1.335 -0.1149 -0.2827  0.6177
 9680TIP3    H229005   4.967   1.640   1.417 -0.1521 -1.1147  1.9334
 9681TIP3   OH229006   0.207   5.371   4.371  0.0758  0.6971 -0.2543
 9681TIP3    H129007   0.213   5.300   4.306  0.3228  0.9180 -0.4733
 9681TIP3    H229008   0.129   5.420   4.345  1.0183  1.6853 -1.2984
 9682TIP3   OH229009   4.520   6.770   2.749  0.3898  0.1491  0.0460
 9682TIP3    H129010   4.598   6.745   2.797 -0.5803 -1.8859  0.6623
 9682TIP3    H229011   4.553   6.821   2.675  2.3909 -1.4083 -0.2213
 9683TIP3   OH229012   5.065   0.594   0.580 -0.1503  0.3031  0.6075
 9683TIP3    H129013   5.005   0.621   0.650  0.0018 -0.3922  1.0164
 9683TIP3    H229014   5.009   0.585   0.503 -0.4941  0.1038  0.8774
 9684TIP3   OH229015   5.232   4.176   2.453 -0.1090 -0.0520  0.7549
 9684TIP3    H129016   5.223   4.123   2.374 -1.8324  2.5428 -0.9796
 9684TIP3    H229017   5.186   4.126   2.521 -1.8181 -0.7537 -0.8150
 9685TIP3   OH229018   1.379   0.810   5.346  0.8831 -0.4499 -0.2388
 9685TIP3    H129019   1.463   0.765   5.362  2.0424  1.8391  0.5087
 9685TIP3    H229020   1.404   0.892   5.302 -0.9775  0.2922 -0.0002
 9686TIP3   OH229021   0.352   2.125   1.363  0.7230  0.5806  0.5254
 9686TIP3    H129022   0.316   2.181   1.294  1.2526 -0.3260 -0.5194
 9686TIP3    H229023   0.335   2.173   1.444  0.4090  1.8489 -0.2610
 9687TIP3   OH229024   4.667   4.707   0.770  0.0425 -0.2734 -0.3866
 9687TIP3    H129025   4.658   4.767   0.696 -0.1904 -0.5663 -0.5970
 9687TIP3    H229026   4.680   4.765   0.846 -2.2910  0.1666 -0.2548
 9688TIP3   OH229027   5.865   0.059   3.969 -0.0939  0.2967 -0.0384
 9688TIP3    H129028   5.927   0.130   3.982 -0.1223  0.0984  1.3663
 9688TIP3    H229029   5.825   0.077   3.884  0.9893  1.1036 -0.3989
 9689TIP3   OH229030   6.944   1.951   1.871 -0.3877  0.2342 -0.2252
 9689TIP3    H129031   6.904   1.870   1.837 -2.1098  0.7272  0.5154
 9689TIP3    H229032   6.967   2.000   1.792  1.4897 -1.2990 -0.7105
 9690TIP3   OH229033   4.716   3.079   3.130  0.1021 -0.4488  0.2363
 9690TIP3    H129034   4.638   3.068   3.075  0.1168 -0.3604  0.1967
 9690TIP3    H229035   4.681   3.088   3.219 -0.0603  1.3176  0.0336
 9691TIP3   OH229036   7.055   6.237   4.201  0.6610 -0.2953  0.1555
 9691TIP3    H129037   7.066   6.146   4.174  0.2936 -0.0132 -0.9810
 9691TIP3    H229038   7.071   6.288   4.121  0.2970  0.6057  0.6432
 9692TIP3   OH229039   0.464   0.216   2.821  0.0499 -0.3490 -0.0919
 9692TIP3    H129040   0.486   0.126   2.799  1.0666 -0.2853  0.5829
 9692TIP3    H229041   0.411   0.247   2.747  1.1894 -0.9419 -1.2037
 9693TIP3   OH229042   1.171   6.630   4.486 -0.3069  0.0052  0.2974
 9693TIP3    H129043   1.253   6.667   4.519  0.8646 -1.5281 -0.7176
 9693TIP3    H229044   1.163   6.546   4.531 -1.2648  0.0787  0.2845
 9694TIP3   OH229045   4.514   3.567   0.431  0.2582 -0.3296  0.1623
 9694TIP3    H129046   4.603   3.566   0.398  0.5227  0.9947  0.7570
 9694TIP3    H229047   4.519   3.523   0.515  0.3422 -0.3006  0.1728
 9695TIP3   OH229048   2.074   0.506   0.113  0.5073 -0.1544 -0.0886
 9695TIP3    H129049   2.018   0.449   0.060  0.4593 -0.1954  0.0059
 9695TIP3    H229050   2.086   0.584   0.059 -0.4726  0.2901  0.2954
 9696TIP3   OH229051   6.838   3.141   4.387  0.2999 -0.1533  0.0541
 9696TIP3    H129052   6.857   3.059   4.433  0.2327 -0.5538 -0.6334
 9696TIP3    H229053   6.921   3.190   4.391 -0.2606  0.7757  2.4895
 9697TIP3   OH229054   1.583   3.312   3.556  0.1921  0.0262  0.3906
 9697TIP3    H129055   1.660   3.318   3.499  1.1734 -0.0899  1.6382
 9697TIP3    H229056   1.529   3.386   3.531  0.4595 -0.1701 -0.8535
 9698TIP3   OH229057   1.465   1.634   0.419  0.1053 -0.4617  0.3310
 9698TIP3    H129058   1.498   1.718   0.387  0.5369 -0.8478 -0.2618
 9698TIP3    H229059   1.532   1.571   0.393 -0.1337 -0.9698  0.9199
 9699TIP3   OH229060   5.726   0.778   4.198 -0.0893  0.0363 -0.1357
 9699TIP3    H129061   5.696   0.756   4.286  0.8731  0.7591  0.3921
 9699TIP3    H229062   5.775   0.702   4.168  0.3649  0.1465  0.3253
 9700TIP3   OH229063   3.237   2.418   4.463  1.0565 -0.1304  0.4509
 9700TIP3    H129064   3.226   2.348   4.398 -0.8293  0.9932 -0.5150
 9700TIP3    H229065   3.246   2.497   4.411 -2.8053  1.1543  1.3869
 9701TIP3   OH229066   0.649   3.198   3.798  0.2414 -0.0443 -0.1607
 9701TIP3    H129067   0.723   3.218   3.741  0.6799 -0.2980  0.3119
 9701TIP3    H229068   0.673   3.235   3.883 -0.6202  0.7630 -0.2512
 9702TIP3   OH229069   5.401   0.648   1.280 -0.0236  0.0684 -0.5098
 9702TIP3    H129070   5.474   0.588   1.262  0.1174  0.3239 -0.7852
 9702TIP3    H229071   5.335   0.593   1.324 -0.0741 -0.3904 -1.1501
 9703TIP3   OH229072   1.685   1.429   0.184  0.2235  0.2585  0.0563
 9703TIP3    H129073   1.624   1.499   0.160  1.1069  0.8604 -0.4975
 9703TIP3    H229074   1.640   1.380   0.253 -0.1388  1.7821  0.9424
 9704TIP3   OH229075   1.658   5.291   4.683 -0.3069 -0.0381 -0.1217
 9704TIP3    H129076   1.746   5.276   4.647 -0.3955  1.2294 -0.9055
 9704TIP3    H229077   1.658   5.240   4.765  0.6131 -1.2862 -0.8566
 9705TIP3   OH229078   2.371   3.101   4.298 -0.0195 -0.7530 -0.9468
 9705TIP3    H129079   2.370   3.021   4.245 -1.6522 -0.3415 -1.6090
 9705TIP3    H229080   2.398   3.170   4.237  0.4899 -0.6465 -0.6080
 9706TIP3   OH229081   6.083   5.712   4.428  0.4422 -0.8033  0.2335
 9706TIP3    H129082   6.051   5.685   4.342 -0.6935 -2.6536  1.1628
 9706TIP3    H229083   6.021   5.673   4.490  0.9275  0.9012  1.8889
 9707TIP3   OH229084   1.626   2.255   2.316  0.3793  0.5454  0.5595
 9707TIP3    H129085   1.581   2.173   2.296 -1.4507  1.5638  0.2570
 9707TIP3    H229086   1.592   2.317   2.251  1.6404  1.5725  0.8477
 9708TIP3   OH229087   7.198   5.489   3.231  0.1291 -0.1800  0.0117
 9708TIP3    H129088   7.246   5.421   3.277 -0.6497 -0.9813 -0.3414
 9708TIP3    H229089   7.108   5.458   3.227  0.0252  0.1958 -1.3902
 9709TIP3   OH229090   4.671   6.769   1.063  0.2414 -0.0962  0.3670
 9709TIP3    H129091   4.695   6.839   1.002  0.1623 -0.7880 -0.4810
 9709TIP3    H229092   4.634   6.700   1.007 -0.0782 -0.6427  1.2290
 9710TIP3   OH229093   0.662   4.667   4.292  0.1263  0.3790  0.5274
 9710TIP3    H129094   0.688   4.605   4.359 -0.2552 -0.1985  0.1540
 9710TIP3    H229095   0.709   4.748   4.313  0.6452 -0.0456  1.0011
 9711TIP3   OH229096   1.141   6.414   3.417 -0.3323 -0.0697 -0.0241
 9711TIP3    H129097   1.067   6.469   3.389 -0.1532 -0.2754 -0.9326
 9711TIP3    H229098   1.108   6.325   3.408 -0.1779 -0.1439  0.1605
 9712TIP3   OH229099   5.327   0.887   2.294 -0.4179  0.0116 -0.1364
 9712TIP3    H129100   5.376   0.891   2.377  0.6670 -1.2904 -0.6736
 9712TIP3    H229101   5.245   0.933   2.312  1.4848  3.5202  0.4482
 9713TIP3   OH229102   2.987   1.132   3.940  0.1430 -0.0181  0.0293
 9713TIP3    H129103   2.905   1.149   3.893  0.2880  0.9117  0.1025
 9713TIP3    H229104   3.010   1.043   3.915 -1.2113 -0.5279  0.4711
 9714TIP3   OH229105   5.209   6.678   1.899 -0.1382  0.1978  0.0752
 9714TIP3    H129106   5.266   6.668   1.822  0.0881  0.6643  0.1779
 9714TIP3    H229107   5.125   6.706   1.863 -0.5914 -1.3268 -0.1602
 9715TIP3   OH229108   0.266   5.188   2.948  0.6650  0.7138  0.2168
 9715TIP3    H129109   0.235   5.204   3.037 -0.8632 -1.7021  0.1839
 9715TIP3    H229110   0.344   5.133   2.959  1.2190  1.4527  0.0746
 9716TIP3   OH229111   4.427   4.723   0.299  0.0229  0.8567 -0.0026
 9716TIP3    H129112   4.368   4.653   0.325 -1.0454  2.2852  1.7080
 9716TIP3    H229113   4.510   4.679   0.281 -0.7735 -0.8931  0.3680
 9717TIP3   OH229114   0.741   1.355   3.708  0.2221  0.0794  0.3820
 9717TIP3    H129115   0.831   1.329   3.730  0.0920 -0.0880  0.7174
 9717TIP3    H229116   0.751   1.416   3.635  0.6862  0.9475  1.1506
 9718TIP3   OH229117   0.178   6.128   1.494 -0.1227  0.3604 -0.3812
 9718TIP3    H129118   0.236   6.123   1.417 -0.1668  0.9265 -0.4565
 9718TIP3    H229119   0.237   6.151   1.566  0.0449 -0.9063 -0.0837
 9719TIP3   OH229120   4.203   5.526   0.861  0.3521  0.7924  0.2106
 9719TIP3    H129121   4.145   5.525   0.937 -1.1171  0.7948 -0.8668
 9719TIP3    H229122   4.231   5.436   0.851  1.0055  0.8874  1.0668
 9720TIP3   OH229123   4.941   4.314   3.521  0.1142 -0.5942  0.3684
 9720TIP3    H129124   4.971   4.358   3.600 -0.3857  0.2151  0.1126
 9720TIP3    H229125   4.847   4.300   3.535  0.0011 -0.3488 -0.1225
 9721TIP3   OH229126   5.231   5.007   3.304  0.6494 -0.2655  0.0874
 9721TIP3    H129127   5.285   5.085   3.310  0.1713  0.0413  0.4416
 9721TIP3    H229128   5.182   5.005   3.386  0.1972 -0.5887 -0.1856
 9722TIP3   OH229129   1.167   1.135   1.432  0.3408 -0.4494  0.1818
 9722TIP3    H129130   1.091   1.110   1.485  0.5312 -0.2881  0.5372
 9722TIP3    H229131   1.131   1.186   1.360 -0.0167 -1.4399 -0.3521
 9723TIP3   OH229132   2.516   1.166   1.328 -0.2133 -0.2337  0.4099
 9723TIP3    H129133   2.584   1.130   1.270 -1.0248 -0.3998 -0.4658
 9723TIP3    H229134   2.542   1.137   1.415  0.1773 -1.3629 -0.0539
 9724TIP3   OH229135   6.657   6.602   2.502 -0.3134  0.0911  0.4216
 9724TIP3    H129136   6.734   6.612   2.446  0.3161 -2.2178  0.7971
 9724TIP3    H229137   6.668   6.517   2.544 -2.1584  0.5326  1.9366
 9725TIP3   OH229138   7.184   5.193   3.004  0.1708  0.2885  0.2968
 9725TIP3    H129139   7.217   5.276   2.970 -1.3838  1.3282  1.1728
 9725TIP3    H229140   7.091   5.208   3.019 -0.2064 -1.6981  0.2971
 9726TIP3   OH229141   5.324   1.158   5.750 -0.3051  0.1893 -0.0259
 9726TIP3    H129142   5.322   1.203   5.666 -0.5302  2.0026  0.8855
 9726TIP3    H229143   5.252   1.095   5.745 -0.9327  0.9428 -0.8482
 9727TIP3   OH229144   6.157   3.670   0.394  0.3105 -0.0427  0.3095
 9727TIP3    H129145   6.224   3.603   0.405  0.0254 -0.4235 -0.1935
 9727TIP3    H229146   6.182   3.715   0.313  1.3563  1.4887  1.4478
 9728TIP3   OH229147   6.724   0.906   0.620  0.0482  0.0800  0.4123
 9728TIP3    H129148   6.806   0.946   0.646 -0.5307  1.1737  0.6334
 9728TIP3    H229149   6.741   0.871   0.532  0.6469  0.5999  0.3135
 9729TIP3   OH229150   1.665   1.250   1.085  0.0048 -0.0819 -0.1947
 9729TIP3    H129151   1.589   1.232   1.030 -0.5755  1.3749  0.0924
 9729TIP3    H229152   1.730   1.288   1.025 -0.3433  0.7824 -0.0395
 9730TIP3   OH229153   6.493   2.270   5.767  0.9143  0.6711 -0.0167
 9730TIP3    H129154   6.572   2.220   5.748 -0.0462 -0.1135 -2.3915
 9730TIP3    H229155   6.475   2.319   5.687 -2.1824 -0.9170 -0.4653
 9731TIP3   OH229156   2.659   6.709   0.586  0.4564  0.0619  0.2338
 9731TIP3    H129157   2.663   6.686   0.493  2.1670  0.1911  0.2338
 9731TIP3    H229158   2.570   6.687   0.613 -0.3406  0.7932 -1.6256
 9732TIP3   OH229159   6.779   2.271   5.495  0.0588  0.5331 -0.2549
 9732TIP3    H129160   6.747   2.216   5.567 -0.9275  0.4525 -0.7355
 9732TIP3    H229161   6.839   2.215   5.446  2.4713  1.2347  1.6923
 9733TIP3   OH229162   4.441   0.371   3.503 -0.3736 -0.1314  0.3123
 9733TIP3    H129163   4.448   0.444   3.442  1.3433 -0.9739 -0.5799
 9733TIP3    H229164   4.479   0.404   3.585 -0.3519  0.2291  0.1564
 9734TIP3   OH229165   7.141   5.262   5.436  0.1087 -0.1763  0.0022
 9734TIP3    H129166   7.175   5.219   5.358 -1.0433  0.0006 -0.6159
 9734TIP3    H229167   7.162   5.355   5.423 -0.5663 -0.0714 -0.3643
 9735TIP3   OH229168   1.493   4.341   2.231 -0.0500 -0.2126 -0.7908
 9735TIP3    H129169   1.563   4.331   2.167  0.5629  1.1623 -0.3662
 9735TIP3    H229170   1.482   4.254   2.269  2.4085 -0.1830  0.1304
 9736TIP3   OH229171   4.256   5.517   2.672  0.3845 -0.0349  0.8145
 9736TIP3    H129172   4.207   5.487   2.749 -1.5483 -2.0114 -1.0462
 9736TIP3    H229173   4.268   5.438   2.619  0.0238  1.5040 -1.7354
 9737TIP3   OH229174   0.065   3.478   4.396  0.1481  0.3826 -0.3795
 9737TIP3    H129175   0.148   3.465   4.349  0.6512 -1.0490  0.8267
 9737TIP3    H229176   0.014   3.535   4.338  0.9585 -0.7927 -2.3672
 9738TIP3   OH229177   5.383   3.704   4.246  0.0421  0.4398 -0.0260
 9738TIP3    H129178   5.389   3.686   4.152 -0.6506 -1.1128  0.1875
 9738TIP3    H229179   5.471   3.731   4.271  0.2131  0.9484 -1.1293
 9739TIP3   OH229180   3.609   4.702   1.621 -0.1439 -0.2240 -0.0441
 9739TIP3    H129181   3.578   4.777   1.672 -1.7028 -2.6925  2.9961
 9739TIP3    H229182   3.695   4.728   1.589 -0.4400  2.6926  1.2233
 9740TIP3   OH229183   6.212   5.266   3.629 -0.0424  0.7762 -0.0312
 9740TIP3    H129184   6.199   5.342   3.573  3.4171  1.5421 -0.0352
 9740TIP3    H229185   6.219   5.192   3.568  3.0168  1.5114 -0.7752
 9741TIP3   OH229186   2.648   2.375   3.139  0.4049 -0.4834  0.6042
 9741TIP3    H129187   2.690   2.333   3.214  0.2866 -2.0908 -0.1749
 9741TIP3    H229188   2.565   2.408   3.173 -0.1155 -2.0969  1.0045
 9742TIP3   OH229189   3.898   4.674   1.301  0.6164 -0.3303 -0.0493
 9742TIP3    H129190   3.991   4.659   1.282  0.4725  0.5302 -1.5780
 9742TIP3    H229191   3.852   4.611   1.245  0.2426  0.4139 -0.5919
 9743TIP3   OH229192   1.855   4.203   0.339  0.2288  0.3648 -0.2480
 9743TIP3    H129193   1.845   4.288   0.381 -1.6408 -0.4141  0.9785
 9743TIP3    H229194   1.891   4.147   0.407  1.7925  0.1799 -1.1488
 9744TIP3   OH229195   4.606   2.886   4.429  0.7098 -0.3249  0.0334
 9744TIP3    H129196   4.511   2.879   4.441  0.8837 -0.7535  1.2661
 9744TIP3    H229197   4.619   2.870   4.335 -0.3073 -1.6197  0.0882
 9745TIP3   OH229198   4.168   4.897   4.235 -0.0351 -0.2282  0.6050
 9745TIP3    H129199   4.087   4.850   4.214 -0.8844  1.5446 -0.3012
 9745TIP3    H229200   4.235   4.855   4.181 -1.0663  0.4944 -1.3439
 9746TIP3   OH229201   1.158   1.129   3.582 -0.0075  0.1698 -0.5311
 9746TIP3    H129202   1.209   1.140   3.663 -2.9762 -1.4758  1.7695
 9746TIP3    H229203   1.181   1.041   3.553  0.7652  0.6170 -1.3162
 9747TIP3   OH229204   0.556   1.060   5.048  0.3097  0.6322 -0.1167
 9747TIP3    H129205   0.633   1.020   5.087 -0.4027 -0.6389  0.0429
 9747TIP3    H229206   0.527   0.998   4.982 -1.3138  0.4508  0.7112
 9748TIP3   OH229207   3.981   1.476   3.371  0.7999 -0.1367  0.2134
 9748TIP3    H129208   4.029   1.533   3.432 -0.6748 -0.7211  2.0365
 9748TIP3    H229209   4.039   1.466   3.296  1.1108  3.7964 -0.2664
 9749TIP3   OH229210   1.047   3.543   3.426  0.4621 -0.1233  0.4734
 9749TIP3    H129211   0.974   3.498   3.385 -0.7107  0.9257  1.3201
 9749TIP3    H229212   1.073   3.485   3.497  1.0819 -0.9342 -0.4010
   7.20365   6.79167   5.88175   0.00000   0.00000  -2.40122   0.00000  -2.40122  -3.39583
